 Gaussian 16, Revision C.01,
 Gaussian 16:  ES64L-G16RevC.01  3-Jul-2019

 ----------------------------------------------------------------------
 # opt b3lyp/6-31g(d) scrf=(smd,solvent=water) nosymm pop=mk geom=conne
 ctivity iop(6/33=2,6/42=6)
 ----------------------------------------------------------------------

 ---
 EWV
 ---
 Symbolic Z-matrix:
 Charge =  1 Multiplicity = 1

 SCF Done:  E(RB3LYP) =  -1128.45839169     A.U. after   13 cycles

 Alpha  occ. eigenvalues --  -19.21038 -19.20482 -19.18734 -19.18324 -14.44627
 Alpha  occ. eigenvalues --  -10.30578 -10.27559 -10.27418 -10.26771 -10.26692
 Alpha  occ. eigenvalues --  -10.25836 -10.25437 -10.24013 -10.23544 -10.23282
 Alpha  occ. eigenvalues --  -10.23049 -10.22945 -10.21897 -10.21867 -10.21105
 Alpha  occ. eigenvalues --  -10.20864 -10.20692 -10.19789 -10.19728 -10.19280
 Alpha  occ. eigenvalues --   -1.13651  -1.07776  -1.05627  -1.04781  -1.02910
 Alpha  occ. eigenvalues --   -0.89253  -0.87302  -0.83192  -0.81894  -0.79041
 Alpha  occ. eigenvalues --   -0.78300  -0.75086  -0.74979  -0.71012  -0.70408
 Alpha  occ. eigenvalues --   -0.69666  -0.67792  -0.65667  -0.65344  -0.63102
 Alpha  occ. eigenvalues --   -0.60606  -0.58955  -0.56135  -0.55896  -0.54208
 Alpha  occ. eigenvalues --   -0.53448  -0.52218  -0.51688  -0.51074  -0.50096
 Alpha  occ. eigenvalues --   -0.49769  -0.48597  -0.47579  -0.47276  -0.46280
 Alpha  occ. eigenvalues --   -0.45623  -0.45250  -0.44947  -0.44323  -0.43403
 Alpha  occ. eigenvalues --   -0.42680  -0.42188  -0.41601  -0.40970  -0.39696
 Alpha  occ. eigenvalues --   -0.39366  -0.39298  -0.39048  -0.38212  -0.37635
 Alpha  occ. eigenvalues --   -0.37395  -0.36574  -0.35865  -0.34104  -0.33844
 Alpha  occ. eigenvalues --   -0.33391  -0.32894  -0.32485  -0.29261  -0.27622
 Alpha  occ. eigenvalues --   -0.24713  -0.22274  -0.20025
 Alpha virt. eigenvalues --   -0.08523  -0.06047  -0.00108   0.01209   0.01462
 Alpha virt. eigenvalues --    0.07297   0.08492   0.09001   0.09825   0.10408
 Alpha virt. eigenvalues --    0.11005   0.11818   0.12329   0.12527   0.13499

 Mulliken charges:
               1
     1  C   -0.295982
     2  C    0.070648
     3  C    0.115752
     4  C   -0.216419
     5  C    0.353089
     6  C   -0.362525
     7  C   -0.165280
     8  C    0.357117
     9  O   -0.543412
    10  C   -0.239381
    11  C   -0.298469
    12  N   -0.493651
    13  C    0.117548
    14  C    0.031513
    15  C    0.261541
    16  O   -0.552120
    17  C    0.187419
    18  O   -0.553947
    19  C   -0.170563
    20  C    0.198304
    21  C    0.336588
    22  C   -0.287101
    23  C    0.337997
    24  O   -0.551662
    25  C   -0.238586
    26  H    0.215938
    27  H    0.191800
    28  H    0.195106
    29  H    0.198574
    30  H    0.220584
    31  H    0.221295
    32  H    0.181815
    33  H    0.191444
    34  H    0.181827
    35  H    0.183956
    36  H    0.259396
    37  H    0.203454
    38  H    0.209490
    39  H    0.202886
    40  H    0.196804
    41  H    0.189688
    42  H    0.178508
    43  H    0.179020
 Sum of Mulliken charges =   1.00000

 Dipole moment (field-independent basis, Debye):
    X=             -5.6405    Y=              4.5348    Z=             -0.6259  Tot=              7.2643
 Quadrupole moment (field-independent basis, Debye-Ang):
   XX=            -84.0927   YY=            -97.2821   ZZ=           -140.1694
   XY=              6.3176   XZ=              1.8677   YZ=             -1.6345

 ESP charges:
               1
     1  C   -0.345867
     2  C   -0.279134
     3  C    0.135155
     4  C   -0.250599
     5  C    0.280874
     6  C   -0.025122
     7  C   -0.100087
     8  C    0.321038
     9  O   -0.356985
    10  C   -0.019586
    11  C   -0.372905
    12  N    0.018979
    13  C    0.109878
    14  C   -0.242633
    15  C    0.311409
    16  O   -0.375579
    17  C    0.335770
    18  O   -0.393063
    19  C   -0.242496
    20  C    0.237658
    21  C    0.352204
    22  C   -0.174413
    23  C    0.189178
    24  O   -0.359964
    25  C    0.002902
    26  H    0.211759
    27  H    0.197662
    28  H    0.061167
    29  H    0.086251
    30  H    0.125685
    31  H    0.117017
    32  H    0.084816
    33  H    0.101678
    34  H    0.088834
    35  H    0.186980
    36  H    0.172624
    37  H    0.078802
    38  H    0.094741
    39  H    0.220429
    40  H    0.164306
    41  H    0.095473
    42  H    0.077665
    43  H    0.077498
 Sum of ESP charges =   1.00000

 Optimization completed.
    -- Stationary point found.

                          Input orientation:
 ---------------------------------------------------------------------
 Center     Atomic      Atomic             Coordinates (Angstroms)
 Number     Number       Type             X           Y           Z
 ---------------------------------------------------------------------
      1          6           0       -0.670318   -1.012289    0.161753
      2          6           0        1.556048    0.148154   -0.053909
      3          6           0        2.227418    1.362224    0.153383
      4          6           0       -2.865375   -2.153834    0.381444
      5          6           0       -4.854194   -0.860537    0.097494
      6          6           0        1.414042    2.625683    0.272960
      7          6           0        0.203307    2.536431   -0.640513
      8          6           0        4.360687    0.202446    0.128477
      9          8           0        5.718087    0.120487    0.200741
     10          6           0        6.452608    1.328865    0.429997
     11          6           0        3.623374    1.377623    0.245473
     12          7           0       -0.590886    1.313814   -0.330955
     13          6           0       -1.920902    1.389318   -0.352122
     14          6           0       -2.721912    0.265244   -0.126604
     15          6           0       -4.126415    0.282623   -0.137403
     16          8           0       -4.952301    1.343199   -0.378704
     17          6           0       -6.296537    0.842175   -0.178326
     18          8           0       -6.198440   -0.582858    0.013779
     19          6           0       -4.252413   -2.096080    0.359087
     20          6           0       -2.082660   -0.999864    0.140810
     21          6           0        0.085972    0.116836   -0.078879
     22          6           0        2.302417   -1.043505   -0.190848
     23          6           0        3.685556   -1.026021   -0.101541
     24          8           0        4.494211   -2.121891   -0.230586
     25          6           0        3.869999   -3.384045   -0.482277
     26          1           0       -0.167390   -1.942779    0.395193
     27          1           0       -2.364306   -3.094337    0.584557
     28          1           0        1.087601    2.788125    1.309167
     29          1           0        2.004291    3.498692   -0.020666
     30          1           0       -0.460401    3.392571   -0.527456
     31          1           0        0.512663    2.460375   -1.687551
     32          1           0        6.173162    1.784067    1.386407
     33          1           0        7.501933    1.032020    0.457910
     34          1           0        6.294608    2.046225   -0.382597
     35          1           0        4.127011    2.323835    0.406181
     36          1           0       -2.350921    2.362139   -0.556639
     37          1           0       -6.720438    1.305278    0.717418
     38          1           0       -6.892071    1.050955   -1.068541
     39          1           0       -4.858650   -2.977292    0.538755
     40          1           0        1.795874   -1.979111   -0.387856
     41          1           0        4.684750   -4.106944   -0.546823
     42          1           0        3.195929   -3.662784    0.335666
     43          1           0        3.315983   -3.370234   -1.427857
 ---------------------------------------------------------------------

 Normal termination of Gaussian 16 at Tue Mar 25 20:05:25 2025.
