                         Program Version 5.0.4 -  RELEASE  -
|  1> ! PAL2
|  2> ! mp2 cc-pvdz TightSCF  NoKeepInts
|  3>
|  4> %scf
|  5>   MaxCore 2000
|  6> end
|  7> %mp2
|  8>   MaxCore 2000
|  9> end
| 10> * xyz 0 1
| 11>    C       -3.82900         5.92800         1.23300
| 12>    C        1.47400         4.04100         0.05700
| 13>    C       -2.80200         4.09300         0.04900
| 14>    C       -3.39400         4.58600        -1.12400
| 15>    C       -4.17400         5.72400        -1.08200
| 16>    C       -5.19500         7.61500         0.09000
| 17>    C        0.13200         4.30700         0.06100
| 18>    C       -0.56900         3.05600         0.04700
| 19>    C        1.64900         2.61800         0.02300
| 20>    C       -3.03600         4.79700         1.24000
| 21>    N       -4.38500         6.37600         0.08500
| 22>    N        0.38800         2.06700         0.02500
| 23>    N       -2.01000         0.39500        -0.07500
| 24>    N       -0.38800        -2.07400        -0.02700
| 25>    N        2.01000        -0.40100         0.06500
| 26>    C       -1.96000         2.86100         0.02400
| 27>    C       -2.62300         1.61500        -0.01800
| 28>    C       -5.57300        -4.32900         1.06600
| 29>    C       -4.07300         1.47100         0.05600
| 30>    C       -4.10600        -2.75600        -0.02600
| 31>    C       -4.99500        -2.75700        -1.11100
| 32>    C       -6.13200        -3.54200        -1.07600
| 33>    C       -7.65100        -5.11300         0.04000
| 34>    C       -4.32400         0.14100         0.03700
| 35>    C       -3.02500        -0.52000        -0.04800
| 36>    C       -4.42200        -3.56600         1.07500
| 37>    N       -6.40700        -4.31300         0.00100
| 38>    C       -2.86700        -1.92200        -0.04000
| 39>    C       -1.65000        -2.62400        -0.02700
| 40>    C        3.56800        -6.14200        -1.04000
| 41>    C       -1.47600        -4.04900        -0.03400
| 42>    C        2.80300        -4.09900        -0.00800
| 43>    C        3.65700        -4.38400         1.06900
| 44>    C        4.42700        -5.53000         1.05900
| 45>    C        5.24500        -7.58800         0.01400
| 46>    C       -0.13400        -4.31500        -0.02200
| 47>    C        0.56800        -3.06400        -0.02700
| 48>    C        2.77500        -5.01200        -1.07400
| 49>    N        4.37600        -6.39100         0.01700
| 50>    C        1.95900        -2.86900        -0.00900
| 51>    C        2.62100        -1.62200         0.00900
| 52>    C        5.54300         4.33900        -1.13000
| 53>    C        4.07000        -1.47900        -0.09400
| 54>    C        4.10400         2.75100        -0.02100
| 55>    C        5.02700         2.72900         1.03600
| 56>    C        6.16600         3.50900         0.97800
| 57>    C        7.61900         5.15300        -0.11500
| 58>    C        4.32100        -0.14800        -0.09200
| 59>    C        3.02500         0.51400         0.01500
| 60>    C        4.38700         3.58200        -1.11500
| 61>    C        2.86600         1.91600         0.01300
| 62>    N        6.41300         4.29600        -0.09500
| 63>    H       -4.04600         6.49600         2.13000
| 64>    H        2.27400         4.76600         0.08100
| 65>    H       -3.24300         4.09200        -2.07600
| 66>    H       -4.64400         6.14600        -1.96100
| 67>    H       -4.54900         8.46300        -0.14700
| 68>    H       -5.98300         7.52200        -0.65800
| 69>    H       -5.63300         7.74300         1.08000
| 70>    H       -0.33200         5.28200         0.06900
| 71>    H       -2.61800         4.45900         2.18200
| 72>    H        0.18200         1.07200         0.00500
| 73>    H       -0.18300        -1.08000        -0.02100
| 74>    H       -5.86400        -4.96200         1.89500
| 75>    H       -4.79400         2.27200         0.13900
| 76>    H       -4.80000        -2.16000        -1.99400
| 77>    H       -6.84100        -3.58200        -1.89300
| 78>    H       -8.42800        -4.53600         0.54600
| 79>    H       -7.95600        -5.33700        -0.98100
| 80>    H       -7.45600        -6.03700         0.58400
| 81>    H       -5.28700        -0.34400         0.10000
| 82>    H       -3.78000        -3.60100         1.94700
| 83>    H        3.58700        -6.86800        -1.84300
| 84>    H       -2.27600        -4.77400        -0.05000
| 85>    H        3.71400        -3.72400         1.92600
| 86>    H        5.09200        -5.79500         1.87100
| 87>    H        6.20500        -7.32900        -0.43900
| 88>    H        5.39300        -7.91700         1.04200
| 89>    H        4.75900        -8.37300        -0.56400
| 90>    H        0.32900        -5.29000        -0.00800
| 91>    H        2.14600        -4.84200        -1.94000
| 92>    H        5.80800         4.98600        -1.95600
| 93>    H        4.78800        -2.28100        -0.18500
| 94>    H        4.86000         2.11400         1.91200
| 95>    H        6.90100         3.53100         1.77200
| 96>    H        7.38300         6.10900         0.35600
| 97>    H        8.41400         4.65200         0.43500
| 98>    H        7.92100         5.31000        -1.15000
| 99>    H        5.28300         0.33600        -0.17900
|100>    H        3.72000         3.63200        -1.96700
|101> *
|102>
|103>                          ****END OF INPUT****

CARTESIAN COORDINATES (ANGSTROEM)
---------------------------------
  C     -3.829000    5.928000    1.233000
  C      1.474000    4.041000    0.057000
  C     -2.802000    4.093000    0.049000
  C     -3.394000    4.586000   -1.124000
  C     -4.174000    5.724000   -1.082000
  C     -5.195000    7.615000    0.090000
  C      0.132000    4.307000    0.061000
  C     -0.569000    3.056000    0.047000
  C      1.649000    2.618000    0.023000
  C     -3.036000    4.797000    1.240000
  N     -4.385000    6.376000    0.085000
  N      0.388000    2.067000    0.025000
  N     -2.010000    0.395000   -0.075000
  N     -0.388000   -2.074000   -0.027000
  N      2.010000   -0.401000    0.065000
  C     -1.960000    2.861000    0.024000
  C     -2.623000    1.615000   -0.018000
  C     -5.573000   -4.329000    1.066000
  C     -4.073000    1.471000    0.056000
  C     -4.106000   -2.756000   -0.026000
  C     -4.995000   -2.757000   -1.111000
  C     -6.132000   -3.542000   -1.076000
  C     -7.651000   -5.113000    0.040000
  C     -4.324000    0.141000    0.037000
  C     -3.025000   -0.520000   -0.048000
  C     -4.422000   -3.566000    1.075000
  N     -6.407000   -4.313000    0.001000
  C     -2.867000   -1.922000   -0.040000
  C     -1.650000   -2.624000   -0.027000
  C      3.568000   -6.142000   -1.040000
  C     -1.476000   -4.049000   -0.034000
  C      2.803000   -4.099000   -0.008000
  C      3.657000   -4.384000    1.069000
  C      4.427000   -5.530000    1.059000
  C      5.245000   -7.588000    0.014000
  C     -0.134000   -4.315000   -0.022000
  C      0.568000   -3.064000   -0.027000
  C      2.775000   -5.012000   -1.074000
  N      4.376000   -6.391000    0.017000
  C      1.959000   -2.869000   -0.009000
  C      2.621000   -1.622000    0.009000
  C      5.543000    4.339000   -1.130000
  C      4.070000   -1.479000   -0.094000
  C      4.104000    2.751000   -0.021000
  C      5.027000    2.729000    1.036000
  C      6.166000    3.509000    0.978000
  C      7.619000    5.153000   -0.115000
  C      4.321000   -0.148000   -0.092000
  C      3.025000    0.514000    0.015000
  C      4.387000    3.582000   -1.115000
  C      2.866000    1.916000    0.013000
  N      6.413000    4.296000   -0.095000
  H     -4.046000    6.496000    2.130000
  H      2.274000    4.766000    0.081000
  H     -3.243000    4.092000   -2.076000
  H     -4.644000    6.146000   -1.961000
  H     -4.549000    8.463000   -0.147000
  H     -5.983000    7.522000   -0.658000
  H     -5.633000    7.743000    1.080000
  H     -0.332000    5.282000    0.069000
  H     -2.618000    4.459000    2.182000
  H      0.182000    1.072000    0.005000
  H     -0.183000   -1.080000   -0.021000
  H     -5.864000   -4.962000    1.895000
  H     -4.794000    2.272000    0.139000
  H     -4.800000   -2.160000   -1.994000
  H     -6.841000   -3.582000   -1.893000
  H     -8.428000   -4.536000    0.546000
  H     -7.956000   -5.337000   -0.981000
  H     -7.456000   -6.037000    0.584000
  H     -5.287000   -0.344000    0.100000
  H     -3.780000   -3.601000    1.947000
  H      3.587000   -6.868000   -1.843000
  H     -2.276000   -4.774000   -0.050000
  H      3.714000   -3.724000    1.926000
  H      5.092000   -5.795000    1.871000
  H      6.205000   -7.329000   -0.439000
  H      5.393000   -7.917000    1.042000
  H      4.759000   -8.373000   -0.564000
  H      0.329000   -5.290000   -0.008000
  H      2.146000   -4.842000   -1.940000
  H      5.808000    4.986000   -1.956000
  H      4.788000   -2.281000   -0.185000
  H      4.860000    2.114000    1.912000
  H      6.901000    3.531000    1.772000
  H      7.383000    6.109000    0.356000
  H      8.414000    4.652000    0.435000
  H      7.921000    5.310000   -1.150000
  H      5.283000    0.336000   -0.179000
  H      3.720000    3.632000   -1.967000

 Total Charge           Charge          ....    0
 Multiplicity           Mult            ....    1
 Number of Electrons    NEL             ....  358
 Basis Dimension        Dim             ....  918

ORBITAL ENERGIES
----------------

  NO   OCC          E(Eh)            E(eV)
   0   2.0000     -15.694477      -427.0684
   1   2.0000     -15.633303      -425.4038
   2   2.0000     -15.622092      -425.0987
   3   2.0000     -15.590317      -424.2341
   4   2.0000     -15.518758      -422.2869
   5   2.0000     -15.507578      -421.9826
   6   2.0000     -15.449341      -420.3980
   7   2.0000     -15.430497      -419.8852
   8   2.0000     -11.338181      -308.5276
   9   2.0000     -11.337476      -308.5084
  10   2.0000     -11.335636      -308.4583
  11   2.0000     -11.299163      -307.4659
  12   2.0000     -11.293392      -307.3088
  13   2.0000     -11.291716      -307.2632
  14   2.0000     -11.291045      -307.2450
  15   2.0000     -11.285609      -307.0970
  16   2.0000     -11.283206      -307.0317
  17   2.0000     -11.275690      -306.8271
  18   2.0000     -11.271904      -306.7241
  19   2.0000     -11.271045      -306.7007
  20   2.0000     -11.270738      -306.6924
  21   2.0000     -11.254794      -306.2585
  22   2.0000     -11.251226      -306.1614
  23   2.0000     -11.236829      -305.7697
  24   2.0000     -11.230044      -305.5850
  25   2.0000     -11.229194      -305.5619
  26   2.0000     -11.226277      -305.4825
  27   2.0000     -11.221300      -305.3471
  28   2.0000     -11.221080      -305.3411
  29   2.0000     -11.205868      -304.9272
  30   2.0000     -11.205223      -304.9096
  31   2.0000     -11.198599      -304.7294
  32   2.0000     -11.197814      -304.7080
  33   2.0000     -11.196199      -304.6641
  34   2.0000     -11.188482      -304.4541
  35   2.0000     -11.187603      -304.4302
  36   2.0000     -11.186946      -304.4123
  37   2.0000     -11.184709      -304.3514
  38   2.0000     -11.184619      -304.3489
  39   2.0000     -11.170947      -303.9769
  40   2.0000     -11.166803      -303.8642
  41   2.0000     -11.162696      -303.7524
  42   2.0000     -11.161624      -303.7232
  43   2.0000     -11.161406      -303.7173
  44   2.0000     -11.156637      -303.5875
  45   2.0000     -11.150418      -303.4183
  46   2.0000     -11.149779      -303.4009
  47   2.0000     -11.145397      -303.2817
  48   2.0000     -11.145084      -303.2732
  49   2.0000     -11.137513      -303.0671
  50   2.0000     -11.122005      -302.6451
  51   2.0000     -11.117881      -302.5329
  52   2.0000      -1.371214       -37.3126
  53   2.0000      -1.320745       -35.9393
  54   2.0000      -1.310601       -35.6633
  55   2.0000      -1.283694       -34.9311
  56   2.0000      -1.220836       -33.2206
  57   2.0000      -1.204077       -32.7646
  58   2.0000      -1.172116       -31.8949
  59   2.0000      -1.150221       -31.2991
  60   2.0000      -1.141550       -31.0632
  61   2.0000      -1.109272       -30.1848
  62   2.0000      -1.099985       -29.9321
  63   2.0000      -1.091095       -29.6902
  64   2.0000      -1.076372       -29.2896
  65   2.0000      -1.044885       -28.4328
  66   2.0000      -1.044310       -28.4171
  67   2.0000      -1.035324       -28.1726
  68   2.0000      -1.013820       -27.5874
  69   2.0000      -1.010295       -27.4915
  70   2.0000      -1.004927       -27.3455
  71   2.0000      -0.989459       -26.9245
  72   2.0000      -0.984289       -26.7839
  73   2.0000      -0.979321       -26.6487
  74   2.0000      -0.966597       -26.3024
  75   2.0000      -0.960326       -26.1318
  76   2.0000      -0.951640       -25.8954
  77   2.0000      -0.943228       -25.6665
  78   2.0000      -0.923997       -25.1432
  79   2.0000      -0.917355       -24.9625
  80   2.0000      -0.916483       -24.9388
  81   2.0000      -0.888900       -24.1882
  82   2.0000      -0.878253       -23.8985
  83   2.0000      -0.871100       -23.7038
  84   2.0000      -0.862587       -23.4722
  85   2.0000      -0.849931       -23.1278
  86   2.0000      -0.837599       -22.7922
  87   2.0000      -0.829626       -22.5753
  88   2.0000      -0.821986       -22.3674
  89   2.0000      -0.795445       -21.6452
  90   2.0000      -0.789771       -21.4908
  91   2.0000      -0.758989       -20.6531
  92   2.0000      -0.733651       -19.9636
  93   2.0000      -0.727436       -19.7945
  94   2.0000      -0.722514       -19.6606
  95   2.0000      -0.720966       -19.6185
  96   2.0000      -0.716542       -19.4981
  97   2.0000      -0.707611       -19.2551
  98   2.0000      -0.700343       -19.0573
  99   2.0000      -0.695781       -18.9332
 100   2.0000      -0.693521       -18.8717
 101   2.0000      -0.691706       -18.8223
 102   2.0000      -0.683079       -18.5875
 103   2.0000      -0.675812       -18.3898
 104   2.0000      -0.671825       -18.2813
 105   2.0000      -0.669846       -18.2274
 106   2.0000      -0.665364       -18.1055
 107   2.0000      -0.654404       -17.8072
 108   2.0000      -0.654321       -17.8050
 109   2.0000      -0.652144       -17.7457
 110   2.0000      -0.649205       -17.6658
 111   2.0000      -0.644665       -17.5422
 112   2.0000      -0.642711       -17.4891
 113   2.0000      -0.638610       -17.3775
 114   2.0000      -0.632982       -17.2243
 115   2.0000      -0.624082       -16.9821
 116   2.0000      -0.623275       -16.9602
 117   2.0000      -0.619421       -16.8553
 118   2.0000      -0.614488       -16.7211
 119   2.0000      -0.611959       -16.6522
 120   2.0000      -0.609485       -16.5849
 121   2.0000      -0.603268       -16.4158
 122   2.0000      -0.592276       -16.1166
 123   2.0000      -0.586750       -15.9663
 124   2.0000      -0.580867       -15.8062
 125   2.0000      -0.580029       -15.7834
 126   2.0000      -0.577930       -15.7263
 127   2.0000      -0.576077       -15.6758
 128   2.0000      -0.572977       -15.5915
 129   2.0000      -0.557831       -15.1794
 130   2.0000      -0.554270       -15.0824
 131   2.0000      -0.551738       -15.0135
 132   2.0000      -0.543910       -14.8005
 133   2.0000      -0.538724       -14.6594
 134   2.0000      -0.534672       -14.5492
 135   2.0000      -0.530884       -14.4461
 136   2.0000      -0.519157       -14.1270
 137   2.0000      -0.516460       -14.0536
 138   2.0000      -0.514477       -13.9996
 139   2.0000      -0.512888       -13.9564
 140   2.0000      -0.509814       -13.8728
 141   2.0000      -0.505674       -13.7601
 142   2.0000      -0.501710       -13.6522
 143   2.0000      -0.500688       -13.6244
 144   2.0000      -0.495458       -13.4821
 145   2.0000      -0.493672       -13.4335
 146   2.0000      -0.492210       -13.3937
 147   2.0000      -0.479060       -13.0359
 148   2.0000      -0.478220       -13.0130
 149   2.0000      -0.464041       -12.6272
 150   2.0000      -0.462941       -12.5973
 151   2.0000      -0.458280       -12.4704
 152   2.0000      -0.450656       -12.2630
 153   2.0000      -0.441813       -12.0223
 154   2.0000      -0.436701       -11.8832
 155   2.0000      -0.435044       -11.8381
 156   2.0000      -0.423463       -11.5230
 157   2.0000      -0.416743       -11.3401
 158   2.0000      -0.406992       -11.0748
 159   2.0000      -0.394869       -10.7449
 160   2.0000      -0.383145       -10.4259
 161   2.0000      -0.371331       -10.1044
 162   2.0000      -0.356522        -9.7015
 163   2.0000      -0.356037        -9.6882
 164   2.0000      -0.347925        -9.4675
 165   2.0000      -0.339488        -9.2379
 166   2.0000      -0.338477        -9.2104
 167   2.0000      -0.326461        -8.8834
 168   2.0000      -0.315931        -8.5969
 169   2.0000      -0.300521        -8.1776
 170   2.0000      -0.298657        -8.1269
 171   2.0000      -0.284132        -7.7316
 172   2.0000      -0.279668        -7.6102
 173   2.0000      -0.263564        -7.1719
 174   2.0000      -0.233780        -6.3615
 175   2.0000      -0.184287        -5.0147
 176   2.0000      -0.174192        -4.7400
 177   2.0000      -0.062201        -1.6926
 178   2.0000      -0.051353        -1.3974
 179   0.0000       0.034402         0.9361
 180   0.0000       0.059920         1.6305
 181   0.0000       0.087724         2.3871
 182   0.0000       0.097523         2.6537
 183   0.0000       0.103680         2.8213

MULLIKEN ATOMIC CHARGES
-----------------------
   0 C :    0.227170
   1 N :   -0.419806
   2 C :   -0.067355
   3 N :   -0.342839
   4 C :   -0.078654
   5 N :   -0.564863
   6 C :   -0.030017
   7 N :   -0.337113
   8 C :    0.226845
   9 N :   -0.565466
  10 C :    0.105718
  11 N :   -0.438997
  12 C :   -0.059031
  13 N :   -0.449149
  14 C :    0.221455
  15 N :   -0.441256
  16 C :    0.252824
  17 C :   -0.032184
  18 C :   -0.176377
  19 C :    0.226682
  20 C :    0.192425
  21 C :   -0.066536
  22 C :   -0.088968
  23 C :   -0.064145
  24 C :    0.216449
  25 C :    0.114505
  26 C :   -0.068404
  27 C :    0.243151
  28 C :   -0.041574
  29 C :   -0.194846
  30 C :    0.223398
  31 C :    0.191822
  32 C :   -0.064845
  33 C :   -0.099290
  34 C :   -0.050132
  35 C :    0.182386
  36 C :    0.119885
  37 C :   -0.069723
  38 C :    0.243493
  39 C :   -0.064925
  40 C :   -0.201425
  41 C :    0.216428
  42 C :    0.210886
  43 C :   -0.076696
  44 C :   -0.090754
  45 C :   -0.040834
  46 C :    0.188226
  47 C :    0.116424
  48 C :   -0.081528
  49 C :    0.210797
  50 C :   -0.064446
  51 C :   -0.189516
  52 H :    0.076771
  53 H :   -0.008790
  54 H :    0.061085
  55 H :    0.074819
  56 H :    0.079388
  57 H :    0.072168
  58 H :    0.071039
  59 H :   -0.026747
  60 H :    0.062987
  61 H :    0.176216
  62 H :    0.168820
  63 H :    0.053936
  64 H :   -0.032299
  65 H :    0.041997
  66 H :    0.055809
  67 H :    0.059511
  68 H :    0.056595
  69 H :    0.059262
  70 H :   -0.015965
  71 H :    0.047439
  72 H :    0.040587
  73 H :   -0.018679
  74 H :    0.032260
  75 H :    0.039303
  76 H :    0.048768
  77 H :    0.048028
  78 H :    0.047236
  79 H :   -0.011869
  80 H :    0.032055
  81 H :    0.051212
  82 H :   -0.023276
  83 H :    0.043010
  84 H :    0.050216
  85 H :    0.055316
  86 H :    0.056516
  87 H :    0.055039
  88 H :   -0.029541
  89 H :    0.040504
Sum of atomic charges:   -0.0000000

LOEWDIN ATOMIC CHARGES
----------------------
   0 C :    0.028910
   1 N :    0.180099
   2 C :   -0.099800
   3 N :    0.172184
   4 C :    0.098108
   5 N :   -0.145827
   6 C :   -0.011372
   7 N :    0.177436
   8 C :    0.028799
   9 N :   -0.138417
  10 C :    0.037798
  11 N :    0.141113
  12 C :   -0.097111
  13 N :    0.118126
  14 C :   -0.059643
  15 N :    0.135851
  16 C :   -0.022261
  17 C :   -0.011998
  18 C :   -0.117688
  19 C :   -0.090007
  20 C :   -0.014157
  21 C :   -0.099506
  22 C :    0.036965
  23 C :   -0.031471
  24 C :    0.007202
  25 C :    0.029656
  26 C :   -0.095467
  27 C :   -0.061993
  28 C :   -0.015502
  29 C :   -0.116110
  30 C :   -0.062195
  31 C :   -0.021796
  32 C :   -0.100414
  33 C :    0.001345
  34 C :   -0.025447
  35 C :   -0.030171
  36 C :    0.024189
  37 C :   -0.108278
  38 C :   -0.030768
  39 C :   -0.033088
  40 C :   -0.112503
  41 C :   -0.094447
  42 C :    0.000097
  43 C :   -0.112680
  44 C :    0.029775
  45 C :   -0.015580
  46 C :   -0.019607
  47 C :    0.028476
  48 C :   -0.114012
  49 C :   -0.112838
  50 C :   -0.031298
  51 C :   -0.108930
  52 H :    0.039622
  53 H :    0.006839
  54 H :    0.052944
  55 H :    0.039239
  56 H :    0.036995
  57 H :    0.037800
  58 H :    0.038023
  59 H :    0.000201
  60 H :    0.053695
  61 H :    0.062172
  62 H :    0.058274
  63 H :    0.029343
  64 H :   -0.004339
  65 H :    0.042431
  66 H :    0.030244
  67 H :    0.026979
  68 H :    0.031305
  69 H :    0.031427
  70 H :    0.001921
  71 H :    0.045696
  72 H :    0.023460
  73 H :    0.002042
  74 H :    0.038935
  75 H :    0.022488
  76 H :    0.021323
  77 H :    0.026823
  78 H :    0.026498
  79 H :    0.005468
  80 H :    0.038044
  81 H :    0.028280
  82 H :   -0.001519
  83 H :    0.044129
  84 H :    0.027296
  85 H :    0.024793
  86 H :    0.030440
  87 H :    0.030359
  88 H :   -0.004798
  89 H :    0.041379

  Mayer bond orders larger than 0.100000
B(  0-C ,  1-N ) :   1.1814 B(  0-C , 17-C ) :   1.5470 B(  0-C , 52-H ) :   0.9674
B(  1-N ,  8-C ) :   1.1784 B(  1-N , 10-C ) :   0.9344 B(  2-C , 12-C ) :   1.5689
B(  2-C , 16-C ) :   1.2845 B(  2-C , 53-H ) :   0.9790 B(  3-N , 14-C ) :   1.1799
B(  3-N , 16-C ) :   1.2018 B(  3-N , 61-H ) :   0.8961 B(  4-C ,  6-C ) :   1.3366
B(  4-C , 17-C ) :   1.3379 B(  4-C , 18-C ) :   1.0965 B(  5-N , 19-C ) :   1.3744
B(  5-N , 27-C ) :   1.4413 B(  6-C ,  8-C ) :   1.5478 B(  6-C , 54-H ) :   0.9709
B(  7-N , 30-C ) :   1.1854 B(  7-N , 38-C ) :   1.2131 B(  7-N , 62-H ) :   0.9007
B(  8-C , 55-H ) :   0.9685 B(  9-N , 41-C ) :   1.4286 B(  9-N , 49-C ) :   1.3987
B( 10-C , 56-H ) :   0.9765 B( 10-C , 57-H ) :   0.9812 B( 10-C , 58-H ) :   0.9819
B( 11-N , 20-C ) :   1.1042 B( 11-N , 24-C ) :   1.1343 B( 11-N , 25-C ) :   0.9606
B( 12-C , 14-C ) :   1.2854 B( 12-C , 59-H ) :   0.9774 B( 13-N , 31-C ) :   1.0905
B( 13-N , 35-C ) :   1.0802 B( 13-N , 36-C ) :   0.9779 B( 14-C , 18-C ) :   1.2505
B( 15-N , 42-C ) :   1.1248 B( 15-N , 46-C ) :   1.0959 B( 15-N , 47-C ) :   0.9651
B( 16-C , 51-C ) :   1.2366 B( 17-C , 60-H ) :   0.9710 B( 18-C , 19-C ) :   1.2914
B( 19-C , 21-C ) :   1.1748 B( 20-C , 28-C ) :   1.6259 B( 20-C , 63-H ) :   0.9707
B( 21-C , 26-C ) :   1.6718 B( 21-C , 64-H ) :   0.9727 B( 22-C , 23-C ) :   1.2624
B( 22-C , 28-C ) :   1.2805 B( 22-C , 29-C ) :   1.2497 B( 23-C , 24-C ) :   1.6296
B( 23-C , 65-H ) :   0.9719 B( 24-C , 66-H ) :   0.9690 B( 25-C , 67-H ) :   0.9763
B( 25-C , 68-H ) :   0.9833 B( 25-C , 69-H ) :   0.9819 B( 26-C , 27-C ) :   1.1811
B( 26-C , 70-H ) :   0.9751 B( 27-C , 29-C ) :   1.2369 B( 28-C , 71-H ) :   0.9710
B( 29-C , 30-C ) :   1.1851 B( 30-C , 32-C ) :   1.3414 B( 31-C , 39-C ) :   1.6735
B( 31-C , 72-H ) :   0.9707 B( 32-C , 37-C ) :   1.5179 B( 32-C , 73-H ) :   0.9772
B( 33-C , 34-C ) :   1.2414 B( 33-C , 39-C ) :   1.2335 B( 33-C , 40-C ) :   1.3341
B( 34-C , 35-C ) :   1.6716 B( 34-C , 74-H ) :   0.9709 B( 35-C , 75-H ) :   0.9707
B( 36-C , 76-H ) :   0.9757 B( 36-C , 77-H ) :   0.9825 B( 36-C , 78-H ) :   0.9837
B( 37-C , 38-C ) :   1.3372 B( 37-C , 79-H ) :   0.9790 B( 38-C , 40-C ) :   1.1856
B( 39-C , 80-H ) :   0.9720 B( 40-C , 41-C ) :   1.1781 B( 41-C , 43-C ) :   1.2487
B( 42-C , 50-C ) :   1.6393 B( 42-C , 81-H ) :   0.9696 B( 43-C , 48-C ) :   1.6024
B( 43-C , 82-H ) :   0.9752 B( 44-C , 45-C ) :   1.2793 B( 44-C , 50-C ) :   1.2539
B( 44-C , 51-C ) :   1.2496 B( 45-C , 46-C ) :   1.6320 B( 45-C , 83-H ) :   0.9704
B( 46-C , 84-H ) :   0.9707 B( 47-C , 85-H ) :   0.9760 B( 47-C , 86-H ) :   0.9826
B( 47-C , 87-H ) :   0.9829 B( 48-C , 49-C ) :   1.2439 B( 48-C , 88-H ) :   0.9728
B( 49-C , 51-C ) :   1.1946 B( 50-C , 89-H ) :   0.9720

MP2 TOTAL ENERGY:    -2130.886274849 Eh
FINAL SINGLE POINT ENERGY     -2130.886274848701

DIPOLE MOMENT
-------------
                                X             Y             Z
Electronic contribution:     -3.67873       3.84619      -0.06066
Nuclear contribution   :      0.04544       0.21961       0.08256
                        -----------------------------------------
Total Dipole Moment    :     -3.63330       4.06580       0.02190
                        -----------------------------------------
Magnitude (a.u.)       :      5.45271
Magnitude (Debye)      :     13.85969

Rotational constants in cm-1:     0.001498     0.001472     0.000763
Rotational constants in MHz :    44.922677    44.126914    22.865858

                             ****ORCA TERMINATED NORMALLY****
TOTAL RUN TIME: 0 days 1 hours 25 minutes 29 seconds 537 msec
