                         Program Version 5.0.4 -  RELEASE  -
|  1> ! PAL2
|  2> ! mp2 cc-pvdz TightSCF  NoKeepInts
|  3>
|  4> %scf
|  5>   MaxCore 2000
|  6> end
|  7> %mp2
|  8>   MaxCore 2000
|  9> end
| 10> * xyz 0 1
| 11>    C       -4.71700         5.36100        -0.69400
| 12>    C        1.47400         4.04100         0.05700
| 13>    C       -2.80200         4.09300         0.04900
| 14>    C       -2.45300         5.18900         0.85300
| 15>    C       -3.24100         6.32300         0.86100
| 16>    C       -5.19500         7.61300         0.15100
| 17>    C        0.13200         4.30700         0.06100
| 18>    C       -0.56900         3.05600         0.04700
| 19>    C        1.64900         2.61800         0.02300
| 20>    C       -3.96400         4.20300        -0.73000
| 21>    N       -4.35200         6.39900         0.09200
| 22>    N        0.38800         2.06700         0.02500
| 23>    N       -2.01000         0.39500        -0.07500
| 24>    N       -0.38800        -2.07400        -0.02700
| 25>    N        2.01000        -0.40100         0.06500
| 26>    C       -1.96000         2.86100         0.02400
| 27>    C       -2.62300         1.61500        -0.01800
| 28>    C       -5.57300        -4.32900         1.06600
| 29>    C       -4.07300         1.47100         0.05600
| 30>    C       -4.10600        -2.75600        -0.02600
| 31>    C       -4.99500        -2.75700        -1.11100
| 32>    C       -6.13200        -3.54200        -1.07600
| 33>    C       -7.65100        -5.11300         0.04000
| 34>    C       -4.32400         0.14100         0.03700
| 35>    C       -3.02500        -0.52000        -0.04800
| 36>    C       -4.42200        -3.56600         1.07500
| 37>    N       -6.40700        -4.31300         0.00100
| 38>    C       -2.86700        -1.92200        -0.04000
| 39>    C       -1.65000        -2.62400        -0.02700
| 40>    C        3.56800        -6.14200        -1.04000
| 41>    C       -1.47600        -4.04900        -0.03400
| 42>    C        2.80300        -4.09900        -0.00800
| 43>    C        3.65700        -4.38400         1.06900
| 44>    C        4.42700        -5.53000         1.05900
| 45>    C        5.24500        -7.58800         0.01400
| 46>    C       -0.13400        -4.31500        -0.02200
| 47>    C        0.56800        -3.06400        -0.02700
| 48>    C        2.77500        -5.01200        -1.07400
| 49>    N        4.37600        -6.39100         0.01700
| 50>    C        1.95900        -2.86900        -0.00900
| 51>    C        2.62100        -1.62200         0.00900
| 52>    C        5.54300         4.33900        -1.13000
| 53>    C        4.07000        -1.47900        -0.09400
| 54>    C        4.10400         2.75100        -0.02100
| 55>    C        5.02700         2.72900         1.03600
| 56>    C        6.16600         3.50900         0.97800
| 57>    C        7.61900         5.15300        -0.11500
| 58>    C        4.32100        -0.14800        -0.09200
| 59>    C        3.02500         0.51400         0.01500
| 60>    C        4.38700         3.58200        -1.11500
| 61>    C        2.86600         1.91600         0.01300
| 62>    N        6.41300         4.29600        -0.09500
| 63>    H       -5.61300         5.49400        -1.28700
| 64>    H        2.27400         4.76600         0.08100
| 65>    H       -1.57300         5.16100         1.48500
| 66>    H       -3.01700         7.18800         1.47100
| 67>    H       -5.90100         7.51600         0.97900
| 68>    H       -4.55300         8.48000         0.30500
| 69>    H       -5.73500         7.71100        -0.79100
| 70>    H       -0.33200         5.28200         0.06900
| 71>    H       -4.27900         3.39600        -1.38300
| 72>    H        0.18200         1.07200         0.00500
| 73>    H       -0.18300        -1.08000        -0.02100
| 74>    H       -5.86400        -4.96200         1.89500
| 75>    H       -4.79400         2.27200         0.13900
| 76>    H       -4.80000        -2.16000        -1.99400
| 77>    H       -6.84100        -3.58200        -1.89300
| 78>    H       -8.42800        -4.53600         0.54600
| 79>    H       -7.95600        -5.33700        -0.98100
| 80>    H       -7.45600        -6.03700         0.58400
| 81>    H       -5.28700        -0.34400         0.10000
| 82>    H       -3.78000        -3.60100         1.94700
| 83>    H        3.58700        -6.86800        -1.84300
| 84>    H       -2.27600        -4.77400        -0.05000
| 85>    H        3.71400        -3.72400         1.92600
| 86>    H        5.09200        -5.79500         1.87100
| 87>    H        6.20500        -7.32900        -0.43900
| 88>    H        5.39300        -7.91700         1.04200
| 89>    H        4.75900        -8.37300        -0.56400
| 90>    H        0.32900        -5.29000        -0.00800
| 91>    H        2.14600        -4.84200        -1.94000
| 92>    H        5.80800         4.98600        -1.95600
| 93>    H        4.78800        -2.28100        -0.18500
| 94>    H        4.86000         2.11400         1.91200
| 95>    H        6.90100         3.53100         1.77200
| 96>    H        7.38300         6.10900         0.35600
| 97>    H        8.41400         4.65200         0.43500
| 98>    H        7.92100         5.31000        -1.15000
| 99>    H        5.28300         0.33600        -0.17900
|100>    H        3.72000         3.63200        -1.96700
|101> *
|102>
|103>                          ****END OF INPUT****

CARTESIAN COORDINATES (ANGSTROEM)
---------------------------------
  C     -4.717000    5.361000   -0.694000
  C      1.474000    4.041000    0.057000
  C     -2.802000    4.093000    0.049000
  C     -2.453000    5.189000    0.853000
  C     -3.241000    6.323000    0.861000
  C     -5.195000    7.613000    0.151000
  C      0.132000    4.307000    0.061000
  C     -0.569000    3.056000    0.047000
  C      1.649000    2.618000    0.023000
  C     -3.964000    4.203000   -0.730000
  N     -4.352000    6.399000    0.092000
  N      0.388000    2.067000    0.025000
  N     -2.010000    0.395000   -0.075000
  N     -0.388000   -2.074000   -0.027000
  N      2.010000   -0.401000    0.065000
  C     -1.960000    2.861000    0.024000
  C     -2.623000    1.615000   -0.018000
  C     -5.573000   -4.329000    1.066000
  C     -4.073000    1.471000    0.056000
  C     -4.106000   -2.756000   -0.026000
  C     -4.995000   -2.757000   -1.111000
  C     -6.132000   -3.542000   -1.076000
  C     -7.651000   -5.113000    0.040000
  C     -4.324000    0.141000    0.037000
  C     -3.025000   -0.520000   -0.048000
  C     -4.422000   -3.566000    1.075000
  N     -6.407000   -4.313000    0.001000
  C     -2.867000   -1.922000   -0.040000
  C     -1.650000   -2.624000   -0.027000
  C      3.568000   -6.142000   -1.040000
  C     -1.476000   -4.049000   -0.034000
  C      2.803000   -4.099000   -0.008000
  C      3.657000   -4.384000    1.069000
  C      4.427000   -5.530000    1.059000
  C      5.245000   -7.588000    0.014000
  C     -0.134000   -4.315000   -0.022000
  C      0.568000   -3.064000   -0.027000
  C      2.775000   -5.012000   -1.074000
  N      4.376000   -6.391000    0.017000
  C      1.959000   -2.869000   -0.009000
  C      2.621000   -1.622000    0.009000
  C      5.543000    4.339000   -1.130000
  C      4.070000   -1.479000   -0.094000
  C      4.104000    2.751000   -0.021000
  C      5.027000    2.729000    1.036000
  C      6.166000    3.509000    0.978000
  C      7.619000    5.153000   -0.115000
  C      4.321000   -0.148000   -0.092000
  C      3.025000    0.514000    0.015000
  C      4.387000    3.582000   -1.115000
  C      2.866000    1.916000    0.013000
  N      6.413000    4.296000   -0.095000
  H     -5.613000    5.494000   -1.287000
  H      2.274000    4.766000    0.081000
  H     -1.573000    5.161000    1.485000
  H     -3.017000    7.188000    1.471000
  H     -5.901000    7.516000    0.979000
  H     -4.553000    8.480000    0.305000
  H     -5.735000    7.711000   -0.791000
  H     -0.332000    5.282000    0.069000
  H     -4.279000    3.396000   -1.383000
  H      0.182000    1.072000    0.005000
  H     -0.183000   -1.080000   -0.021000
  H     -5.864000   -4.962000    1.895000
  H     -4.794000    2.272000    0.139000
  H     -4.800000   -2.160000   -1.994000
  H     -6.841000   -3.582000   -1.893000
  H     -8.428000   -4.536000    0.546000
  H     -7.956000   -5.337000   -0.981000
  H     -7.456000   -6.037000    0.584000
  H     -5.287000   -0.344000    0.100000
  H     -3.780000   -3.601000    1.947000
  H      3.587000   -6.868000   -1.843000
  H     -2.276000   -4.774000   -0.050000
  H      3.714000   -3.724000    1.926000
  H      5.092000   -5.795000    1.871000
  H      6.205000   -7.329000   -0.439000
  H      5.393000   -7.917000    1.042000
  H      4.759000   -8.373000   -0.564000
  H      0.329000   -5.290000   -0.008000
  H      2.146000   -4.842000   -1.940000
  H      5.808000    4.986000   -1.956000
  H      4.788000   -2.281000   -0.185000
  H      4.860000    2.114000    1.912000
  H      6.901000    3.531000    1.772000
  H      7.383000    6.109000    0.356000
  H      8.414000    4.652000    0.435000
  H      7.921000    5.310000   -1.150000
  H      5.283000    0.336000   -0.179000
  H      3.720000    3.632000   -1.967000

 Total Charge           Charge          ....    0
 Multiplicity           Mult            ....    1
 Number of Electrons    NEL             ....  358
 Basis Dimension        Dim             ....  918

ORBITAL ENERGIES
----------------

  NO   OCC          E(Eh)            E(eV)
   0   2.0000     -15.665306      -426.2747
   1   2.0000     -15.638357      -425.5413
   2   2.0000     -15.628448      -425.2717
   3   2.0000     -15.596352      -424.3983
   4   2.0000     -15.524029      -422.4303
   5   2.0000     -15.515878      -422.2085
   6   2.0000     -15.450071      -420.4178
   7   2.0000     -15.443401      -420.2363
   8   2.0000     -11.318974      -308.0049
   9   2.0000     -11.317883      -307.9753
  10   2.0000     -11.315572      -307.9124
  11   2.0000     -11.302029      -307.5438
  12   2.0000     -11.296113      -307.3829
  13   2.0000     -11.295823      -307.3750
  14   2.0000     -11.291323      -307.2525
  15   2.0000     -11.287456      -307.1473
  16   2.0000     -11.284217      -307.0592
  17   2.0000     -11.276889      -306.8598
  18   2.0000     -11.268429      -306.6295
  19   2.0000     -11.260775      -306.4213
  20   2.0000     -11.260447      -306.4123
  21   2.0000     -11.253182      -306.2147
  22   2.0000     -11.252260      -306.1896
  23   2.0000     -11.241929      -305.9085
  24   2.0000     -11.234358      -305.7024
  25   2.0000     -11.233785      -305.6868
  26   2.0000     -11.233174      -305.6702
  27   2.0000     -11.227050      -305.5036
  28   2.0000     -11.226789      -305.4965
  29   2.0000     -11.208658      -305.0031
  30   2.0000     -11.207390      -304.9686
  31   2.0000     -11.206431      -304.9425
  32   2.0000     -11.201558      -304.8099
  33   2.0000     -11.200980      -304.7941
  34   2.0000     -11.190224      -304.5015
  35   2.0000     -11.189806      -304.4901
  36   2.0000     -11.184956      -304.3581
  37   2.0000     -11.181447      -304.2626
  38   2.0000     -11.180682      -304.2418
  39   2.0000     -11.174416      -304.0713
  40   2.0000     -11.170269      -303.9585
  41   2.0000     -11.168080      -303.8989
  42   2.0000     -11.166802      -303.8641
  43   2.0000     -11.163731      -303.7806
  44   2.0000     -11.162652      -303.7512
  45   2.0000     -11.160582      -303.6949
  46   2.0000     -11.154433      -303.5275
  47   2.0000     -11.150126      -303.4104
  48   2.0000     -11.148667      -303.3706
  49   2.0000     -11.143473      -303.2293
  50   2.0000     -11.136019      -303.0265
  51   2.0000     -11.129824      -302.8579
  52   2.0000      -1.348045       -36.6822
  53   2.0000      -1.324995       -36.0550
  54   2.0000      -1.316607       -35.8267
  55   2.0000      -1.290205       -35.1083
  56   2.0000      -1.224263       -33.3139
  57   2.0000      -1.210667       -32.9439
  58   2.0000      -1.168105       -31.7858
  59   2.0000      -1.154486       -31.4152
  60   2.0000      -1.133210       -30.8362
  61   2.0000      -1.113329       -30.2952
  62   2.0000      -1.106287       -30.1036
  63   2.0000      -1.085094       -29.5269
  64   2.0000      -1.070617       -29.1330
  65   2.0000      -1.048994       -28.5446
  66   2.0000      -1.041362       -28.3369
  67   2.0000      -1.034526       -28.1509
  68   2.0000      -1.017685       -27.6926
  69   2.0000      -1.014256       -27.5993
  70   2.0000      -1.009392       -27.4669
  71   2.0000      -0.992664       -27.0118
  72   2.0000      -0.987558       -26.8728
  73   2.0000      -0.977408       -26.5966
  74   2.0000      -0.972545       -26.4643
  75   2.0000      -0.959210       -26.1014
  76   2.0000      -0.951058       -25.8796
  77   2.0000      -0.947441       -25.7812
  78   2.0000      -0.936200       -25.4753
  79   2.0000      -0.920916       -25.0594
  80   2.0000      -0.900939       -24.5158
  81   2.0000      -0.891175       -24.2501
  82   2.0000      -0.876043       -23.8383
  83   2.0000      -0.870255       -23.6809
  84   2.0000      -0.865708       -23.5571
  85   2.0000      -0.855084       -23.2680
  86   2.0000      -0.842965       -22.9382
  87   2.0000      -0.838140       -22.8069
  88   2.0000      -0.822441       -22.3798
  89   2.0000      -0.798617       -21.7315
  90   2.0000      -0.794053       -21.6073
  91   2.0000      -0.745704       -20.2916
  92   2.0000      -0.737843       -20.0777
  93   2.0000      -0.732266       -19.9260
  94   2.0000      -0.723595       -19.6900
  95   2.0000      -0.719801       -19.5868
  96   2.0000      -0.714009       -19.4292
  97   2.0000      -0.706464       -19.2239
  98   2.0000      -0.702647       -19.1200
  99   2.0000      -0.696352       -18.9487
 100   2.0000      -0.694516       -18.8987
 101   2.0000      -0.682039       -18.5592
 102   2.0000      -0.679434       -18.4883
 103   2.0000      -0.674777       -18.3616
 104   2.0000      -0.674635       -18.3578
 105   2.0000      -0.670833       -18.2543
 106   2.0000      -0.665303       -18.1038
 107   2.0000      -0.662754       -18.0345
 108   2.0000      -0.656390       -17.8613
 109   2.0000      -0.653540       -17.7837
 110   2.0000      -0.649373       -17.6703
 111   2.0000      -0.645317       -17.5600
 112   2.0000      -0.642554       -17.4848
 113   2.0000      -0.636804       -17.3283
 114   2.0000      -0.635567       -17.2947
 115   2.0000      -0.628615       -17.1055
 116   2.0000      -0.624019       -16.9804
 117   2.0000      -0.615865       -16.7585
 118   2.0000      -0.614636       -16.7251
 119   2.0000      -0.612465       -16.6660
 120   2.0000      -0.608725       -16.5643
 121   2.0000      -0.602425       -16.3928
 122   2.0000      -0.600377       -16.3371
 123   2.0000      -0.588059       -16.0019
 124   2.0000      -0.585869       -15.9423
 125   2.0000      -0.583812       -15.8863
 126   2.0000      -0.578562       -15.7435
 127   2.0000      -0.577583       -15.7168
 128   2.0000      -0.563437       -15.3319
 129   2.0000      -0.558351       -15.1935
 130   2.0000      -0.553358       -15.0576
 131   2.0000      -0.548817       -14.9341
 132   2.0000      -0.542678       -14.7670
 133   2.0000      -0.539148       -14.6710
 134   2.0000      -0.536073       -14.5873
 135   2.0000      -0.534048       -14.5322
 136   2.0000      -0.524980       -14.2854
 137   2.0000      -0.524151       -14.2629
 138   2.0000      -0.517951       -14.0942
 139   2.0000      -0.514515       -14.0007
 140   2.0000      -0.510897       -13.9022
 141   2.0000      -0.509946       -13.8763
 142   2.0000      -0.509333       -13.8596
 143   2.0000      -0.502659       -13.6780
 144   2.0000      -0.500644       -13.6232
 145   2.0000      -0.496989       -13.5237
 146   2.0000      -0.494182       -13.4474
 147   2.0000      -0.485816       -13.2197
 148   2.0000      -0.483090       -13.1455
 149   2.0000      -0.468545       -12.7498
 150   2.0000      -0.464268       -12.6334
 151   2.0000      -0.456343       -12.4177
 152   2.0000      -0.448717       -12.2102
 153   2.0000      -0.446658       -12.1542
 154   2.0000      -0.444925       -12.1070
 155   2.0000      -0.440309       -11.9814
 156   2.0000      -0.431813       -11.7502
 157   2.0000      -0.427520       -11.6334
 158   2.0000      -0.401199       -10.9172
 159   2.0000      -0.385745       -10.4967
 160   2.0000      -0.379146       -10.3171
 161   2.0000      -0.377698       -10.2777
 162   2.0000      -0.370815       -10.0904
 163   2.0000      -0.359587        -9.7848
 164   2.0000      -0.353290        -9.6135
 165   2.0000      -0.337865        -9.1938
 166   2.0000      -0.337335        -9.1793
 167   2.0000      -0.330538        -8.9944
 168   2.0000      -0.328085        -8.9277
 169   2.0000      -0.302902        -8.2424
 170   2.0000      -0.299709        -8.1555
 171   2.0000      -0.286803        -7.8043
 172   2.0000      -0.284054        -7.7295
 173   2.0000      -0.259938        -7.0733
 174   2.0000      -0.245269        -6.6741
 175   2.0000      -0.189540        -5.1576
 176   2.0000      -0.179767        -4.8917
 177   2.0000      -0.072668        -1.9774
 178   2.0000      -0.057359        -1.5608
 179   0.0000       0.028962         0.7881
 180   0.0000       0.067623         1.8401
 181   0.0000       0.092140         2.5073
 182   0.0000       0.105873         2.8810
 183   0.0000       0.115840         3.1522

MULLIKEN ATOMIC CHARGES
-----------------------
   0 C :    0.205246
   1 N :   -0.452428
   2 C :   -0.064196
   3 N :   -0.336000
   4 C :   -0.053660
   5 N :   -0.560787
   6 C :   -0.109129
   7 N :   -0.339798
   8 C :    0.205412
   9 N :   -0.562724
  10 C :    0.118034
  11 N :   -0.437558
  12 C :   -0.080841
  13 N :   -0.432835
  14 C :    0.229095
  15 N :   -0.441418
  16 C :    0.229836
  17 C :   -0.106744
  18 C :   -0.178303
  19 C :    0.215812
  20 C :    0.213264
  21 C :   -0.090481
  22 C :   -0.088164
  23 C :   -0.042461
  24 C :    0.198569
  25 C :    0.113997
  26 C :   -0.074377
  27 C :    0.213458
  28 C :   -0.058478
  29 C :   -0.180974
  30 C :    0.242522
  31 C :    0.225049
  32 C :   -0.062220
  33 C :   -0.067385
  34 C :   -0.049579
  35 C :    0.219360
  36 C :    0.110149
  37 C :   -0.065037
  38 C :    0.234142
  39 C :   -0.059849
  40 C :   -0.182981
  41 C :    0.222949
  42 C :    0.198227
  43 C :   -0.073057
  44 C :   -0.090948
  45 C :   -0.059091
  46 C :    0.207905
  47 C :    0.115737
  48 C :   -0.069785
  49 C :    0.234489
  50 C :   -0.048344
  51 C :   -0.192520
  52 H :    0.042651
  53 H :   -0.015933
  54 H :    0.050345
  55 H :    0.041474
  56 H :    0.050771
  57 H :    0.049489
  58 H :    0.048678
  59 H :   -0.000425
  60 H :    0.049584
  61 H :    0.171311
  62 H :    0.174931
  63 H :    0.056824
  64 H :   -0.007237
  65 H :    0.047020
  66 H :    0.057034
  67 H :    0.063511
  68 H :    0.058007
  69 H :    0.057784
  70 H :   -0.027406
  71 H :    0.046856
  72 H :    0.066642
  73 H :   -0.009734
  74 H :    0.056121
  75 H :    0.065820
  76 H :    0.070853
  77 H :    0.064850
  78 H :    0.064000
  79 H :   -0.015166
  80 H :    0.056624
  81 H :    0.053535
  82 H :   -0.024921
  83 H :    0.041291
  84 H :    0.052985
  85 H :    0.059584
  86 H :    0.055225
  87 H :    0.056637
  88 H :   -0.016730
  89 H :    0.046016
Sum of atomic charges:   -0.0000000

LOEWDIN ATOMIC CHARGES
----------------------
   0 C :   -0.020475
   1 N :    0.118398
   2 C :   -0.101377
   3 N :    0.182568
   4 C :   -0.000115
   5 N :   -0.131576
   6 C :   -0.037174
   7 N :    0.176117
   8 C :   -0.019577
   9 N :   -0.140001
  10 C :    0.024358
  11 N :    0.144251
  12 C :   -0.107390
  13 N :    0.158320
  14 C :   -0.035736
  15 N :    0.137454
  16 C :   -0.055742
  17 C :   -0.036481
  18 C :   -0.101373
  19 C :   -0.085587
  20 C :    0.005051
  21 C :   -0.111688
  22 C :    0.040685
  23 C :   -0.016130
  24 C :   -0.007762
  25 C :    0.030361
  26 C :   -0.106829
  27 C :   -0.111379
  28 C :   -0.024852
  29 C :   -0.100452
  30 C :   -0.035865
  31 C :    0.017920
  32 C :   -0.094723
  33 C :    0.068456
  34 C :   -0.015810
  35 C :    0.013162
  36 C :    0.033453
  37 C :   -0.096268
  38 C :   -0.046930
  39 C :   -0.020599
  40 C :   -0.108092
  41 C :   -0.094207
  42 C :   -0.009973
  43 C :   -0.101479
  44 C :    0.031228
  45 C :   -0.026982
  46 C :   -0.001671
  47 C :    0.029152
  48 C :   -0.098757
  49 C :   -0.075447
  50 C :   -0.020325
  51 C :   -0.109634
  52 H :    0.024546
  53 H :    0.003418
  54 H :    0.041061
  55 H :    0.024615
  56 H :    0.022349
  57 H :    0.027037
  58 H :    0.027771
  59 H :    0.008767
  60 H :    0.041409
  61 H :    0.060048
  62 H :    0.061561
  63 H :    0.031366
  64 H :    0.003995
  65 H :    0.045734
  66 H :    0.030010
  67 H :    0.028788
  68 H :    0.031983
  69 H :    0.030941
  70 H :   -0.003545
  71 H :    0.044515
  72 H :    0.035557
  73 H :    0.006282
  74 H :    0.048949
  75 H :    0.034955
  76 H :    0.032679
  77 H :    0.034702
  78 H :    0.034332
  79 H :    0.003658
  80 H :    0.048633
  81 H :    0.028764
  82 H :   -0.002705
  83 H :    0.042371
  84 H :    0.029240
  85 H :    0.026759
  86 H :    0.030004
  87 H :    0.031134
  88 H :    0.001318
  89 H :    0.044524

  Mayer bond orders larger than 0.100000
B(  0-C ,  1-N ) :   1.0917 B(  0-C , 17-C ) :   1.6940 B(  0-C , 52-H ) :   0.9680
B(  1-N ,  8-C ) :   1.0916 B(  1-N , 10-C ) :   0.9757 B(  2-C , 12-C ) :   1.5174
B(  2-C , 16-C ) :   1.3464 B(  2-C , 53-H ) :   0.9766 B(  3-N , 14-C ) :   1.2156
B(  3-N , 16-C ) :   1.1928 B(  3-N , 61-H ) :   0.8993 B(  4-C ,  6-C ) :   1.2184
B(  4-C , 17-C ) :   1.2185 B(  4-C , 18-C ) :   1.3985 B(  5-N , 19-C ) :   1.4463
B(  5-N , 27-C ) :   1.3850 B(  6-C ,  8-C ) :   1.6936 B(  6-C , 54-H ) :   0.9650
B(  7-N , 30-C ) :   1.1936 B(  7-N , 38-C ) :   1.1948 B(  7-N , 62-H ) :   0.8971
B(  8-C , 55-H ) :   0.9690 B(  9-N , 41-C ) :   1.3957 B(  9-N , 49-C ) :   1.4258
B( 10-C , 56-H ) :   0.9766 B( 10-C , 57-H ) :   0.9830 B( 10-C , 58-H ) :   0.9834
B( 11-N , 20-C ) :   1.1312 B( 11-N , 24-C ) :   1.1139 B( 11-N , 25-C ) :   0.9584
B( 12-C , 14-C ) :   1.3484 B( 12-C , 59-H ) :   0.9749 B( 13-N , 31-C ) :   1.1504
B( 13-N , 35-C ) :   1.1442 B( 13-N , 36-C ) :   0.9473 B( 14-C , 18-C ) :   1.1462
B( 15-N , 42-C ) :   1.1082 B( 15-N , 46-C ) :   1.1194 B( 15-N , 47-C ) :   0.9625
B( 16-C , 51-C ) :   1.1788 B( 17-C , 60-H ) :   0.9648 B( 18-C , 19-C ) :   1.1528
B( 19-C , 21-C ) :   1.2353 B( 20-C , 28-C ) :   1.6244 B( 20-C , 63-H ) :   0.9701
B( 21-C , 26-C ) :   1.6236 B( 21-C , 64-H ) :   0.9711 B( 22-C , 23-C ) :   1.2902
B( 22-C , 28-C ) :   1.2695 B( 22-C , 29-C ) :   1.2203 B( 23-C , 24-C ) :   1.6166
B( 23-C , 65-H ) :   0.9705 B( 24-C , 66-H ) :   0.9694 B( 25-C , 67-H ) :   0.9761
B( 25-C , 68-H ) :   0.9828 B( 25-C , 69-H ) :   0.9822 B( 26-C , 27-C ) :   1.2297
B( 26-C , 70-H ) :   0.9714 B( 27-C , 29-C ) :   1.2188 B( 28-C , 71-H ) :   0.9717
B( 29-C , 30-C ) :   1.2356 B( 30-C , 32-C ) :   1.2883 B( 31-C , 39-C ) :   1.6019
B( 31-C , 72-H ) :   0.9686 B( 32-C , 37-C ) :   1.5708 B( 32-C , 73-H ) :   0.9783
B( 33-C , 34-C ) :   1.2983 B( 33-C , 39-C ) :   1.2913 B( 33-C , 40-C ) :   1.1976
B( 34-C , 35-C ) :   1.5984 B( 34-C , 74-H ) :   0.9698 B( 35-C , 75-H ) :   0.9687
B( 36-C , 76-H ) :   0.9766 B( 36-C , 77-H ) :   0.9817 B( 36-C , 78-H ) :   0.9826
B( 37-C , 38-C ) :   1.2918 B( 37-C , 79-H ) :   0.9770 B( 38-C , 40-C ) :   1.2270
B( 39-C , 80-H ) :   0.9709 B( 40-C , 41-C ) :   1.2402 B( 41-C , 43-C ) :   1.1960
B( 42-C , 50-C ) :   1.6357 B( 42-C , 81-H ) :   0.9697 B( 43-C , 48-C ) :   1.6557
B( 43-C , 82-H ) :   0.9725 B( 44-C , 45-C ) :   1.2635 B( 44-C , 50-C ) :   1.2686
B( 44-C , 51-C ) :   1.2638 B( 45-C , 46-C ) :   1.6365 B( 45-C , 83-H ) :   0.9717
B( 46-C , 84-H ) :   0.9702 B( 47-C , 85-H ) :   0.9762 B( 47-C , 86-H ) :   0.9829
B( 47-C , 87-H ) :   0.9825 B( 48-C , 49-C ) :   1.1988 B( 48-C , 88-H ) :   0.9746
B( 49-C , 51-C ) :   1.2313 B( 50-C , 89-H ) :   0.9710

MP2 TOTAL ENERGY:    -2130.910386221 Eh
FINAL SINGLE POINT ENERGY     -2130.910386220777

DIPOLE MOMENT
-------------
                                X             Y             Z
Electronic contribution:      1.62278      -3.40840      -0.22218
Nuclear contribution   :      0.02452       0.20029       0.22710
                        -----------------------------------------
Total Dipole Moment    :      1.64730      -3.20810       0.00491
                        -----------------------------------------
Magnitude (a.u.)       :      3.60632
Magnitude (Debye)      :      9.16654

Rotational constants in cm-1:     0.001499     0.001477     0.000761
Rotational constants in MHz :    44.950433    44.275921    22.818658

                             ****ORCA TERMINATED NORMALLY****
TOTAL RUN TIME: 0 days 1 hours 7 minutes 37 seconds 863 msec
