                         Program Version 5.0.4 -  RELEASE  -
|  1> ! PAL2
|  2> ! mp2 cc-pvdz TightSCF  NoKeepInts
|  3>
|  4> %scf
|  5>   MaxCore 2000
|  6> end
|  7> %mp2
|  8>   MaxCore 2000
|  9> end
| 10> * xyz 0 1
| 11>    C       -4.48600         5.52300        -0.92300
| 12>    C        1.47400         4.04100         0.05700
| 13>    C       -2.80200         4.09300         0.04900
| 14>    C       -2.68900         5.02200         1.09500
| 15>    C       -3.47200         6.15900         1.09900
| 16>    C       -5.20400         7.60800         0.15300
| 17>    C        0.13200         4.30700         0.06100
| 18>    C       -0.56900         3.05600         0.04700
| 19>    C        1.64900         2.61800         0.02300
| 20>    C       -3.72800         4.36900        -0.96900
| 21>    N       -4.35200         6.39900         0.09900
| 22>    N        0.38800         2.06700         0.02500
| 23>    N       -2.01000         0.39500        -0.07500
| 24>    N       -0.38800        -2.07400        -0.02700
| 25>    N        2.01000        -0.40100         0.06500
| 26>    C       -1.96000         2.86100         0.02400
| 27>    C       -2.62300         1.61500        -0.01800
| 28>    C       -5.57300        -4.32900         1.06600
| 29>    C       -4.07300         1.47100         0.05600
| 30>    C       -4.10600        -2.75600        -0.02600
| 31>    C       -4.99500        -2.75700        -1.11100
| 32>    C       -6.13200        -3.54200        -1.07600
| 33>    C       -7.65100        -5.11300         0.04000
| 34>    C       -4.32400         0.14100         0.03700
| 35>    C       -3.02500        -0.52000        -0.04800
| 36>    C       -4.42200        -3.56600         1.07500
| 37>    N       -6.40700        -4.31300         0.00100
| 38>    C       -2.86700        -1.92200        -0.04000
| 39>    C       -1.65000        -2.62400        -0.02700
| 40>    C        3.56800        -6.14200        -1.04000
| 41>    C       -1.47600        -4.04900        -0.03400
| 42>    C        2.80300        -4.09900        -0.00800
| 43>    C        3.65700        -4.38400         1.06900
| 44>    C        4.42700        -5.53000         1.05900
| 45>    C        5.24500        -7.58800         0.01400
| 46>    C       -0.13400        -4.31500        -0.02200
| 47>    C        0.56800        -3.06400        -0.02700
| 48>    C        2.77500        -5.01200        -1.07400
| 49>    N        4.37600        -6.39100         0.01700
| 50>    C        1.95900        -2.86900        -0.00900
| 51>    C        2.62100        -1.62200         0.00900
| 52>    C        5.54300         4.33900        -1.13000
| 53>    C        4.07000        -1.47900        -0.09400
| 54>    C        4.10400         2.75100        -0.02100
| 55>    C        5.02700         2.72900         1.03600
| 56>    C        6.16600         3.50900         0.97800
| 57>    C        7.61900         5.15300        -0.11500
| 58>    C        4.32100        -0.14800        -0.09200
| 59>    C        3.02500         0.51400         0.01500
| 60>    C        4.38700         3.58200        -1.11500
| 61>    C        2.86600         1.91600         0.01300
| 62>    N        6.41300         4.29600        -0.09500
| 63>    H       -5.20300         5.78200        -1.69200
| 64>    H        2.27400         4.76600         0.08100
| 65>    H       -1.99900         4.86100         1.91400
| 66>    H       -3.42700         6.90000         1.88800
| 67>    H       -6.09600         7.38800         0.74400
| 68>    H       -4.63700         8.41600         0.61400
| 69>    H       -5.48600         7.88300        -0.86300
| 70>    H       -0.33200         5.28200         0.06900
| 71>    H       -3.85200         3.69700        -1.81000
| 72>    H        0.18200         1.07200         0.00500
| 73>    H       -0.18300        -1.08000        -0.02100
| 74>    H       -5.86400        -4.96200         1.89500
| 75>    H       -4.79400         2.27200         0.13900
| 76>    H       -4.80000        -2.16000        -1.99400
| 77>    H       -6.84100        -3.58200        -1.89300
| 78>    H       -8.42800        -4.53600         0.54600
| 79>    H       -7.95600        -5.33700        -0.98100
| 80>    H       -7.45600        -6.03700         0.58400
| 81>    H       -5.28700        -0.34400         0.10000
| 82>    H       -3.78000        -3.60100         1.94700
| 83>    H        3.58700        -6.86800        -1.84300
| 84>    H       -2.27600        -4.77400        -0.05000
| 85>    H        3.71400        -3.72400         1.92600
| 86>    H        5.09200        -5.79500         1.87100
| 87>    H        6.20500        -7.32900        -0.43900
| 88>    H        5.39300        -7.91700         1.04200
| 89>    H        4.75900        -8.37300        -0.56400
| 90>    H        0.32900        -5.29000        -0.00800
| 91>    H        2.14600        -4.84200        -1.94000
| 92>    H        5.80800         4.98600        -1.95600
| 93>    H        4.78800        -2.28100        -0.18500
| 94>    H        4.86000         2.11400         1.91200
| 95>    H        6.90100         3.53100         1.77200
| 96>    H        7.38300         6.10900         0.35600
| 97>    H        8.41400         4.65200         0.43500
| 98>    H        7.92100         5.31000        -1.15000
| 99>    H        5.28300         0.33600        -0.17900
|100>    H        3.72000         3.63200        -1.96700
|101> *
|102>
|103>                          ****END OF INPUT****

CARTESIAN COORDINATES (ANGSTROEM)
---------------------------------
  C     -4.486000    5.523000   -0.923000
  C      1.474000    4.041000    0.057000
  C     -2.802000    4.093000    0.049000
  C     -2.689000    5.022000    1.095000
  C     -3.472000    6.159000    1.099000
  C     -5.204000    7.608000    0.153000
  C      0.132000    4.307000    0.061000
  C     -0.569000    3.056000    0.047000
  C      1.649000    2.618000    0.023000
  C     -3.728000    4.369000   -0.969000
  N     -4.352000    6.399000    0.099000
  N      0.388000    2.067000    0.025000
  N     -2.010000    0.395000   -0.075000
  N     -0.388000   -2.074000   -0.027000
  N      2.010000   -0.401000    0.065000
  C     -1.960000    2.861000    0.024000
  C     -2.623000    1.615000   -0.018000
  C     -5.573000   -4.329000    1.066000
  C     -4.073000    1.471000    0.056000
  C     -4.106000   -2.756000   -0.026000
  C     -4.995000   -2.757000   -1.111000
  C     -6.132000   -3.542000   -1.076000
  C     -7.651000   -5.113000    0.040000
  C     -4.324000    0.141000    0.037000
  C     -3.025000   -0.520000   -0.048000
  C     -4.422000   -3.566000    1.075000
  N     -6.407000   -4.313000    0.001000
  C     -2.867000   -1.922000   -0.040000
  C     -1.650000   -2.624000   -0.027000
  C      3.568000   -6.142000   -1.040000
  C     -1.476000   -4.049000   -0.034000
  C      2.803000   -4.099000   -0.008000
  C      3.657000   -4.384000    1.069000
  C      4.427000   -5.530000    1.059000
  C      5.245000   -7.588000    0.014000
  C     -0.134000   -4.315000   -0.022000
  C      0.568000   -3.064000   -0.027000
  C      2.775000   -5.012000   -1.074000
  N      4.376000   -6.391000    0.017000
  C      1.959000   -2.869000   -0.009000
  C      2.621000   -1.622000    0.009000
  C      5.543000    4.339000   -1.130000
  C      4.070000   -1.479000   -0.094000
  C      4.104000    2.751000   -0.021000
  C      5.027000    2.729000    1.036000
  C      6.166000    3.509000    0.978000
  C      7.619000    5.153000   -0.115000
  C      4.321000   -0.148000   -0.092000
  C      3.025000    0.514000    0.015000
  C      4.387000    3.582000   -1.115000
  C      2.866000    1.916000    0.013000
  N      6.413000    4.296000   -0.095000
  H     -5.203000    5.782000   -1.692000
  H      2.274000    4.766000    0.081000
  H     -1.999000    4.861000    1.914000
  H     -3.427000    6.900000    1.888000
  H     -6.096000    7.388000    0.744000
  H     -4.637000    8.416000    0.614000
  H     -5.486000    7.883000   -0.863000
  H     -0.332000    5.282000    0.069000
  H     -3.852000    3.697000   -1.810000
  H      0.182000    1.072000    0.005000
  H     -0.183000   -1.080000   -0.021000
  H     -5.864000   -4.962000    1.895000
  H     -4.794000    2.272000    0.139000
  H     -4.800000   -2.160000   -1.994000
  H     -6.841000   -3.582000   -1.893000
  H     -8.428000   -4.536000    0.546000
  H     -7.956000   -5.337000   -0.981000
  H     -7.456000   -6.037000    0.584000
  H     -5.287000   -0.344000    0.100000
  H     -3.780000   -3.601000    1.947000
  H      3.587000   -6.868000   -1.843000
  H     -2.276000   -4.774000   -0.050000
  H      3.714000   -3.724000    1.926000
  H      5.092000   -5.795000    1.871000
  H      6.205000   -7.329000   -0.439000
  H      5.393000   -7.917000    1.042000
  H      4.759000   -8.373000   -0.564000
  H      0.329000   -5.290000   -0.008000
  H      2.146000   -4.842000   -1.940000
  H      5.808000    4.986000   -1.956000
  H      4.788000   -2.281000   -0.185000
  H      4.860000    2.114000    1.912000
  H      6.901000    3.531000    1.772000
  H      7.383000    6.109000    0.356000
  H      8.414000    4.652000    0.435000
  H      7.921000    5.310000   -1.150000
  H      5.283000    0.336000   -0.179000
  H      3.720000    3.632000   -1.967000

 Total Charge           Charge          ....    0
 Multiplicity           Mult            ....    1
 Number of Electrons    NEL             ....  358
 Basis Dimension        Dim             ....  918

ORBITAL ENERGIES
----------------

  NO   OCC          E(Eh)            E(eV)
   0   2.0000     -15.640715      -425.6055
   1   2.0000     -15.639914      -425.5837
   2   2.0000     -15.628443      -425.2715
   3   2.0000     -15.622482      -425.1093
   4   2.0000     -15.519150      -422.2975
   5   2.0000     -15.515544      -422.1994
   6   2.0000     -15.444181      -420.2575
   7   2.0000     -15.444092      -420.2551
   8   2.0000     -11.303659      -307.5882
   9   2.0000     -11.302918      -307.5680
  10   2.0000     -11.297295      -307.4150
  11   2.0000     -11.295834      -307.3753
  12   2.0000     -11.295378      -307.3629
  13   2.0000     -11.294575      -307.3410
  14   2.0000     -11.294306      -307.3337
  15   2.0000     -11.292768      -307.2918
  16   2.0000     -11.285681      -307.0990
  17   2.0000     -11.285161      -307.0848
  18   2.0000     -11.281718      -306.9911
  19   2.0000     -11.281158      -306.9759
  20   2.0000     -11.245029      -305.9928
  21   2.0000     -11.243256      -305.9445
  22   2.0000     -11.235484      -305.7331
  23   2.0000     -11.234961      -305.7188
  24   2.0000     -11.234610      -305.7093
  25   2.0000     -11.234321      -305.7014
  26   2.0000     -11.232806      -305.6602
  27   2.0000     -11.228905      -305.5540
  28   2.0000     -11.226405      -305.4860
  29   2.0000     -11.226285      -305.4827
  30   2.0000     -11.222385      -305.3766
  31   2.0000     -11.221866      -305.3625
  32   2.0000     -11.201061      -304.7964
  33   2.0000     -11.200540      -304.7822
  34   2.0000     -11.193893      -304.6013
  35   2.0000     -11.193490      -304.5904
  36   2.0000     -11.172753      -304.0261
  37   2.0000     -11.172536      -304.0202
  38   2.0000     -11.171491      -303.9917
  39   2.0000     -11.171299      -303.9865
  40   2.0000     -11.170168      -303.9557
  41   2.0000     -11.169728      -303.9438
  42   2.0000     -11.166351      -303.8519
  43   2.0000     -11.166246      -303.8490
  44   2.0000     -11.160795      -303.7007
  45   2.0000     -11.159425      -303.6634
  46   2.0000     -11.152429      -303.4730
  47   2.0000     -11.150895      -303.4313
  48   2.0000     -11.143351      -303.2260
  49   2.0000     -11.141904      -303.1866
  50   2.0000     -11.141246      -303.1687
  51   2.0000     -11.139387      -303.1181
  52   2.0000      -1.327011       -36.1098
  53   2.0000      -1.326251       -36.0891
  54   2.0000      -1.316344       -35.8195
  55   2.0000      -1.311682       -35.6927
  56   2.0000      -1.218103       -33.1463
  57   2.0000      -1.212417       -32.9916
  58   2.0000      -1.161475       -31.6054
  59   2.0000      -1.156989       -31.4833
  60   2.0000      -1.116078       -30.3700
  61   2.0000      -1.113444       -30.2984
  62   2.0000      -1.105428       -30.0802
  63   2.0000      -1.101607       -29.9763
  64   2.0000      -1.050963       -28.5982
  65   2.0000      -1.050034       -28.5729
  66   2.0000      -1.040921       -28.3249
  67   2.0000      -1.037061       -28.2199
  68   2.0000      -1.026752       -27.9393
  69   2.0000      -1.009870       -27.4800
  70   2.0000      -1.009298       -27.4644
  71   2.0000      -0.997883       -27.1538
  72   2.0000      -0.982357       -26.7313
  73   2.0000      -0.975636       -26.5484
  74   2.0000      -0.969059       -26.3694
  75   2.0000      -0.960105       -26.1258
  76   2.0000      -0.952502       -25.9189
  77   2.0000      -0.942280       -25.6408
  78   2.0000      -0.940582       -25.5945
  79   2.0000      -0.923366       -25.1261
  80   2.0000      -0.892943       -24.2982
  81   2.0000      -0.878239       -23.8981
  82   2.0000      -0.876130       -23.8407
  83   2.0000      -0.868403       -23.6305
  84   2.0000      -0.864758       -23.5313
  85   2.0000      -0.857050       -23.3215
  86   2.0000      -0.847333       -23.0571
  87   2.0000      -0.844643       -22.9839
  88   2.0000      -0.821700       -22.3596
  89   2.0000      -0.798495       -21.7282
  90   2.0000      -0.797701       -21.7065
  91   2.0000      -0.739275       -20.1167
  92   2.0000      -0.729218       -19.8430
  93   2.0000      -0.729036       -19.8381
  94   2.0000      -0.720667       -19.6104
  95   2.0000      -0.720067       -19.5940
  96   2.0000      -0.712068       -19.3764
  97   2.0000      -0.709361       -19.3027
  98   2.0000      -0.698487       -19.0068
  99   2.0000      -0.692562       -18.8456
 100   2.0000      -0.684005       -18.6127
 101   2.0000      -0.680145       -18.5077
 102   2.0000      -0.679601       -18.4929
 103   2.0000      -0.673269       -18.3206
 104   2.0000      -0.667789       -18.1715
 105   2.0000      -0.667141       -18.1538
 106   2.0000      -0.663134       -18.0448
 107   2.0000      -0.658991       -17.9321
 108   2.0000      -0.658080       -17.9073
 109   2.0000      -0.654347       -17.8057
 110   2.0000      -0.652757       -17.7624
 111   2.0000      -0.650543       -17.7022
 112   2.0000      -0.647406       -17.6168
 113   2.0000      -0.644980       -17.5508
 114   2.0000      -0.634699       -17.2710
 115   2.0000      -0.622903       -16.9501
 116   2.0000      -0.617563       -16.8047
 117   2.0000      -0.616770       -16.7832
 118   2.0000      -0.610346       -16.6084
 119   2.0000      -0.608632       -16.5617
 120   2.0000      -0.608080       -16.5467
 121   2.0000      -0.604871       -16.4594
 122   2.0000      -0.603083       -16.4107
 123   2.0000      -0.593697       -16.1553
 124   2.0000      -0.586302       -15.9541
 125   2.0000      -0.585370       -15.9287
 126   2.0000      -0.578136       -15.7319
 127   2.0000      -0.574613       -15.6360
 128   2.0000      -0.571153       -15.5419
 129   2.0000      -0.561500       -15.2792
 130   2.0000      -0.553765       -15.0687
 131   2.0000      -0.542813       -14.7707
 132   2.0000      -0.541200       -14.7268
 133   2.0000      -0.535155       -14.5623
 134   2.0000      -0.533674       -14.5220
 135   2.0000      -0.530950       -14.4479
 136   2.0000      -0.524009       -14.2590
 137   2.0000      -0.523466       -14.2442
 138   2.0000      -0.517202       -14.0738
 139   2.0000      -0.516906       -14.0657
 140   2.0000      -0.509198       -13.8560
 141   2.0000      -0.505584       -13.7577
 142   2.0000      -0.504163       -13.7190
 143   2.0000      -0.503741       -13.7075
 144   2.0000      -0.499145       -13.5824
 145   2.0000      -0.497943       -13.5497
 146   2.0000      -0.496429       -13.5085
 147   2.0000      -0.493179       -13.4201
 148   2.0000      -0.490956       -13.3596
 149   2.0000      -0.468870       -12.7586
 150   2.0000      -0.460227       -12.5234
 151   2.0000      -0.451074       -12.2743
 152   2.0000      -0.448257       -12.1977
 153   2.0000      -0.445967       -12.1354
 154   2.0000      -0.445029       -12.1098
 155   2.0000      -0.439488       -11.9591
 156   2.0000      -0.435000       -11.8370
 157   2.0000      -0.432049       -11.7566
 158   2.0000      -0.390785       -10.6338
 159   2.0000      -0.381180       -10.3724
 160   2.0000      -0.380070       -10.3422
 161   2.0000      -0.372946       -10.1484
 162   2.0000      -0.361220        -9.8293
 163   2.0000      -0.360277        -9.8036
 164   2.0000      -0.352618        -9.5952
 165   2.0000      -0.349228        -9.5030
 166   2.0000      -0.337266        -9.1775
 167   2.0000      -0.332129        -9.0377
 168   2.0000      -0.329374        -8.9627
 169   2.0000      -0.300220        -8.1694
 170   2.0000      -0.295678        -8.0458
 171   2.0000      -0.288939        -7.8624
 172   2.0000      -0.287320        -7.8184
 173   2.0000      -0.254709        -6.9310
 174   2.0000      -0.248025        -6.7491
 175   2.0000      -0.188013        -5.1161
 176   2.0000      -0.177852        -4.8396
 177   2.0000      -0.066383        -1.8064
 178   2.0000      -0.054709        -1.4887
 179   0.0000       0.030940         0.8419
 180   0.0000       0.070604         1.9212
 181   0.0000       0.093110         2.5337
 182   0.0000       0.097198         2.6449
 183   0.0000       0.133106         3.6220

MULLIKEN ATOMIC CHARGES
-----------------------
   0 C :    0.205857
   1 N :   -0.444276
   2 C :   -0.065005
   3 N :   -0.337706
   4 C :   -0.074022
   5 N :   -0.562061
   6 C :   -0.066899
   7 N :   -0.338463
   8 C :    0.203362
   9 N :   -0.562997
  10 C :    0.115528
  11 N :   -0.437178
  12 C :   -0.069861
  13 N :   -0.438459
  14 C :    0.234882
  15 N :   -0.440824
  16 C :    0.234662
  17 C :   -0.066946
  18 C :   -0.193945
  19 C :    0.225032
  20 C :    0.209283
  21 C :   -0.076685
  22 C :   -0.085883
  23 C :   -0.047998
  24 C :    0.205390
  25 C :    0.113689
  26 C :   -0.073374
  27 C :    0.221550
  28 C :   -0.053040
  29 C :   -0.184586
  30 C :    0.236679
  31 C :    0.213750
  32 C :   -0.064378
  33 C :   -0.078693
  34 C :   -0.049684
  35 C :    0.206800
  36 C :    0.113384
  37 C :   -0.066262
  38 C :    0.236800
  39 C :   -0.061388
  40 C :   -0.187987
  41 C :    0.220632
  42 C :    0.202353
  43 C :   -0.073757
  44 C :   -0.089246
  45 C :   -0.053844
  46 C :    0.203958
  47 C :    0.115648
  48 C :   -0.074130
  49 C :    0.227214
  50 C :   -0.052091
  51 C :   -0.190681
  52 H :    0.052070
  53 H :   -0.014424
  54 H :    0.046199
  55 H :    0.051367
  56 H :    0.058207
  57 H :    0.055393
  58 H :    0.054593
  59 H :   -0.011339
  60 H :    0.043829
  61 H :    0.172491
  62 H :    0.173271
  63 H :    0.057199
  64 H :   -0.018783
  65 H :    0.046696
  66 H :    0.057843
  67 H :    0.063400
  68 H :    0.058329
  69 H :    0.058989
  70 H :   -0.025041
  71 H :    0.048276
  72 H :    0.058202
  73 H :   -0.013381
  74 H :    0.048376
  75 H :    0.057234
  76 H :    0.063563
  77 H :    0.059317
  78 H :    0.058484
  79 H :   -0.013943
  80 H :    0.048664
  81 H :    0.053559
  82 H :   -0.024119
  83 H :    0.042598
  84 H :    0.052992
  85 H :    0.059002
  86 H :    0.056059
  87 H :    0.056665
  88 H :   -0.021193
  89 H :    0.045254
Sum of atomic charges:   -0.0000000

LOEWDIN ATOMIC CHARGES
----------------------
   0 C :   -0.006993
   1 N :    0.133468
   2 C :   -0.100699
   3 N :    0.178644
   4 C :    0.028291
   5 N :   -0.136808
   6 C :   -0.025417
   7 N :    0.177089
   8 C :   -0.008524
   9 N :   -0.139024
  10 C :    0.028294
  11 N :    0.145338
  12 C :   -0.102187
  13 N :    0.144851
  14 C :   -0.043370
  15 N :    0.138305
  16 C :   -0.047707
  17 C :   -0.026671
  18 C :   -0.107220
  19 C :   -0.087219
  20 C :    0.001893
  21 C :   -0.105369
  22 C :    0.044010
  23 C :   -0.019676
  24 C :   -0.001419
  25 C :    0.030584
  26 C :   -0.104436
  27 C :   -0.097430
  28 C :   -0.021327
  29 C :   -0.105804
  30 C :   -0.044226
  31 C :    0.004623
  32 C :   -0.097916
  33 C :    0.045761
  34 C :   -0.018852
  35 C :   -0.001332
  36 C :    0.030378
  37 C :   -0.099886
  38 C :   -0.042104
  39 C :   -0.024541
  40 C :   -0.108657
  41 C :   -0.094551
  42 C :   -0.006292
  43 C :   -0.104537
  44 C :    0.033582
  45 C :   -0.023321
  46 C :   -0.004911
  47 C :    0.029226
  48 C :   -0.104190
  49 C :   -0.087135
  50 C :   -0.022567
  51 C :   -0.109098
  52 H :    0.028405
  53 H :    0.004147
  54 H :    0.043135
  55 H :    0.028712
  56 H :    0.026095
  57 H :    0.029743
  58 H :    0.030437
  59 H :    0.004895
  60 H :    0.042653
  61 H :    0.060437
  62 H :    0.060697
  63 H :    0.031368
  64 H :   -0.000160
  65 H :    0.045324
  66 H :    0.030622
  67 H :    0.028801
  68 H :    0.032126
  69 H :    0.031453
  70 H :   -0.002439
  71 H :    0.045439
  72 H :    0.031591
  73 H :    0.004532
  74 H :    0.045670
  75 H :    0.030863
  76 H :    0.028914
  77 H :    0.032102
  78 H :    0.031746
  79 H :    0.004312
  80 H :    0.045177
  81 H :    0.028926
  82 H :   -0.002190
  83 H :    0.043233
  84 H :    0.029083
  85 H :    0.026524
  86 H :    0.030349
  87 H :    0.031139
  88 H :   -0.000808
  89 H :    0.044023

  Mayer bond orders larger than 0.100000
B(  0-C ,  1-N ) :   1.1113 B(  0-C , 17-C ) :   1.6475 B(  0-C , 52-H ) :   0.9691
B(  1-N ,  8-C ) :   1.1082 B(  1-N , 10-C ) :   0.9646 B(  2-C , 12-C ) :   1.5332
B(  2-C , 16-C ) :   1.3265 B(  2-C , 53-H ) :   0.9777 B(  3-N , 14-C ) :   1.2051
B(  3-N , 16-C ) :   1.1947 B(  3-N , 61-H ) :   0.8986 B(  4-C ,  6-C ) :   1.2540
B(  4-C , 17-C ) :   1.2564 B(  4-C , 18-C ) :   1.2944 B(  5-N , 19-C ) :   1.4244
B(  5-N , 27-C ) :   1.4016 B(  6-C ,  8-C ) :   1.6492 B(  6-C , 54-H ) :   0.9707
B(  7-N , 30-C ) :   1.1924 B(  7-N , 38-C ) :   1.2007 B(  7-N , 62-H ) :   0.8980
B(  8-C , 55-H ) :   0.9702 B(  9-N , 41-C ) :   1.4052 B(  9-N , 49-C ) :   1.4187
B( 10-C , 56-H ) :   0.9763 B( 10-C , 57-H ) :   0.9826 B( 10-C , 58-H ) :   0.9831
B( 11-N , 20-C ) :   1.1267 B( 11-N , 24-C ) :   1.1228 B( 11-N , 25-C ) :   0.9576
B( 12-C , 14-C ) :   1.3285 B( 12-C , 59-H ) :   0.9770 B( 13-N , 31-C ) :   1.1292
B( 13-N , 35-C ) :   1.1216 B( 13-N , 36-C ) :   0.9575 B( 14-C , 18-C ) :   1.1878
B( 15-N , 42-C ) :   1.1143 B( 15-N , 46-C ) :   1.1152 B( 15-N , 47-C ) :   0.9624
B( 16-C , 51-C ) :   1.1976 B( 17-C , 60-H ) :   0.9705 B( 18-C , 19-C ) :   1.2017
B( 19-C , 21-C ) :   1.2175 B( 20-C , 28-C ) :   1.6220 B( 20-C , 63-H ) :   0.9702
B( 21-C , 26-C ) :   1.6378 B( 21-C , 64-H ) :   0.9732 B( 22-C , 23-C ) :   1.2854
B( 22-C , 28-C ) :   1.2751 B( 22-C , 29-C ) :   1.2258 B( 23-C , 24-C ) :   1.6168
B( 23-C , 65-H ) :   0.9709 B( 24-C , 66-H ) :   0.9691 B( 25-C , 67-H ) :   0.9762
B( 25-C , 68-H ) :   0.9829 B( 25-C , 69-H ) :   0.9821 B( 26-C , 27-C ) :   1.2137
B( 26-C , 70-H ) :   0.9730 B( 27-C , 29-C ) :   1.2266 B( 28-C , 71-H ) :   0.9714
B( 29-C , 30-C ) :   1.2178 B( 30-C , 32-C ) :   1.3062 B( 31-C , 39-C ) :   1.6253
B( 31-C , 72-H ) :   0.9694 B( 32-C , 37-C ) :   1.5522 B( 32-C , 73-H ) :   0.9779
B( 33-C , 34-C ) :   1.2797 B( 33-C , 39-C ) :   1.2722 B( 33-C , 40-C ) :   1.2393
B( 34-C , 35-C ) :   1.6221 B( 34-C , 74-H ) :   0.9703 B( 35-C , 75-H ) :   0.9695
B( 36-C , 76-H ) :   0.9763 B( 36-C , 77-H ) :   0.9820 B( 36-C , 78-H ) :   0.9830
B( 37-C , 38-C ) :   1.3080 B( 37-C , 79-H ) :   0.9777 B( 38-C , 40-C ) :   1.2128
B( 39-C , 80-H ) :   0.9714 B( 40-C , 41-C ) :   1.2214 B( 41-C , 43-C ) :   1.2124
B( 42-C , 50-C ) :   1.6341 B( 42-C , 81-H ) :   0.9696 B( 43-C , 48-C ) :   1.6390
B( 43-C , 82-H ) :   0.9734 B( 44-C , 45-C ) :   1.2692 B( 44-C , 50-C ) :   1.2671
B( 44-C , 51-C ) :   1.2577 B( 45-C , 46-C ) :   1.6334 B( 45-C , 83-H ) :   0.9712
B( 46-C , 84-H ) :   0.9702 B( 47-C , 85-H ) :   0.9761 B( 47-C , 86-H ) :   0.9828
B( 47-C , 87-H ) :   0.9826 B( 48-C , 49-C ) :   1.2127 B( 48-C , 88-H ) :   0.9740
B( 49-C , 51-C ) :   1.2189 B( 50-C , 89-H ) :   0.9713

MP2 TOTAL ENERGY:    -2130.915439999 Eh
FINAL SINGLE POINT ENERGY     -2130.915439998519

DIPOLE MOMENT
-------------
                                X             Y             Z
Electronic contribution:      0.03373      -1.27145      -0.20762
Nuclear contribution   :      0.00453       0.18853       0.22730
                        -----------------------------------------
Total Dipole Moment    :      0.03826      -1.08292       0.01968
                        -----------------------------------------
Magnitude (a.u.)       :      1.08378
Magnitude (Debye)      :      2.75474

Rotational constants in cm-1:     0.001498     0.001475     0.000762
Rotational constants in MHz :    44.917126    44.207449    22.845696

                             ****ORCA TERMINATED NORMALLY****
TOTAL RUN TIME: 0 days 1 hours 9 minutes 21 seconds 43 msec
