                         Program Version 5.0.4 -  RELEASE  -
|  1> ! PAL2
|  2> ! mp2 cc-pvdz TightSCF  NoKeepInts
|  3>
|  4> %scf
|  5>   MaxCore 2000
|  6> end
|  7> %mp2
|  8>   MaxCore 2000
|  9> end
| 10> * xyz 0 1
| 11>    C       -3.04600         6.49000        -0.08600
| 12>    C        1.47400         4.04100         0.05700
| 13>    C       -2.80200         4.09300         0.04900
| 14>    C       -4.18800         4.01500         0.25400
| 15>    C       -4.95100         5.16500         0.27900
| 16>    C       -5.22900         7.59100         0.10900
| 17>    C        0.13200         4.30700         0.06100
| 18>    C       -0.56900         3.05600         0.04700
| 19>    C        1.64900         2.61800         0.02300
| 20>    C       -2.24100         5.36800        -0.12500
| 21>    N       -4.37900         6.38000         0.11400
| 22>    N        0.38800         2.06700         0.02500
| 23>    N       -2.01000         0.39500        -0.07500
| 24>    N       -0.38800        -2.07400        -0.02700
| 25>    N        2.01000        -0.40100         0.06500
| 26>    C       -1.96000         2.86100         0.02400
| 27>    C       -2.62300         1.61500        -0.01800
| 28>    C       -5.57300        -4.32900         1.06600
| 29>    C       -4.07300         1.47100         0.05600
| 30>    C       -4.10600        -2.75600        -0.02600
| 31>    C       -4.99500        -2.75700        -1.11100
| 32>    C       -6.13200        -3.54200        -1.07600
| 33>    C       -7.65100        -5.11300         0.04000
| 34>    C       -4.32400         0.14100         0.03700
| 35>    C       -3.02500        -0.52000        -0.04800
| 36>    C       -4.42200        -3.56600         1.07500
| 37>    N       -6.40700        -4.31300         0.00100
| 38>    C       -2.86700        -1.92200        -0.04000
| 39>    C       -1.65000        -2.62400        -0.02700
| 40>    C        3.56800        -6.14200        -1.04000
| 41>    C       -1.47600        -4.04900        -0.03400
| 42>    C        2.80300        -4.09900        -0.00800
| 43>    C        3.65700        -4.38400         1.06900
| 44>    C        4.42700        -5.53000         1.05900
| 45>    C        5.24500        -7.58800         0.01400
| 46>    C       -0.13400        -4.31500        -0.02200
| 47>    C        0.56800        -3.06400        -0.02700
| 48>    C        2.77500        -5.01200        -1.07400
| 49>    N        4.37600        -6.39100         0.01700
| 50>    C        1.95900        -2.86900        -0.00900
| 51>    C        2.62100        -1.62200         0.00900
| 52>    C        5.54300         4.33900        -1.13000
| 53>    C        4.07000        -1.47900        -0.09400
| 54>    C        4.10400         2.75100        -0.02100
| 55>    C        5.02700         2.72900         1.03600
| 56>    C        6.16600         3.50900         0.97800
| 57>    C        7.61900         5.15300        -0.11500
| 58>    C        4.32100        -0.14800        -0.09200
| 59>    C        3.02500         0.51400         0.01500
| 60>    C        4.38700         3.58200        -1.11500
| 61>    C        2.86600         1.91600         0.01300
| 62>    N        6.41300         4.29600        -0.09500
| 63>    H       -2.65500         7.49400        -0.20300
| 64>    H        2.27400         4.76600         0.08100
| 65>    H       -4.68100         3.05900         0.38500
| 66>    H       -6.02400         5.15400         0.42500
| 67>    H       -5.61400         7.75100        -0.90100
| 68>    H       -6.05400         7.44300         0.80500
| 69>    H       -4.62700         8.44400         0.41900
| 70>    H       -0.33200         5.28200         0.06900
| 71>    H       -1.17500         5.49500        -0.27300
| 72>    H        0.18200         1.07200         0.00500
| 73>    H       -0.18300        -1.08000        -0.02100
| 74>    H       -5.86400        -4.96200         1.89500
| 75>    H       -4.79400         2.27200         0.13900
| 76>    H       -4.80000        -2.16000        -1.99400
| 77>    H       -6.84100        -3.58200        -1.89300
| 78>    H       -8.42800        -4.53600         0.54600
| 79>    H       -7.95600        -5.33700        -0.98100
| 80>    H       -7.45600        -6.03700         0.58400
| 81>    H       -5.28700        -0.34400         0.10000
| 82>    H       -3.78000        -3.60100         1.94700
| 83>    H        3.58700        -6.86800        -1.84300
| 84>    H       -2.27600        -4.77400        -0.05000
| 85>    H        3.71400        -3.72400         1.92600
| 86>    H        5.09200        -5.79500         1.87100
| 87>    H        6.20500        -7.32900        -0.43900
| 88>    H        5.39300        -7.91700         1.04200
| 89>    H        4.75900        -8.37300        -0.56400
| 90>    H        0.32900        -5.29000        -0.00800
| 91>    H        2.14600        -4.84200        -1.94000
| 92>    H        5.80800         4.98600        -1.95600
| 93>    H        4.78800        -2.28100        -0.18500
| 94>    H        4.86000         2.11400         1.91200
| 95>    H        6.90100         3.53100         1.77200
| 96>    H        7.38300         6.10900         0.35600
| 97>    H        8.41400         4.65200         0.43500
| 98>    H        7.92100         5.31000        -1.15000
| 99>    H        5.28300         0.33600        -0.17900
|100>    H        3.72000         3.63200        -1.96700
|101> *
|102>
|103>                          ****END OF INPUT****

CARTESIAN COORDINATES (ANGSTROEM)
---------------------------------
  C     -3.046000    6.490000   -0.086000
  C      1.474000    4.041000    0.057000
  C     -2.802000    4.093000    0.049000
  C     -4.188000    4.015000    0.254000
  C     -4.951000    5.165000    0.279000
  C     -5.229000    7.591000    0.109000
  C      0.132000    4.307000    0.061000
  C     -0.569000    3.056000    0.047000
  C      1.649000    2.618000    0.023000
  C     -2.241000    5.368000   -0.125000
  N     -4.379000    6.380000    0.114000
  N      0.388000    2.067000    0.025000
  N     -2.010000    0.395000   -0.075000
  N     -0.388000   -2.074000   -0.027000
  N      2.010000   -0.401000    0.065000
  C     -1.960000    2.861000    0.024000
  C     -2.623000    1.615000   -0.018000
  C     -5.573000   -4.329000    1.066000
  C     -4.073000    1.471000    0.056000
  C     -4.106000   -2.756000   -0.026000
  C     -4.995000   -2.757000   -1.111000
  C     -6.132000   -3.542000   -1.076000
  C     -7.651000   -5.113000    0.040000
  C     -4.324000    0.141000    0.037000
  C     -3.025000   -0.520000   -0.048000
  C     -4.422000   -3.566000    1.075000
  N     -6.407000   -4.313000    0.001000
  C     -2.867000   -1.922000   -0.040000
  C     -1.650000   -2.624000   -0.027000
  C      3.568000   -6.142000   -1.040000
  C     -1.476000   -4.049000   -0.034000
  C      2.803000   -4.099000   -0.008000
  C      3.657000   -4.384000    1.069000
  C      4.427000   -5.530000    1.059000
  C      5.245000   -7.588000    0.014000
  C     -0.134000   -4.315000   -0.022000
  C      0.568000   -3.064000   -0.027000
  C      2.775000   -5.012000   -1.074000
  N      4.376000   -6.391000    0.017000
  C      1.959000   -2.869000   -0.009000
  C      2.621000   -1.622000    0.009000
  C      5.543000    4.339000   -1.130000
  C      4.070000   -1.479000   -0.094000
  C      4.104000    2.751000   -0.021000
  C      5.027000    2.729000    1.036000
  C      6.166000    3.509000    0.978000
  C      7.619000    5.153000   -0.115000
  C      4.321000   -0.148000   -0.092000
  C      3.025000    0.514000    0.015000
  C      4.387000    3.582000   -1.115000
  C      2.866000    1.916000    0.013000
  N      6.413000    4.296000   -0.095000
  H     -2.655000    7.494000   -0.203000
  H      2.274000    4.766000    0.081000
  H     -4.681000    3.059000    0.385000
  H     -6.024000    5.154000    0.425000
  H     -5.614000    7.751000   -0.901000
  H     -6.054000    7.443000    0.805000
  H     -4.627000    8.444000    0.419000
  H     -0.332000    5.282000    0.069000
  H     -1.175000    5.495000   -0.273000
  H      0.182000    1.072000    0.005000
  H     -0.183000   -1.080000   -0.021000
  H     -5.864000   -4.962000    1.895000
  H     -4.794000    2.272000    0.139000
  H     -4.800000   -2.160000   -1.994000
  H     -6.841000   -3.582000   -1.893000
  H     -8.428000   -4.536000    0.546000
  H     -7.956000   -5.337000   -0.981000
  H     -7.456000   -6.037000    0.584000
  H     -5.287000   -0.344000    0.100000
  H     -3.780000   -3.601000    1.947000
  H      3.587000   -6.868000   -1.843000
  H     -2.276000   -4.774000   -0.050000
  H      3.714000   -3.724000    1.926000
  H      5.092000   -5.795000    1.871000
  H      6.205000   -7.329000   -0.439000
  H      5.393000   -7.917000    1.042000
  H      4.759000   -8.373000   -0.564000
  H      0.329000   -5.290000   -0.008000
  H      2.146000   -4.842000   -1.940000
  H      5.808000    4.986000   -1.956000
  H      4.788000   -2.281000   -0.185000
  H      4.860000    2.114000    1.912000
  H      6.901000    3.531000    1.772000
  H      7.383000    6.109000    0.356000
  H      8.414000    4.652000    0.435000
  H      7.921000    5.310000   -1.150000
  H      5.283000    0.336000   -0.179000
  H      3.720000    3.632000   -1.967000

 Total Charge           Charge          ....    0
 Multiplicity           Mult            ....    1
 Number of Electrons    NEL             ....  358
 Basis Dimension        Dim             ....  918

ORBITAL ENERGIES
----------------

  NO   OCC          E(Eh)            E(eV)
   0   2.0000     -15.679982      -426.6740
   1   2.0000     -15.633007      -425.3957
   2   2.0000     -15.632766      -425.3892
   3   2.0000     -15.588216      -424.1769
   4   2.0000     -15.524835      -422.4522
   5   2.0000     -15.515525      -422.1989
   6   2.0000     -15.454094      -420.5273
   7   2.0000     -15.439340      -420.1258
   8   2.0000     -11.329434      -308.2896
   9   2.0000     -11.328672      -308.2688
  10   2.0000     -11.328047      -308.2518
  11   2.0000     -11.299096      -307.4640
  12   2.0000     -11.298584      -307.4501
  13   2.0000     -11.292233      -307.2773
  14   2.0000     -11.292026      -307.2716
  15   2.0000     -11.287495      -307.1483
  16   2.0000     -11.285481      -307.0935
  17   2.0000     -11.282207      -307.0045
  18   2.0000     -11.269632      -306.6623
  19   2.0000     -11.263476      -306.4948
  20   2.0000     -11.262472      -306.4674
  21   2.0000     -11.251754      -306.1758
  22   2.0000     -11.248007      -306.0738
  23   2.0000     -11.237722      -305.7940
  24   2.0000     -11.236592      -305.7632
  25   2.0000     -11.230601      -305.6002
  26   2.0000     -11.230439      -305.5958
  27   2.0000     -11.230235      -305.5902
  28   2.0000     -11.229492      -305.5700
  29   2.0000     -11.210663      -305.0577
  30   2.0000     -11.209310      -305.0208
  31   2.0000     -11.194056      -304.6057
  32   2.0000     -11.191920      -304.5476
  33   2.0000     -11.191473      -304.5355
  34   2.0000     -11.188931      -304.4663
  35   2.0000     -11.188274      -304.4484
  36   2.0000     -11.187471      -304.4266
  37   2.0000     -11.174435      -304.0718
  38   2.0000     -11.174176      -304.0648
  39   2.0000     -11.171477      -303.9913
  40   2.0000     -11.171452      -303.9907
  41   2.0000     -11.168196      -303.9021
  42   2.0000     -11.167874      -303.8933
  43   2.0000     -11.162332      -303.7425
  44   2.0000     -11.160698      -303.6980
  45   2.0000     -11.157262      -303.6045
  46   2.0000     -11.156150      -303.5743
  47   2.0000     -11.151365      -303.4441
  48   2.0000     -11.147283      -303.3330
  49   2.0000     -11.135392      -303.0094
  50   2.0000     -11.129200      -302.8409
  51   2.0000     -11.117315      -302.5175
  52   2.0000      -1.360540       -37.0222
  53   2.0000      -1.320621       -35.9359
  54   2.0000      -1.320187       -35.9241
  55   2.0000      -1.280482       -34.8437
  56   2.0000      -1.225895       -33.3583
  57   2.0000      -1.210424       -32.9373
  58   2.0000      -1.173831       -31.9416
  59   2.0000      -1.150534       -31.3076
  60   2.0000      -1.143790       -31.1241
  61   2.0000      -1.110428       -30.2163
  62   2.0000      -1.108780       -30.1714
  63   2.0000      -1.082214       -29.4485
  64   2.0000      -1.077333       -29.3157
  65   2.0000      -1.045214       -28.4417
  66   2.0000      -1.044426       -28.4203
  67   2.0000      -1.041191       -28.3323
  68   2.0000      -1.014943       -27.6180
  69   2.0000      -1.014266       -27.5996
  70   2.0000      -1.009084       -27.4586
  71   2.0000      -0.993288       -27.0287
  72   2.0000      -0.985682       -26.8218
  73   2.0000      -0.981733       -26.7143
  74   2.0000      -0.973580       -26.4925
  75   2.0000      -0.962519       -26.1915
  76   2.0000      -0.955051       -25.9883
  77   2.0000      -0.946425       -25.7535
  78   2.0000      -0.939210       -25.5572
  79   2.0000      -0.916862       -24.9491
  80   2.0000      -0.910686       -24.7810
  81   2.0000      -0.897779       -24.4298
  82   2.0000      -0.877067       -23.8662
  83   2.0000      -0.871722       -23.7207
  84   2.0000      -0.871164       -23.7056
  85   2.0000      -0.861048       -23.4303
  86   2.0000      -0.845383       -23.0040
  87   2.0000      -0.836749       -22.7691
  88   2.0000      -0.828877       -22.5549
  89   2.0000      -0.796458       -21.6727
  90   2.0000      -0.789132       -21.4734
  91   2.0000      -0.771133       -20.9836
  92   2.0000      -0.753109       -20.4931
  93   2.0000      -0.733730       -19.9658
  94   2.0000      -0.727630       -19.7998
  95   2.0000      -0.725998       -19.7554
  96   2.0000      -0.720080       -19.5944
  97   2.0000      -0.717762       -19.5313
  98   2.0000      -0.714121       -19.4322
  99   2.0000      -0.699370       -19.0308
 100   2.0000      -0.698224       -18.9996
 101   2.0000      -0.694487       -18.8979
 102   2.0000      -0.685410       -18.6510
 103   2.0000      -0.684471       -18.6254
 104   2.0000      -0.678756       -18.4699
 105   2.0000      -0.674608       -18.3570
 106   2.0000      -0.672876       -18.3099
 107   2.0000      -0.660848       -17.9826
 108   2.0000      -0.658137       -17.9088
 109   2.0000      -0.652896       -17.7662
 110   2.0000      -0.652006       -17.7420
 111   2.0000      -0.646300       -17.5867
 112   2.0000      -0.645711       -17.5707
 113   2.0000      -0.637796       -17.3553
 114   2.0000      -0.635777       -17.3004
 115   2.0000      -0.628750       -17.1092
 116   2.0000      -0.623315       -16.9613
 117   2.0000      -0.620737       -16.8911
 118   2.0000      -0.612928       -16.6786
 119   2.0000      -0.612358       -16.6631
 120   2.0000      -0.611538       -16.6408
 121   2.0000      -0.611432       -16.6379
 122   2.0000      -0.601627       -16.3711
 123   2.0000      -0.588881       -16.0243
 124   2.0000      -0.581475       -15.8227
 125   2.0000      -0.580837       -15.8054
 126   2.0000      -0.580163       -15.7870
 127   2.0000      -0.571239       -15.5442
 128   2.0000      -0.567125       -15.4323
 129   2.0000      -0.560092       -15.2409
 130   2.0000      -0.555029       -15.1031
 131   2.0000      -0.547927       -14.9099
 132   2.0000      -0.542728       -14.7684
 133   2.0000      -0.540357       -14.7039
 134   2.0000      -0.538314       -14.6483
 135   2.0000      -0.536504       -14.5990
 136   2.0000      -0.531589       -14.4653
 137   2.0000      -0.518555       -14.1106
 138   2.0000      -0.516438       -14.0530
 139   2.0000      -0.514800       -14.0084
 140   2.0000      -0.512288       -13.9401
 141   2.0000      -0.509985       -13.8774
 142   2.0000      -0.507474       -13.8091
 143   2.0000      -0.505457       -13.7542
 144   2.0000      -0.502617       -13.6769
 145   2.0000      -0.495666       -13.4878
 146   2.0000      -0.488314       -13.2877
 147   2.0000      -0.481197       -13.0940
 148   2.0000      -0.477151       -12.9839
 149   2.0000      -0.467834       -12.7304
 150   2.0000      -0.466349       -12.6900
 151   2.0000      -0.456699       -12.4274
 152   2.0000      -0.451820       -12.2946
 153   2.0000      -0.444931       -12.1072
 154   2.0000      -0.438098       -11.9212
 155   2.0000      -0.427567       -11.6347
 156   2.0000      -0.409520       -11.1436
 157   2.0000      -0.393723       -10.7138
 158   2.0000      -0.390098       -10.6151
 159   2.0000      -0.387737       -10.5509
 160   2.0000      -0.378642       -10.3034
 161   2.0000      -0.372990       -10.1496
 162   2.0000      -0.362390        -9.8611
 163   2.0000      -0.356770        -9.7082
 164   2.0000      -0.355729        -9.6799
 165   2.0000      -0.342147        -9.3103
 166   2.0000      -0.337612        -9.1869
 167   2.0000      -0.324445        -8.8286
 168   2.0000      -0.321442        -8.7469
 169   2.0000      -0.305074        -8.3015
 170   2.0000      -0.299459        -8.1487
 171   2.0000      -0.285763        -7.7760
 172   2.0000      -0.278497        -7.5783
 173   2.0000      -0.263849        -7.1797
 174   2.0000      -0.241847        -6.5810
 175   2.0000      -0.189963        -5.1692
 176   2.0000      -0.181233        -4.9316
 177   2.0000      -0.079790        -2.1712
 178   2.0000      -0.059784        -1.6268
 179   0.0000       0.028391         0.7725
 180   0.0000       0.065334         1.7778
 181   0.0000       0.090149         2.4531
 182   0.0000       0.106143         2.8883
 183   0.0000       0.116247         3.1632

MULLIKEN ATOMIC CHARGES
-----------------------
   0 C :    0.221238
   1 N :   -0.455057
   2 C :   -0.071533
   3 N :   -0.341555
   4 C :   -0.085793
   5 N :   -0.568558
   6 C :   -0.097798
   7 N :   -0.341027
   8 C :    0.213943
   9 N :   -0.562176
  10 C :    0.119777
  11 N :   -0.438715
  12 C :   -0.052429
  13 N :   -0.429311
  14 C :    0.218063
  15 N :   -0.440655
  16 C :    0.232257
  17 C :   -0.113877
  18 C :   -0.180380
  19 C :    0.213908
  20 C :    0.213252
  21 C :   -0.051954
  22 C :   -0.091213
  23 C :   -0.039531
  24 C :    0.192953
  25 C :    0.114758
  26 C :   -0.088208
  27 C :    0.217747
  28 C :   -0.061948
  29 C :   -0.182480
  30 C :    0.245907
  31 C :    0.229982
  32 C :   -0.061701
  33 C :   -0.059940
  34 C :   -0.051673
  35 C :    0.229231
  36 C :    0.108175
  37 C :   -0.064368
  38 C :    0.230612
  39 C :   -0.057226
  40 C :   -0.181667
  41 C :    0.226514
  42 C :    0.197641
  43 C :   -0.072407
  44 C :   -0.088988
  45 C :   -0.061659
  46 C :    0.212476
  47 C :    0.115188
  48 C :   -0.066445
  49 C :    0.238711
  50 C :   -0.046023
  51 C :   -0.192683
  52 H :    0.034992
  53 H :   -0.018281
  54 H :    0.049662
  55 H :    0.033019
  56 H :    0.049349
  57 H :    0.047483
  58 H :    0.046461
  59 H :   -0.015735
  60 H :    0.042976
  61 H :    0.171198
  62 H :    0.175396
  63 H :    0.054818
  64 H :   -0.040663
  65 H :    0.046785
  66 H :    0.055149
  67 H :    0.062039
  68 H :    0.056953
  69 H :    0.056042
  70 H :   -0.030672
  71 H :    0.044313
  72 H :    0.071506
  73 H :   -0.007916
  74 H :    0.060565
  75 H :    0.071004
  76 H :    0.075114
  77 H :    0.068146
  78 H :    0.067499
  79 H :   -0.016889
  80 H :    0.061584
  81 H :    0.054824
  82 H :   -0.024765
  83 H :    0.042384
  84 H :    0.054707
  85 H :    0.061320
  86 H :    0.055837
  87 H :    0.057536
  88 H :   -0.014360
  89 H :    0.047265
Sum of atomic charges:   -0.0000000

LOEWDIN ATOMIC CHARGES
----------------------
   0 C :   -0.016915
   1 N :    0.122169
   2 C :   -0.100218
   3 N :    0.182365
   4 C :   -0.010894
   5 N :   -0.134678
   6 C :   -0.013743
   7 N :    0.174988
   8 C :   -0.022732
   9 N :   -0.140605
  10 C :    0.023022
  11 N :    0.141207
  12 C :   -0.101304
  13 N :    0.166566
  14 C :   -0.015552
  15 N :    0.139555
  16 C :   -0.061320
  17 C :   -0.031316
  18 C :   -0.113485
  19 C :   -0.073511
  20 C :    0.004217
  21 C :   -0.097690
  22 C :    0.036238
  23 C :   -0.014635
  24 C :   -0.013546
  25 C :    0.029642
  26 C :   -0.107960
  27 C :   -0.117048
  28 C :   -0.028021
  29 C :   -0.099847
  30 C :   -0.029354
  31 C :    0.024226
  32 C :   -0.094620
  33 C :    0.082578
  34 C :   -0.015399
  35 C :    0.023910
  36 C :    0.035314
  37 C :   -0.094027
  38 C :   -0.053046
  39 C :   -0.017243
  40 C :   -0.108911
  41 C :   -0.090347
  42 C :   -0.009955
  43 C :   -0.099077
  44 C :    0.034898
  45 C :   -0.028113
  46 C :    0.002932
  47 C :    0.029681
  48 C :   -0.094334
  49 C :   -0.069307
  50 C :   -0.018344
  51 C :   -0.108102
  52 H :    0.022399
  53 H :    0.002454
  54 H :   -0.015977
  55 H :    0.021865
  56 H :    0.022023
  57 H :    0.026238
  58 H :    0.026511
  59 H :    0.003437
  60 H :   -0.000317
  61 H :    0.060235
  62 H :    0.061853
  63 H :    0.030523
  64 H :   -0.002916
  65 H :    0.045768
  66 H :    0.029006
  67 H :    0.028025
  68 H :    0.031497
  69 H :    0.030141
  70 H :   -0.004969
  71 H :    0.043257
  72 H :    0.037786
  73 H :    0.007182
  74 H :    0.050725
  75 H :    0.037537
  76 H :    0.034908
  77 H :    0.036257
  78 H :    0.035962
  79 H :    0.002828
  80 H :    0.050894
  81 H :    0.029280
  82 H :   -0.002690
  83 H :    0.042689
  84 H :    0.030138
  85 H :    0.027611
  86 H :    0.030322
  87 H :    0.031555
  88 H :    0.002452
  89 H :    0.045200

  Mayer bond orders larger than 0.100000
B(  0-C ,  1-N ) :   1.1024 B(  0-C , 17-C ) :   1.7154 B(  0-C , 52-H ) :   0.9615
B(  1-N ,  8-C ) :   1.0903 B(  1-N , 10-C ) :   0.9772 B(  2-C , 12-C ) :   1.4882
B(  2-C , 16-C ) :   1.3734 B(  2-C , 53-H ) :   0.9718 B(  3-N , 14-C ) :   1.2231
B(  3-N , 16-C ) :   1.1788 B(  3-N , 61-H ) :   0.8984 B(  4-C ,  6-C ) :   1.2208
B(  4-C , 17-C ) :   1.2221 B(  4-C , 18-C ) :   1.4788 B(  5-N , 19-C ) :   1.4618
B(  5-N , 27-C ) :   1.3694 B(  6-C ,  8-C ) :   1.7299 B(  6-C , 54-H ) :   0.8559
B(  7-N , 30-C ) :   1.1957 B(  7-N , 38-C ) :   1.1890 B(  7-N , 62-H ) :   0.8968
B(  8-C , 55-H ) :   0.9610 B(  9-N , 41-C ) :   1.3953 B(  9-N , 49-C ) :   1.4240
B( 10-C , 56-H ) :   0.9777 B( 10-C , 57-H ) :   0.9823 B( 10-C , 58-H ) :   0.9839
B( 11-N , 20-C ) :   1.1304 B( 11-N , 24-C ) :   1.1057 B( 11-N , 25-C ) :   0.9607
B( 12-C , 14-C ) :   1.3581 B( 12-C , 59-H ) :   0.9241 B( 13-N , 31-C ) :   1.1613
B( 13-N , 35-C ) :   1.1614 B( 13-N , 36-C ) :   0.9411 B( 14-C , 18-C ) :   1.1183
B( 15-N , 42-C ) :   1.1085 B( 15-N , 46-C ) :   1.1258 B( 15-N , 47-C ) :   0.9607
B( 16-C , 51-C ) :   1.1682 B( 17-C , 60-H ) :   0.8877 B( 18-C , 19-C ) :   1.1159
B( 19-C , 21-C ) :   1.2552 B( 20-C , 28-C ) :   1.6299 B( 20-C , 63-H ) :   0.9703
B( 21-C , 26-C ) :   1.5753 B( 21-C , 64-H ) :   0.8934 B( 22-C , 23-C ) :   1.2884
B( 22-C , 28-C ) :   1.2626 B( 22-C , 29-C ) :   1.2282 B( 23-C , 24-C ) :   1.6215
B( 23-C , 65-H ) :   0.9703 B( 24-C , 66-H ) :   0.9696 B( 25-C , 67-H ) :   0.9761
B( 25-C , 68-H ) :   0.9828 B( 25-C , 69-H ) :   0.9824 B( 26-C , 27-C ) :   1.2668
B( 26-C , 70-H ) :   0.9664 B( 27-C , 29-C ) :   1.2044 B( 28-C , 71-H ) :   0.9720
B( 29-C , 30-C ) :   1.2470 B( 30-C , 32-C ) :   1.2790 B( 31-C , 39-C ) :   1.5872
B( 31-C , 72-H ) :   0.9681 B( 32-C , 37-C ) :   1.5795 B( 32-C , 73-H ) :   0.9787
B( 33-C , 34-C ) :   1.3067 B( 33-C , 39-C ) :   1.3049 B( 33-C , 40-C ) :   1.1758
B( 34-C , 35-C ) :   1.5852 B( 34-C , 74-H ) :   0.9696 B( 35-C , 75-H ) :   0.9681
B( 36-C , 76-H ) :   0.9768 B( 36-C , 77-H ) :   0.9816 B( 36-C , 78-H ) :   0.9823
B( 37-C , 38-C ) :   1.2854 B( 37-C , 79-H ) :   0.9764 B( 38-C , 40-C ) :   1.2338
B( 39-C , 80-H ) :   0.9705 B( 40-C , 41-C ) :   1.2509 B( 41-C , 43-C ) :   1.1833
B( 42-C , 50-C ) :   1.6316 B( 42-C , 81-H ) :   0.9696 B( 43-C , 48-C ) :   1.6698
B( 43-C , 82-H ) :   0.9721 B( 44-C , 45-C ) :   1.2644 B( 44-C , 50-C ) :   1.2738
B( 44-C , 51-C ) :   1.2582 B( 45-C , 46-C ) :   1.6333 B( 45-C , 83-H ) :   0.9718
B( 46-C , 84-H ) :   0.9699 B( 47-C , 85-H ) :   0.9762 B( 47-C , 86-H ) :   0.9829
B( 47-C , 87-H ) :   0.9824 B( 48-C , 49-C ) :   1.1867 B( 48-C , 88-H ) :   0.9748
B( 49-C , 51-C ) :   1.2466 B( 50-C , 89-H ) :   0.9708 B( 54-H , 64-H ) :   0.1284

MP2 TOTAL ENERGY:    -2130.759876761 Eh
FINAL SINGLE POINT ENERGY     -2130.759876760916

DIPOLE MOMENT
-------------
                                X             Y             Z
Electronic contribution:      2.96881      -4.24007      -0.09277
Nuclear contribution   :     -0.04281       0.15825       0.10934
                        -----------------------------------------
Total Dipole Moment    :      2.92601      -4.08183       0.01657
                        -----------------------------------------
Magnitude (a.u.)       :      5.02226
Magnitude (Debye)      :     12.76557

Rotational constants in cm-1:     0.001503     0.001478     0.000760
Rotational constants in MHz :    45.069106    44.299506    22.782513

                             ****ORCA TERMINATED NORMALLY****
TOTAL RUN TIME: 0 days 1 hours 12 minutes 49 seconds 596 msec
