                         Program Version 5.0.4 -  RELEASE  -
|  1> ! PAL2
|  2> ! mp2 cc-pvdz TightSCF  NoKeepInts
|  3>
|  4> %scf
|  5>   MaxCore 2000
|  6> end
|  7> %mp2
|  8>   MaxCore 2000
|  9> end
| 10> * xyz 0 1
| 11>    C       -3.99700         5.86000        -1.07900
| 12>    C        1.47400         4.04100         0.05700
| 13>    C       -2.80200         4.09300         0.04900
| 14>    C       -3.19200         4.67500         1.26500
| 15>    C       -3.96700         5.81800         1.27000
| 16>    C       -5.21700         7.59800         0.14800
| 17>    C        0.13200         4.30700         0.06100
| 18>    C       -0.56900         3.05600         0.04700
| 19>    C        1.64900         2.61800         0.02300
| 20>    C       -3.22800         4.71400        -1.13500
| 21>    N       -4.35600         6.39600         0.10900
| 22>    N        0.38800         2.06700         0.02500
| 23>    N       -2.01000         0.39500        -0.07500
| 24>    N       -0.38800        -2.07400        -0.02700
| 25>    N        2.01000        -0.40100         0.06500
| 26>    C       -1.96000         2.86100         0.02400
| 27>    C       -2.62300         1.61500        -0.01800
| 28>    C       -5.57300        -4.32900         1.06600
| 29>    C       -4.07300         1.47100         0.05600
| 30>    C       -4.10600        -2.75600        -0.02600
| 31>    C       -4.99500        -2.75700        -1.11100
| 32>    C       -6.13200        -3.54200        -1.07600
| 33>    C       -7.65100        -5.11300         0.04000
| 34>    C       -4.32400         0.14100         0.03700
| 35>    C       -3.02500        -0.52000        -0.04800
| 36>    C       -4.42200        -3.56600         1.07500
| 37>    N       -6.40700        -4.31300         0.00100
| 38>    C       -2.86700        -1.92200        -0.04000
| 39>    C       -1.65000        -2.62400        -0.02700
| 40>    C        3.56800        -6.14200        -1.04000
| 41>    C       -1.47600        -4.04900        -0.03400
| 42>    C        2.80300        -4.09900        -0.00800
| 43>    C        3.65700        -4.38400         1.06900
| 44>    C        4.42700        -5.53000         1.05900
| 45>    C        5.24500        -7.58800         0.01400
| 46>    C       -0.13400        -4.31500        -0.02200
| 47>    C        0.56800        -3.06400        -0.02700
| 48>    C        2.77500        -5.01200        -1.07400
| 49>    N        4.37600        -6.39100         0.01700
| 50>    C        1.95900        -2.86900        -0.00900
| 51>    C        2.62100        -1.62200         0.00900
| 52>    C        5.54300         4.33900        -1.13000
| 53>    C        4.07000        -1.47900        -0.09400
| 54>    C        4.10400         2.75100        -0.02100
| 55>    C        5.02700         2.72900         1.03600
| 56>    C        6.16600         3.50900         0.97800
| 57>    C        7.61900         5.15300        -0.11500
| 58>    C        4.32100        -0.14800        -0.09200
| 59>    C        3.02500         0.51400         0.01500
| 60>    C        4.38700         3.58200        -1.11500
| 61>    C        2.86600         1.91600         0.01300
| 62>    N        6.41300         4.29600        -0.09500
| 63>    H       -4.33800         6.37900        -1.96700
| 64>    H        2.27400         4.76600         0.08100
| 65>    H       -2.90300         4.23700         2.21300
| 66>    H       -4.29900         6.29700         2.18100
| 67>    H       -6.26100         7.28500         0.22100
| 68>    H       -4.94400         8.19800         1.01600
| 69>    H       -5.06100         8.17100        -0.76500
| 70>    H       -0.33200         5.28200         0.06900
| 71>    H       -2.94800         4.32100        -2.10600
| 72>    H        0.18200         1.07200         0.00500
| 73>    H       -0.18300        -1.08000        -0.02100
| 74>    H       -5.86400        -4.96200         1.89500
| 75>    H       -4.79400         2.27200         0.13900
| 76>    H       -4.80000        -2.16000        -1.99400
| 77>    H       -6.84100        -3.58200        -1.89300
| 78>    H       -8.42800        -4.53600         0.54600
| 79>    H       -7.95600        -5.33700        -0.98100
| 80>    H       -7.45600        -6.03700         0.58400
| 81>    H       -5.28700        -0.34400         0.10000
| 82>    H       -3.78000        -3.60100         1.94700
| 83>    H        3.58700        -6.86800        -1.84300
| 84>    H       -2.27600        -4.77400        -0.05000
| 85>    H        3.71400        -3.72400         1.92600
| 86>    H        5.09200        -5.79500         1.87100
| 87>    H        6.20500        -7.32900        -0.43900
| 88>    H        5.39300        -7.91700         1.04200
| 89>    H        4.75900        -8.37300        -0.56400
| 90>    H        0.32900        -5.29000        -0.00800
| 91>    H        2.14600        -4.84200        -1.94000
| 92>    H        5.80800         4.98600        -1.95600
| 93>    H        4.78800        -2.28100        -0.18500
| 94>    H        4.86000         2.11400         1.91200
| 95>    H        6.90100         3.53100         1.77200
| 96>    H        7.38300         6.10900         0.35600
| 97>    H        8.41400         4.65200         0.43500
| 98>    H        7.92100         5.31000        -1.15000
| 99>    H        5.28300         0.33600        -0.17900
|100>    H        3.72000         3.63200        -1.96700
|101> *
|102>
|103>                          ****END OF INPUT****

CARTESIAN COORDINATES (ANGSTROEM)
---------------------------------
  C     -3.997000    5.860000   -1.079000
  C      1.474000    4.041000    0.057000
  C     -2.802000    4.093000    0.049000
  C     -3.192000    4.675000    1.265000
  C     -3.967000    5.818000    1.270000
  C     -5.217000    7.598000    0.148000
  C      0.132000    4.307000    0.061000
  C     -0.569000    3.056000    0.047000
  C      1.649000    2.618000    0.023000
  C     -3.228000    4.714000   -1.135000
  N     -4.356000    6.396000    0.109000
  N      0.388000    2.067000    0.025000
  N     -2.010000    0.395000   -0.075000
  N     -0.388000   -2.074000   -0.027000
  N      2.010000   -0.401000    0.065000
  C     -1.960000    2.861000    0.024000
  C     -2.623000    1.615000   -0.018000
  C     -5.573000   -4.329000    1.066000
  C     -4.073000    1.471000    0.056000
  C     -4.106000   -2.756000   -0.026000
  C     -4.995000   -2.757000   -1.111000
  C     -6.132000   -3.542000   -1.076000
  C     -7.651000   -5.113000    0.040000
  C     -4.324000    0.141000    0.037000
  C     -3.025000   -0.520000   -0.048000
  C     -4.422000   -3.566000    1.075000
  N     -6.407000   -4.313000    0.001000
  C     -2.867000   -1.922000   -0.040000
  C     -1.650000   -2.624000   -0.027000
  C      3.568000   -6.142000   -1.040000
  C     -1.476000   -4.049000   -0.034000
  C      2.803000   -4.099000   -0.008000
  C      3.657000   -4.384000    1.069000
  C      4.427000   -5.530000    1.059000
  C      5.245000   -7.588000    0.014000
  C     -0.134000   -4.315000   -0.022000
  C      0.568000   -3.064000   -0.027000
  C      2.775000   -5.012000   -1.074000
  N      4.376000   -6.391000    0.017000
  C      1.959000   -2.869000   -0.009000
  C      2.621000   -1.622000    0.009000
  C      5.543000    4.339000   -1.130000
  C      4.070000   -1.479000   -0.094000
  C      4.104000    2.751000   -0.021000
  C      5.027000    2.729000    1.036000
  C      6.166000    3.509000    0.978000
  C      7.619000    5.153000   -0.115000
  C      4.321000   -0.148000   -0.092000
  C      3.025000    0.514000    0.015000
  C      4.387000    3.582000   -1.115000
  C      2.866000    1.916000    0.013000
  N      6.413000    4.296000   -0.095000
  H     -4.338000    6.379000   -1.967000
  H      2.274000    4.766000    0.081000
  H     -2.903000    4.237000    2.213000
  H     -4.299000    6.297000    2.181000
  H     -6.261000    7.285000    0.221000
  H     -4.944000    8.198000    1.016000
  H     -5.061000    8.171000   -0.765000
  H     -0.332000    5.282000    0.069000
  H     -2.948000    4.321000   -2.106000
  H      0.182000    1.072000    0.005000
  H     -0.183000   -1.080000   -0.021000
  H     -5.864000   -4.962000    1.895000
  H     -4.794000    2.272000    0.139000
  H     -4.800000   -2.160000   -1.994000
  H     -6.841000   -3.582000   -1.893000
  H     -8.428000   -4.536000    0.546000
  H     -7.956000   -5.337000   -0.981000
  H     -7.456000   -6.037000    0.584000
  H     -5.287000   -0.344000    0.100000
  H     -3.780000   -3.601000    1.947000
  H      3.587000   -6.868000   -1.843000
  H     -2.276000   -4.774000   -0.050000
  H      3.714000   -3.724000    1.926000
  H      5.092000   -5.795000    1.871000
  H      6.205000   -7.329000   -0.439000
  H      5.393000   -7.917000    1.042000
  H      4.759000   -8.373000   -0.564000
  H      0.329000   -5.290000   -0.008000
  H      2.146000   -4.842000   -1.940000
  H      5.808000    4.986000   -1.956000
  H      4.788000   -2.281000   -0.185000
  H      4.860000    2.114000    1.912000
  H      6.901000    3.531000    1.772000
  H      7.383000    6.109000    0.356000
  H      8.414000    4.652000    0.435000
  H      7.921000    5.310000   -1.150000
  H      5.283000    0.336000   -0.179000
  H      3.720000    3.632000   -1.967000

 Total Charge           Charge          ....    0
 Multiplicity           Mult            ....    1
 Number of Electrons    NEL             ....  358
 Basis Dimension        Dim             ....  918

ORBITAL ENERGIES
----------------

  NO   OCC          E(Eh)            E(eV)
   0   2.0000     -15.720506      -427.7767
   1   2.0000     -15.628366      -425.2695
   2   2.0000     -15.618318      -424.9960
   3   2.0000     -15.576137      -423.8482
   4   2.0000     -15.520717      -422.3402
   5   2.0000     -15.504082      -421.8875
   6   2.0000     -15.451438      -420.4550
   7   2.0000     -15.426634      -419.7801
   8   2.0000     -11.358427      -309.0785
   9   2.0000     -11.356325      -309.0213
  10   2.0000     -11.350386      -308.8597
  11   2.0000     -11.314083      -307.8718
  12   2.0000     -11.296322      -307.3886
  13   2.0000     -11.290621      -307.2334
  14   2.0000     -11.289447      -307.2015
  15   2.0000     -11.286850      -307.1308
  16   2.0000     -11.286819      -307.1300
  17   2.0000     -11.281296      -306.9797
  18   2.0000     -11.280275      -306.9519
  19   2.0000     -11.271020      -306.7000
  20   2.0000     -11.262893      -306.4789
  21   2.0000     -11.242770      -305.9313
  22   2.0000     -11.239027      -305.8295
  23   2.0000     -11.232130      -305.6418
  24   2.0000     -11.226721      -305.4946
  25   2.0000     -11.225817      -305.4700
  26   2.0000     -11.222632      -305.3833
  27   2.0000     -11.218729      -305.2771
  28   2.0000     -11.218434      -305.2691
  29   2.0000     -11.211369      -305.0769
  30   2.0000     -11.209531      -305.0268
  31   2.0000     -11.195674      -304.6498
  32   2.0000     -11.194526      -304.6185
  33   2.0000     -11.193337      -304.5862
  34   2.0000     -11.187908      -304.4385
  35   2.0000     -11.187154      -304.4179
  36   2.0000     -11.182740      -304.2978
  37   2.0000     -11.179799      -304.2178
  38   2.0000     -11.179668      -304.2142
  39   2.0000     -11.178072      -304.1708
  40   2.0000     -11.170467      -303.9639
  41   2.0000     -11.165323      -303.8239
  42   2.0000     -11.164726      -303.8077
  43   2.0000     -11.162078      -303.7356
  44   2.0000     -11.160456      -303.6915
  45   2.0000     -11.144279      -303.2512
  46   2.0000     -11.143655      -303.2343
  47   2.0000     -11.140660      -303.1528
  48   2.0000     -11.137081      -303.0554
  49   2.0000     -11.130694      -302.8816
  50   2.0000     -11.116314      -302.4903
  51   2.0000     -11.110604      -302.3349
  52   2.0000      -1.392125       -37.8816
  53   2.0000      -1.316635       -35.8274
  54   2.0000      -1.307358       -35.5750
  55   2.0000      -1.271479       -34.5987
  56   2.0000      -1.224551       -33.3217
  57   2.0000      -1.200145       -32.6576
  58   2.0000      -1.178487       -32.0683
  59   2.0000      -1.165417       -31.7126
  60   2.0000      -1.136597       -30.9284
  61   2.0000      -1.109735       -30.1974
  62   2.0000      -1.105981       -30.0953
  63   2.0000      -1.097138       -29.8547
  64   2.0000      -1.065725       -28.9998
  65   2.0000      -1.057856       -28.7857
  66   2.0000      -1.041104       -28.3299
  67   2.0000      -1.032313       -28.0907
  68   2.0000      -1.015298       -27.6277
  69   2.0000      -1.003899       -27.3175
  70   2.0000      -0.998723       -27.1766
  71   2.0000      -0.995157       -27.0796
  72   2.0000      -0.985571       -26.8187
  73   2.0000      -0.975949       -26.5569
  74   2.0000      -0.964476       -26.2447
  75   2.0000      -0.961351       -26.1597
  76   2.0000      -0.950747       -25.8712
  77   2.0000      -0.940347       -25.5881
  78   2.0000      -0.935635       -25.4599
  79   2.0000      -0.919517       -25.0213
  80   2.0000      -0.912073       -24.8188
  81   2.0000      -0.891296       -24.2534
  82   2.0000      -0.886823       -24.1317
  83   2.0000      -0.868224       -23.6256
  84   2.0000      -0.859841       -23.3975
  85   2.0000      -0.846283       -23.0285
  86   2.0000      -0.828964       -22.5573
  87   2.0000      -0.826220       -22.4826
  88   2.0000      -0.820073       -22.3153
  89   2.0000      -0.794280       -21.6135
  90   2.0000      -0.785684       -21.3795
  91   2.0000      -0.772517       -21.0212
  92   2.0000      -0.740638       -20.1538
  93   2.0000      -0.733556       -19.9611
  94   2.0000      -0.728906       -19.8345
  95   2.0000      -0.724238       -19.7075
  96   2.0000      -0.716285       -19.4911
  97   2.0000      -0.710030       -19.3209
  98   2.0000      -0.707529       -19.2528
  99   2.0000      -0.704702       -19.1759
 100   2.0000      -0.695812       -18.9340
 101   2.0000      -0.688190       -18.7266
 102   2.0000      -0.684046       -18.6138
 103   2.0000      -0.675608       -18.3842
 104   2.0000      -0.672342       -18.2954
 105   2.0000      -0.671488       -18.2721
 106   2.0000      -0.666691       -18.1416
 107   2.0000      -0.661563       -18.0020
 108   2.0000      -0.652059       -17.7434
 109   2.0000      -0.648858       -17.6563
 110   2.0000      -0.648392       -17.6436
 111   2.0000      -0.641857       -17.4658
 112   2.0000      -0.640428       -17.4269
 113   2.0000      -0.634976       -17.2786
 114   2.0000      -0.633784       -17.2461
 115   2.0000      -0.629148       -17.1200
 116   2.0000      -0.627050       -17.0629
 117   2.0000      -0.614627       -16.7249
 118   2.0000      -0.610789       -16.6204
 119   2.0000      -0.608827       -16.5670
 120   2.0000      -0.608312       -16.5530
 121   2.0000      -0.600501       -16.3405
 122   2.0000      -0.592738       -16.1292
 123   2.0000      -0.589177       -16.0323
 124   2.0000      -0.584104       -15.8943
 125   2.0000      -0.578137       -15.7319
 126   2.0000      -0.574663       -15.6374
 127   2.0000      -0.571226       -15.5438
 128   2.0000      -0.570508       -15.5243
 129   2.0000      -0.569500       -15.4969
 130   2.0000      -0.556290       -15.1374
 131   2.0000      -0.542802       -14.7704
 132   2.0000      -0.542007       -14.7487
 133   2.0000      -0.538284       -14.6474
 134   2.0000      -0.533494       -14.5171
 135   2.0000      -0.529134       -14.3985
 136   2.0000      -0.519459       -14.1352
 137   2.0000      -0.515590       -14.0299
 138   2.0000      -0.513737       -13.9795
 139   2.0000      -0.512015       -13.9326
 140   2.0000      -0.509718       -13.8701
 141   2.0000      -0.503308       -13.6957
 142   2.0000      -0.501103       -13.6357
 143   2.0000      -0.497409       -13.5352
 144   2.0000      -0.495296       -13.4777
 145   2.0000      -0.492643       -13.4055
 146   2.0000      -0.488393       -13.2899
 147   2.0000      -0.473128       -12.8745
 148   2.0000      -0.469979       -12.7888
 149   2.0000      -0.465825       -12.6757
 150   2.0000      -0.462883       -12.5957
 151   2.0000      -0.460007       -12.5174
 152   2.0000      -0.451949       -12.2981
 153   2.0000      -0.440833       -11.9957
 154   2.0000      -0.432586       -11.7713
 155   2.0000      -0.430854       -11.7241
 156   2.0000      -0.418479       -11.3874
 157   2.0000      -0.416596       -11.3361
 158   2.0000      -0.410936       -11.1821
 159   2.0000      -0.410247       -11.1634
 160   2.0000      -0.381479       -10.3806
 161   2.0000      -0.369263       -10.0482
 162   2.0000      -0.353269        -9.6129
 163   2.0000      -0.351626        -9.5682
 164   2.0000      -0.345443        -9.4000
 165   2.0000      -0.341750        -9.2995
 166   2.0000      -0.337877        -9.1941
 167   2.0000      -0.316668        -8.6170
 168   2.0000      -0.311700        -8.4818
 169   2.0000      -0.305049        -8.3008
 170   2.0000      -0.298095        -8.1116
 171   2.0000      -0.282385        -7.6841
 172   2.0000      -0.275413        -7.4944
 173   2.0000      -0.266624        -7.2552
 174   2.0000      -0.228690        -6.2230
 175   2.0000      -0.182924        -4.9776
 176   2.0000      -0.173116        -4.7107
 177   2.0000      -0.062671        -1.7054
 178   2.0000      -0.050786        -1.3819
 179   0.0000       0.036256         0.9866
 180   0.0000       0.054155         1.4736
 181   0.0000       0.073150         1.9905
 182   0.0000       0.098694         2.6856
 183   0.0000       0.102313         2.7841

MULLIKEN ATOMIC CHARGES
-----------------------
   0 C :    0.239372
   1 N :   -0.409622
   2 C :   -0.066382
   3 N :   -0.344397
   4 C :   -0.066450
   5 N :   -0.566180
   6 C :   -0.024517
   7 N :   -0.336799
   8 C :    0.234393
   9 N :   -0.566472
  10 C :    0.102810
  11 N :   -0.440213
  12 C :   -0.057892
  13 N :   -0.452026
  14 C :    0.218729
  15 N :   -0.441870
  16 C :    0.258424
  17 C :   -0.032894
  18 C :   -0.174150
  19 C :    0.229818
  20 C :    0.185631
  21 C :   -0.066787
  22 C :   -0.092387
  23 C :   -0.069453
  24 C :    0.217766
  25 C :    0.115198
  26 C :   -0.064803
  27 C :    0.250180
  28 C :   -0.038681
  29 C :   -0.197706
  30 C :    0.219293
  31 C :    0.185907
  32 C :   -0.064153
  33 C :   -0.104457
  34 C :   -0.050412
  35 C :    0.175980
  36 C :    0.121672
  37 C :   -0.071011
  38 C :    0.245394
  39 C :   -0.065846
  40 C :   -0.205854
  41 C :    0.215699
  42 C :    0.212736
  43 C :   -0.077851
  44 C :   -0.092940
  45 C :   -0.036905
  46 C :    0.181764
  47 C :    0.116952
  48 C :   -0.082820
  49 C :    0.205797
  50 C :   -0.069152
  51 C :   -0.188696
  52 H :    0.084622
  53 H :   -0.006033
  54 H :    0.069889
  55 H :    0.082605
  56 H :    0.087429
  57 H :    0.078104
  58 H :    0.076004
  59 H :   -0.030110
  60 H :    0.068832
  61 H :    0.177607
  62 H :    0.167266
  63 H :    0.051784
  64 H :   -0.035996
  65 H :    0.039508
  66 H :    0.054060
  67 H :    0.057233
  68 H :    0.055404
  69 H :    0.058615
  70 H :   -0.012007
  71 H :    0.045984
  72 H :    0.035583
  73 H :   -0.019544
  74 H :    0.027647
  75 H :    0.034203
  76 H :    0.044639
  77 H :    0.044866
  78 H :    0.044108
  79 H :   -0.011465
  80 H :    0.027357
  81 H :    0.049734
  82 H :   -0.023081
  83 H :    0.042372
  84 H :    0.048580
  85 H :    0.053498
  86 H :    0.056211
  87 H :    0.054044
  88 H :   -0.031323
  89 H :    0.038035
Sum of atomic charges:    0.0000000

LOEWDIN ATOMIC CHARGES
----------------------
   0 C :    0.043490
   1 N :    0.198581
   2 C :   -0.098042
   3 N :    0.170311
   4 C :    0.126168
   5 N :   -0.148905
   6 C :   -0.008560
   7 N :    0.177427
   8 C :    0.039879
   9 N :   -0.138398
  10 C :    0.041059
  11 N :    0.137995
  12 C :   -0.095822
  13 N :    0.110753
  14 C :   -0.062966
  15 N :    0.133832
  16 C :   -0.013995
  17 C :   -0.012776
  18 C :   -0.122206
  19 C :   -0.089193
  20 C :   -0.021056
  21 C :   -0.098507
  22 C :    0.030588
  23 C :   -0.035686
  24 C :    0.007468
  25 C :    0.028964
  26 C :   -0.090493
  27 C :   -0.050577
  28 C :   -0.014540
  29 C :   -0.118809
  30 C :   -0.067119
  31 C :   -0.029052
  32 C :   -0.100478
  33 C :   -0.010707
  34 C :   -0.027437
  35 C :   -0.037949
  36 C :    0.022471
  37 C :   -0.111062
  38 C :   -0.027603
  39 C :   -0.035485
  40 C :   -0.113967
  41 C :   -0.093837
  42 C :    0.000984
  43 C :   -0.115358
  44 C :    0.025535
  45 C :   -0.013561
  46 C :   -0.025979
  47 C :    0.027978
  48 C :   -0.115917
  49 C :   -0.120417
  50 C :   -0.034927
  51 C :   -0.108038
  52 H :    0.043394
  53 H :    0.008192
  54 H :    0.057104
  55 H :    0.042620
  56 H :    0.041415
  57 H :    0.040711
  58 H :    0.040256
  59 H :   -0.001007
  60 H :    0.056523
  61 H :    0.062849
  62 H :    0.057417
  63 H :    0.028179
  64 H :   -0.005735
  65 H :    0.041056
  66 H :    0.029577
  67 H :    0.025866
  68 H :    0.030745
  69 H :    0.031070
  70 H :    0.003848
  71 H :    0.045212
  72 H :    0.021185
  73 H :    0.001643
  74 H :    0.037022
  75 H :    0.020151
  76 H :    0.019217
  77 H :    0.025351
  78 H :    0.025043
  79 H :    0.005706
  80 H :    0.036054
  81 H :    0.027738
  82 H :   -0.001356
  83 H :    0.044060
  84 H :    0.026361
  85 H :    0.023909
  86 H :    0.030256
  87 H :    0.029887
  88 H :   -0.005660
  89 H :    0.040081

  Mayer bond orders larger than 0.100000
B(  0-C ,  1-N ) :   1.2170 B(  0-C , 17-C ) :   1.5062 B(  0-C , 52-H ) :   0.9665
B(  1-N ,  8-C ) :   1.2070 B(  1-N , 10-C ) :   0.9235 B(  2-C , 12-C ) :   1.5838
B(  2-C , 16-C ) :   1.2692 B(  2-C , 53-H ) :   0.9794 B(  3-N , 14-C ) :   1.1737
B(  3-N , 16-C ) :   1.2021 B(  3-N , 61-H ) :   0.8951 B(  4-C ,  6-C ) :   1.3647
B(  4-C , 17-C ) :   1.3650 B(  4-C , 18-C ) :   1.0442 B(  5-N , 19-C ) :   1.3628
B(  5-N , 27-C ) :   1.4496 B(  6-C ,  8-C ) :   1.5085 B(  6-C , 54-H ) :   0.9704
B(  7-N , 30-C ) :   1.1832 B(  7-N , 38-C ) :   1.2164 B(  7-N , 62-H ) :   0.9016
B(  8-C , 55-H ) :   0.9675 B(  9-N , 41-C ) :   1.4360 B(  9-N , 49-C ) :   1.3919
B( 10-C , 56-H ) :   0.9767 B( 10-C , 57-H ) :   0.9806 B( 10-C , 58-H ) :   0.9814
B( 11-N , 20-C ) :   1.0948 B( 11-N , 24-C ) :   1.1345 B( 11-N , 25-C ) :   0.9628
B( 12-C , 14-C ) :   1.2696 B( 12-C , 59-H ) :   0.9768 B( 13-N , 31-C ) :   1.0804
B( 13-N , 35-C ) :   1.0697 B( 13-N , 36-C ) :   0.9835 B( 14-C , 18-C ) :   1.2660
B( 15-N , 42-C ) :   1.1265 B( 15-N , 46-C ) :   1.0875 B( 15-N , 47-C ) :   0.9668
B( 16-C , 51-C ) :   1.2515 B( 17-C , 60-H ) :   0.9708 B( 18-C , 19-C ) :   1.3160
B( 19-C , 21-C ) :   1.1596 B( 20-C , 28-C ) :   1.6299 B( 20-C , 63-H ) :   0.9710
B( 21-C , 26-C ) :   1.6852 B( 21-C , 64-H ) :   0.9715 B( 22-C , 23-C ) :   1.2536
B( 22-C , 28-C ) :   1.2797 B( 22-C , 29-C ) :   1.2579 B( 23-C , 24-C ) :   1.6362
B( 23-C , 65-H ) :   0.9723 B( 24-C , 66-H ) :   0.9691 B( 25-C , 67-H ) :   0.9762
B( 25-C , 68-H ) :   0.9834 B( 25-C , 69-H ) :   0.9818 B( 26-C , 27-C ) :   1.1694
B( 26-C , 70-H ) :   0.9758 B( 27-C , 29-C ) :   1.2442 B( 28-C , 71-H ) :   0.9709
B( 29-C , 30-C ) :   1.1734 B( 30-C , 32-C ) :   1.3527 B( 31-C , 39-C ) :   1.6875
B( 31-C , 72-H ) :   0.9709 B( 32-C , 37-C ) :   1.5075 B( 32-C , 73-H ) :   0.9771
B( 33-C , 34-C ) :   1.2305 B( 33-C , 39-C ) :   1.2227 B( 33-C , 40-C ) :   1.3636
B( 34-C , 35-C ) :   1.6861 B( 34-C , 74-H ) :   0.9709 B( 35-C , 75-H ) :   0.9709
B( 36-C , 76-H ) :   0.9755 B( 36-C , 77-H ) :   0.9826 B( 36-C , 78-H ) :   0.9838
B( 37-C , 38-C ) :   1.3458 B( 37-C , 79-H ) :   0.9794 B( 38-C , 40-C ) :   1.1772
B( 39-C , 80-H ) :   0.9721 B( 40-C , 41-C ) :   1.1657 B( 41-C , 43-C ) :   1.2589
B( 42-C , 50-C ) :   1.6429 B( 42-C , 81-H ) :   0.9696 B( 43-C , 48-C ) :   1.5922
B( 43-C , 82-H ) :   0.9757 B( 44-C , 45-C ) :   1.2812 B( 44-C , 50-C ) :   1.2477
B( 44-C , 51-C ) :   1.2468 B( 45-C , 46-C ) :   1.6334 B( 45-C , 83-H ) :   0.9702
B( 46-C , 84-H ) :   0.9710 B( 47-C , 85-H ) :   0.9759 B( 47-C , 86-H ) :   0.9825
B( 47-C , 87-H ) :   0.9830 B( 48-C , 49-C ) :   1.2530 B( 48-C , 88-H ) :   0.9725
B( 49-C , 51-C ) :   1.1872 B( 50-C , 89-H ) :   0.9723

MP2 TOTAL ENERGY:    -2130.869304235 Eh
FINAL SINGLE POINT ENERGY     -2130.869304234721

DIPOLE MOMENT
-------------
                                X             Y             Z
Electronic contribution:     -4.71958       5.58187      -0.15292
Nuclear contribution   :     -0.02645       0.16630       0.20938
                        -----------------------------------------
Total Dipole Moment    :     -4.74603       5.74818       0.05646
                        -----------------------------------------
Magnitude (a.u.)       :      7.45450
Magnitude (Debye)      :     18.94782

Rotational constants in cm-1:     0.001498     0.001472     0.000763
Rotational constants in MHz :    44.900317    44.138333    22.869048

                             ****ORCA TERMINATED NORMALLY****
TOTAL RUN TIME: 0 days 1 hours 16 minutes 6 seconds 347 msec
