                         Program Version 5.0.4 -  RELEASE  -
|  1> ! PAL2
|  2> ! mp2 cc-pvdz TightSCF  NoKeepInts
|  3>
|  4> %scf
|  5>   MaxCore 2000
|  6> end
|  7> %mp2
|  8>   MaxCore 2000
|  9> end
| 10> * xyz 0 1
| 11>    C       -3.70800         6.01100         1.19900
| 12>    C        1.47400         4.04100         0.05700
| 13>    C       -2.80200         4.09300         0.04900
| 14>    C       -3.51800         4.50000        -1.08700
| 15>    C       -4.29700         5.63900        -1.04500
| 16>    C       -5.19800         7.61200         0.08900
| 17>    C        0.13200         4.30700         0.06100
| 18>    C       -0.56900         3.05600         0.04700
| 19>    C        1.64900         2.61800         0.02300
| 20>    C       -2.91200         4.88200         1.20400
| 21>    N       -4.38600         6.37600         0.08700
| 22>    N        0.38800         2.06700         0.02500
| 23>    N       -2.01000         0.39500        -0.07500
| 24>    N       -0.38800        -2.07400        -0.02700
| 25>    N        2.01000        -0.40100         0.06500
| 26>    C       -1.96000         2.86100         0.02400
| 27>    C       -2.62300         1.61500        -0.01800
| 28>    C       -5.57300        -4.32900         1.06600
| 29>    C       -4.07300         1.47100         0.05600
| 30>    C       -4.10600        -2.75600        -0.02600
| 31>    C       -4.99500        -2.75700        -1.11100
| 32>    C       -6.13200        -3.54200        -1.07600
| 33>    C       -7.65100        -5.11300         0.04000
| 34>    C       -4.32400         0.14100         0.03700
| 35>    C       -3.02500        -0.52000        -0.04800
| 36>    C       -4.42200        -3.56600         1.07500
| 37>    N       -6.40700        -4.31300         0.00100
| 38>    C       -2.86700        -1.92200        -0.04000
| 39>    C       -1.65000        -2.62400        -0.02700
| 40>    C        3.56800        -6.14200        -1.04000
| 41>    C       -1.47600        -4.04900        -0.03400
| 42>    C        2.80300        -4.09900        -0.00800
| 43>    C        3.65700        -4.38400         1.06900
| 44>    C        4.42700        -5.53000         1.05900
| 45>    C        5.24500        -7.58800         0.01400
| 46>    C       -0.13400        -4.31500        -0.02200
| 47>    C        0.56800        -3.06400        -0.02700
| 48>    C        2.77500        -5.01200        -1.07400
| 49>    N        4.37600        -6.39100         0.01700
| 50>    C        1.95900        -2.86900        -0.00900
| 51>    C        2.62100        -1.62200         0.00900
| 52>    C        5.54300         4.33900        -1.13000
| 53>    C        4.07000        -1.47900        -0.09400
| 54>    C        4.10400         2.75100        -0.02100
| 55>    C        5.02700         2.72900         1.03600
| 56>    C        6.16600         3.50900         0.97800
| 57>    C        7.61900         5.15300        -0.11500
| 58>    C        4.32100        -0.14800        -0.09200
| 59>    C        3.02500         0.51400         0.01500
| 60>    C        4.38700         3.58200        -1.11500
| 61>    C        2.86600         1.91600         0.01300
| 62>    N        6.41300         4.29600        -0.09500
| 63>    H       -3.83200         6.64300         2.07000
| 64>    H        2.27400         4.76600         0.08100
| 65>    H       -3.46700         3.93800        -2.01200
| 66>    H       -4.85900         5.99700        -1.89700
| 67>    H       -4.58700         8.44000        -0.27700
| 68>    H       -6.06000         7.46700        -0.56200
| 69>    H       -5.53000         7.81300         1.10700
| 70>    H       -0.33200         5.28200         0.06900
| 71>    H       -2.39500         4.61300         2.11800
| 72>    H        0.18200         1.07200         0.00500
| 73>    H       -0.18300        -1.08000        -0.02100
| 74>    H       -5.86400        -4.96200         1.89500
| 75>    H       -4.79400         2.27200         0.13900
| 76>    H       -4.80000        -2.16000        -1.99400
| 77>    H       -6.84100        -3.58200        -1.89300
| 78>    H       -8.42800        -4.53600         0.54600
| 79>    H       -7.95600        -5.33700        -0.98100
| 80>    H       -7.45600        -6.03700         0.58400
| 81>    H       -5.28700        -0.34400         0.10000
| 82>    H       -3.78000        -3.60100         1.94700
| 83>    H        3.58700        -6.86800        -1.84300
| 84>    H       -2.27600        -4.77400        -0.05000
| 85>    H        3.71400        -3.72400         1.92600
| 86>    H        5.09200        -5.79500         1.87100
| 87>    H        6.20500        -7.32900        -0.43900
| 88>    H        5.39300        -7.91700         1.04200
| 89>    H        4.75900        -8.37300        -0.56400
| 90>    H        0.32900        -5.29000        -0.00800
| 91>    H        2.14600        -4.84200        -1.94000
| 92>    H        5.80800         4.98600        -1.95600
| 93>    H        4.78800        -2.28100        -0.18500
| 94>    H        4.86000         2.11400         1.91200
| 95>    H        6.90100         3.53100         1.77200
| 96>    H        7.38300         6.10900         0.35600
| 97>    H        8.41400         4.65200         0.43500
| 98>    H        7.92100         5.31000        -1.15000
| 99>    H        5.28300         0.33600        -0.17900
|100>    H        3.72000         3.63200        -1.96700
|101> *
|102>
|103>                          ****END OF INPUT****

CARTESIAN COORDINATES (ANGSTROEM)
---------------------------------
  C     -3.708000    6.011000    1.199000
  C      1.474000    4.041000    0.057000
  C     -2.802000    4.093000    0.049000
  C     -3.518000    4.500000   -1.087000
  C     -4.297000    5.639000   -1.045000
  C     -5.198000    7.612000    0.089000
  C      0.132000    4.307000    0.061000
  C     -0.569000    3.056000    0.047000
  C      1.649000    2.618000    0.023000
  C     -2.912000    4.882000    1.204000
  N     -4.386000    6.376000    0.087000
  N      0.388000    2.067000    0.025000
  N     -2.010000    0.395000   -0.075000
  N     -0.388000   -2.074000   -0.027000
  N      2.010000   -0.401000    0.065000
  C     -1.960000    2.861000    0.024000
  C     -2.623000    1.615000   -0.018000
  C     -5.573000   -4.329000    1.066000
  C     -4.073000    1.471000    0.056000
  C     -4.106000   -2.756000   -0.026000
  C     -4.995000   -2.757000   -1.111000
  C     -6.132000   -3.542000   -1.076000
  C     -7.651000   -5.113000    0.040000
  C     -4.324000    0.141000    0.037000
  C     -3.025000   -0.520000   -0.048000
  C     -4.422000   -3.566000    1.075000
  N     -6.407000   -4.313000    0.001000
  C     -2.867000   -1.922000   -0.040000
  C     -1.650000   -2.624000   -0.027000
  C      3.568000   -6.142000   -1.040000
  C     -1.476000   -4.049000   -0.034000
  C      2.803000   -4.099000   -0.008000
  C      3.657000   -4.384000    1.069000
  C      4.427000   -5.530000    1.059000
  C      5.245000   -7.588000    0.014000
  C     -0.134000   -4.315000   -0.022000
  C      0.568000   -3.064000   -0.027000
  C      2.775000   -5.012000   -1.074000
  N      4.376000   -6.391000    0.017000
  C      1.959000   -2.869000   -0.009000
  C      2.621000   -1.622000    0.009000
  C      5.543000    4.339000   -1.130000
  C      4.070000   -1.479000   -0.094000
  C      4.104000    2.751000   -0.021000
  C      5.027000    2.729000    1.036000
  C      6.166000    3.509000    0.978000
  C      7.619000    5.153000   -0.115000
  C      4.321000   -0.148000   -0.092000
  C      3.025000    0.514000    0.015000
  C      4.387000    3.582000   -1.115000
  C      2.866000    1.916000    0.013000
  N      6.413000    4.296000   -0.095000
  H     -3.832000    6.643000    2.070000
  H      2.274000    4.766000    0.081000
  H     -3.467000    3.938000   -2.012000
  H     -4.859000    5.997000   -1.897000
  H     -4.587000    8.440000   -0.277000
  H     -6.060000    7.467000   -0.562000
  H     -5.530000    7.813000    1.107000
  H     -0.332000    5.282000    0.069000
  H     -2.395000    4.613000    2.118000
  H      0.182000    1.072000    0.005000
  H     -0.183000   -1.080000   -0.021000
  H     -5.864000   -4.962000    1.895000
  H     -4.794000    2.272000    0.139000
  H     -4.800000   -2.160000   -1.994000
  H     -6.841000   -3.582000   -1.893000
  H     -8.428000   -4.536000    0.546000
  H     -7.956000   -5.337000   -0.981000
  H     -7.456000   -6.037000    0.584000
  H     -5.287000   -0.344000    0.100000
  H     -3.780000   -3.601000    1.947000
  H      3.587000   -6.868000   -1.843000
  H     -2.276000   -4.774000   -0.050000
  H      3.714000   -3.724000    1.926000
  H      5.092000   -5.795000    1.871000
  H      6.205000   -7.329000   -0.439000
  H      5.393000   -7.917000    1.042000
  H      4.759000   -8.373000   -0.564000
  H      0.329000   -5.290000   -0.008000
  H      2.146000   -4.842000   -1.940000
  H      5.808000    4.986000   -1.956000
  H      4.788000   -2.281000   -0.185000
  H      4.860000    2.114000    1.912000
  H      6.901000    3.531000    1.772000
  H      7.383000    6.109000    0.356000
  H      8.414000    4.652000    0.435000
  H      7.921000    5.310000   -1.150000
  H      5.283000    0.336000   -0.179000
  H      3.720000    3.632000   -1.967000

 Total Charge           Charge          ....    0
 Multiplicity           Mult            ....    1
 Number of Electrons    NEL             ....  358
 Basis Dimension        Dim             ....  918

ORBITAL ENERGIES
----------------

  NO   OCC          E(Eh)            E(eV)
   0   2.0000     -15.663330      -426.2209
   1   2.0000     -15.637882      -425.5284
   2   2.0000     -15.626168      -425.2097
   3   2.0000     -15.609502      -424.7561
   4   2.0000     -15.516915      -422.2367
   5   2.0000     -15.512222      -422.1090
   6   2.0000     -15.446829      -420.3296
   7   2.0000     -15.435916      -420.0326
   8   2.0000     -11.316920      -307.9491
   9   2.0000     -11.313902      -307.8669
  10   2.0000     -11.312977      -307.8417
  11   2.0000     -11.301785      -307.5372
  12   2.0000     -11.295354      -307.3622
  13   2.0000     -11.294226      -307.3315
  14   2.0000     -11.291120      -307.2470
  15   2.0000     -11.285137      -307.0842
  16   2.0000     -11.284062      -307.0549
  17   2.0000     -11.281020      -306.9721
  18   2.0000     -11.271000      -306.6995
  19   2.0000     -11.267786      -306.6120
  20   2.0000     -11.263661      -306.4998
  21   2.0000     -11.250515      -306.1421
  22   2.0000     -11.250290      -306.1360
  23   2.0000     -11.241221      -305.8892
  24   2.0000     -11.233208      -305.6711
  25   2.0000     -11.232431      -305.6500
  26   2.0000     -11.230289      -305.5917
  27   2.0000     -11.224255      -305.4275
  28   2.0000     -11.224120      -305.4238
  29   2.0000     -11.215235      -305.1821
  30   2.0000     -11.212576      -305.1097
  31   2.0000     -11.211758      -305.0875
  32   2.0000     -11.200314      -304.7760
  33   2.0000     -11.200198      -304.7729
  34   2.0000     -11.191079      -304.5247
  35   2.0000     -11.191026      -304.5233
  36   2.0000     -11.180370      -304.2333
  37   2.0000     -11.180341      -304.2325
  38   2.0000     -11.177629      -304.1588
  39   2.0000     -11.169210      -303.9296
  40   2.0000     -11.163744      -303.7809
  41   2.0000     -11.162565      -303.7488
  42   2.0000     -11.158802      -303.6464
  43   2.0000     -11.158402      -303.6356
  44   2.0000     -11.157238      -303.6039
  45   2.0000     -11.155793      -303.5646
  46   2.0000     -11.153167      -303.4931
  47   2.0000     -11.151353      -303.4437
  48   2.0000     -11.150076      -303.4090
  49   2.0000     -11.146320      -303.3068
  50   2.0000     -11.130008      -302.8629
  51   2.0000     -11.127710      -302.8004
  52   2.0000      -1.345562       -36.6146
  53   2.0000      -1.324556       -36.0430
  54   2.0000      -1.314157       -35.7600
  55   2.0000      -1.300216       -35.3807
  56   2.0000      -1.217041       -33.1174
  57   2.0000      -1.209385       -32.9091
  58   2.0000      -1.166271       -31.7358
  59   2.0000      -1.148502       -31.2523
  60   2.0000      -1.129888       -30.7458
  61   2.0000      -1.112280       -30.2667
  62   2.0000      -1.103387       -30.0247
  63   2.0000      -1.090794       -29.6820
  64   2.0000      -1.067765       -29.0554
  65   2.0000      -1.048385       -28.5280
  66   2.0000      -1.038695       -28.2643
  67   2.0000      -1.030876       -28.0516
  68   2.0000      -1.025829       -27.9142
  69   2.0000      -1.013051       -27.5665
  70   2.0000      -1.006309       -27.3831
  71   2.0000      -0.992958       -27.0198
  72   2.0000      -0.982008       -26.7218
  73   2.0000      -0.974175       -26.5086
  74   2.0000      -0.971701       -26.4413
  75   2.0000      -0.960034       -26.1239
  76   2.0000      -0.949005       -25.8237
  77   2.0000      -0.947892       -25.7935
  78   2.0000      -0.930780       -25.3278
  79   2.0000      -0.921148       -25.0657
  80   2.0000      -0.895997       -24.3813
  81   2.0000      -0.888019       -24.1642
  82   2.0000      -0.875329       -23.8189
  83   2.0000      -0.865957       -23.5639
  84   2.0000      -0.862975       -23.4828
  85   2.0000      -0.855285       -23.2735
  86   2.0000      -0.850205       -23.1353
  87   2.0000      -0.835574       -22.7371
  88   2.0000      -0.822293       -22.3757
  89   2.0000      -0.796823       -21.6827
  90   2.0000      -0.795080       -21.6352
  91   2.0000      -0.743096       -20.2207
  92   2.0000      -0.732946       -19.9445
  93   2.0000      -0.726771       -19.7765
  94   2.0000      -0.722497       -19.6601
  95   2.0000      -0.716337       -19.4925
  96   2.0000      -0.709912       -19.3177
  97   2.0000      -0.704573       -19.1724
  98   2.0000      -0.700963       -19.0742
  99   2.0000      -0.693341       -18.8668
 100   2.0000      -0.691575       -18.8187
 101   2.0000      -0.682167       -18.5627
 102   2.0000      -0.679095       -18.4791
 103   2.0000      -0.674169       -18.3451
 104   2.0000      -0.670819       -18.2539
 105   2.0000      -0.669135       -18.2081
 106   2.0000      -0.663452       -18.0535
 107   2.0000      -0.659397       -17.9431
 108   2.0000      -0.656240       -17.8572
 109   2.0000      -0.655510       -17.8373
 110   2.0000      -0.649971       -17.6866
 111   2.0000      -0.647601       -17.6221
 112   2.0000      -0.642912       -17.4945
 113   2.0000      -0.636733       -17.3264
 114   2.0000      -0.632998       -17.2248
 115   2.0000      -0.632656       -17.2154
 116   2.0000      -0.622618       -16.9423
 117   2.0000      -0.615785       -16.7564
 118   2.0000      -0.613717       -16.7001
 119   2.0000      -0.608622       -16.5615
 120   2.0000      -0.606317       -16.4987
 121   2.0000      -0.599838       -16.3224
 122   2.0000      -0.598099       -16.2751
 123   2.0000      -0.594202       -16.1691
 124   2.0000      -0.591651       -16.0996
 125   2.0000      -0.583970       -15.8906
 126   2.0000      -0.576449       -15.6860
 127   2.0000      -0.571616       -15.5545
 128   2.0000      -0.566059       -15.4032
 129   2.0000      -0.562641       -15.3102
 130   2.0000      -0.556492       -15.1429
 131   2.0000      -0.548225       -14.9180
 132   2.0000      -0.539753       -14.6874
 133   2.0000      -0.534664       -14.5489
 134   2.0000      -0.533314       -14.5122
 135   2.0000      -0.531593       -14.4654
 136   2.0000      -0.524088       -14.2612
 137   2.0000      -0.521244       -14.1838
 138   2.0000      -0.517774       -14.0894
 139   2.0000      -0.514022       -13.9872
 140   2.0000      -0.509406       -13.8616
 141   2.0000      -0.506500       -13.7826
 142   2.0000      -0.502361       -13.6699
 143   2.0000      -0.499074       -13.5805
 144   2.0000      -0.498343       -13.5606
 145   2.0000      -0.495997       -13.4968
 146   2.0000      -0.493360       -13.4250
 147   2.0000      -0.490888       -13.3577
 148   2.0000      -0.485910       -13.2223
 149   2.0000      -0.465832       -12.6759
 150   2.0000      -0.461047       -12.5457
 151   2.0000      -0.453538       -12.3414
 152   2.0000      -0.448234       -12.1971
 153   2.0000      -0.442672       -12.0457
 154   2.0000      -0.440795       -11.9946
 155   2.0000      -0.440067       -11.9748
 156   2.0000      -0.431128       -11.7316
 157   2.0000      -0.424081       -11.5398
 158   2.0000      -0.393976       -10.7206
 159   2.0000      -0.384853       -10.4724
 160   2.0000      -0.375538       -10.2189
 161   2.0000      -0.373493       -10.1633
 162   2.0000      -0.366060        -9.9610
 163   2.0000      -0.358909        -9.7664
 164   2.0000      -0.350592        -9.5401
 165   2.0000      -0.339937        -9.2502
 166   2.0000      -0.338340        -9.2067
 167   2.0000      -0.335183        -9.1208
 168   2.0000      -0.321793        -8.7564
 169   2.0000      -0.299727        -8.1560
 170   2.0000      -0.295243        -8.0340
 171   2.0000      -0.286690        -7.8012
 172   2.0000      -0.285275        -7.7627
 173   2.0000      -0.258902        -7.0451
 174   2.0000      -0.240620        -6.5476
 175   2.0000      -0.185937        -5.0596
 176   2.0000      -0.175615        -4.7787
 177   2.0000      -0.062767        -1.7080
 178   2.0000      -0.052431        -1.4267
 179   0.0000       0.033120         0.9012
 180   0.0000       0.066421         1.8074
 181   0.0000       0.092290         2.5113
 182   0.0000       0.095893         2.6094
 183   0.0000       0.118451         3.2232

MULLIKEN ATOMIC CHARGES
-----------------------
   0 C :    0.216173
   1 N :   -0.430328
   2 C :   -0.067192
   3 N :   -0.340921
   4 C :   -0.084441
   5 N :   -0.563809
   6 C :   -0.038970
   7 N :   -0.337481
   8 C :    0.215467
   9 N :   -0.564245
  10 C :    0.110350
  11 N :   -0.437813
  12 C :   -0.061538
  13 N :   -0.445195
  14 C :    0.227234
  15 N :   -0.440697
  16 C :    0.245240
  17 C :   -0.041554
  18 C :   -0.183816
  19 C :    0.225874
  20 C :    0.200401
  21 C :   -0.068449
  22 C :   -0.086065
  23 C :   -0.057326
  24 C :    0.213252
  25 C :    0.113884
  26 C :   -0.071614
  27 C :    0.234408
  28 C :   -0.045840
  29 C :   -0.190937
  30 C :    0.228737
  31 C :    0.199877
  32 C :   -0.065425
  33 C :   -0.091904
  34 C :   -0.050000
  35 C :    0.191477
  36 C :    0.117435
  37 C :   -0.068195
  38 C :    0.240733
  39 C :   -0.063510
  40 C :   -0.195881
  41 C :    0.217972
  42 C :    0.208123
  43 C :   -0.075279
  44 C :   -0.088908
  45 C :   -0.045985
  46 C :    0.195735
  47 C :    0.115879
  48 C :   -0.079086
  49 C :    0.217335
  50 C :   -0.058960
  51 C :   -0.189883
  52 H :    0.066294
  53 H :   -0.011593
  54 H :    0.052488
  55 H :    0.064225
  56 H :    0.069608
  57 H :    0.064585
  58 H :    0.063964
  59 H :   -0.021316
  60 H :    0.053960
  61 H :    0.174597
  62 H :    0.170697
  63 H :    0.056001
  64 H :   -0.027320
  65 H :    0.044657
  66 H :    0.057385
  67 H :    0.061763
  68 H :    0.057748
  69 H :    0.059634
  70 H :   -0.020361
  71 H :    0.048540
  72 H :    0.047318
  73 H :   -0.017143
  74 H :    0.038412
  75 H :    0.046169
  76 H :    0.054361
  77 H :    0.052311
  78 H :    0.051503
  79 H :   -0.012578
  80 H :    0.038402
  81 H :    0.052757
  82 H :   -0.023430
  83 H :    0.043462
  84 H :    0.051967
  85 H :    0.057355
  86 H :    0.056699
  87 H :    0.056080
  88 H :   -0.026638
  89 H :    0.043098
Sum of atomic charges:   -0.0000000

LOEWDIN ATOMIC CHARGES
----------------------
   0 C :    0.013417
   1 N :    0.159837
   2 C :   -0.100690
   3 N :    0.174513
   4 C :    0.066836
   5 N :   -0.142424
   6 C :   -0.015650
   7 N :    0.177493
   8 C :    0.012769
   9 N :   -0.138479
  10 C :    0.033170
  11 N :    0.144024
  12 C :   -0.098893
  13 N :    0.128157
  14 C :   -0.053306
  15 N :    0.137837
  16 C :   -0.033018
  17 C :   -0.017144
  18 C :   -0.113142
  19 C :   -0.089291
  20 C :   -0.006283
  21 C :   -0.101276
  22 C :    0.042629
  23 C :   -0.026247
  24 C :    0.005208
  25 C :    0.030296
  26 C :   -0.100288
  27 C :   -0.076450
  28 C :   -0.017351
  29 C :   -0.112488
  30 C :   -0.055265
  31 C :   -0.011968
  32 C :   -0.100219
  33 C :    0.017862
  34 C :   -0.022940
  35 C :   -0.019330
  36 C :    0.026523
  37 C :   -0.104854
  38 C :   -0.035340
  39 C :   -0.029771
  40 C :   -0.110713
  41 C :   -0.094529
  42 C :   -0.001591
  43 C :   -0.109199
  44 C :    0.033497
  45 C :   -0.018389
  46 C :   -0.012342
  47 C :    0.028995
  48 C :   -0.110608
  49 C :   -0.102813
  50 C :   -0.027196
  51 C :   -0.109144
  52 H :    0.034751
  53 H :    0.005487
  54 H :    0.048588
  55 H :    0.034319
  56 H :    0.032032
  57 H :    0.034231
  58 H :    0.034723
  59 H :    0.002024
  60 H :    0.048985
  61 H :    0.061390
  62 H :    0.059309
  63 H :    0.030519
  64 H :   -0.002648
  65 H :    0.043954
  66 H :    0.030762
  67 H :    0.028065
  68 H :    0.031847
  69 H :    0.031668
  70 H :   -0.000203
  71 H :    0.045951
  72 H :    0.026541
  73 H :    0.002753
  74 H :    0.041487
  75 H :    0.025669
  76 H :    0.024186
  77 H :    0.028821
  78 H :    0.028485
  79 H :    0.005065
  80 H :    0.040757
  81 H :    0.028815
  82 H :   -0.001694
  83 H :    0.044044
  84 H :    0.028324
  85 H :    0.025773
  86 H :    0.030577
  87 H :    0.030854
  88 H :   -0.003408
  89 H :    0.042766

  Mayer bond orders larger than 0.100000
B(  0-C ,  1-N ) :   1.1485 B(  0-C , 17-C ) :   1.5897 B(  0-C , 52-H ) :   0.9684
B(  1-N ,  8-C ) :   1.1450 B(  1-N , 10-C ) :   0.9483 B(  2-C , 12-C ) :   1.5533
B(  2-C , 16-C ) :   1.3019 B(  2-C , 53-H ) :   0.9785 B(  3-N , 14-C ) :   1.1893
B(  3-N , 16-C ) :   1.1992 B(  3-N , 61-H ) :   0.8972 B(  4-C ,  6-C ) :   1.3051
B(  4-C , 17-C ) :   1.3037 B(  4-C , 18-C ) :   1.1695 B(  5-N , 19-C ) :   1.3928
B(  5-N , 27-C ) :   1.4267 B(  6-C ,  8-C ) :   1.5894 B(  6-C , 54-H ) :   0.9711
B(  7-N , 30-C ) :   1.1887 B(  7-N , 38-C ) :   1.2083 B(  7-N , 62-H ) :   0.8996
B(  8-C , 55-H ) :   0.9696 B(  9-N , 41-C ) :   1.4193 B(  9-N , 49-C ) :   1.4069
B( 10-C , 56-H ) :   0.9763 B( 10-C , 57-H ) :   0.9818 B( 10-C , 58-H ) :   0.9824
B( 11-N , 20-C ) :   1.1152 B( 11-N , 24-C ) :   1.1318 B( 11-N , 25-C ) :   0.9585
B( 12-C , 14-C ) :   1.3030 B( 12-C , 59-H ) :   0.9779 B( 13-N , 31-C ) :   1.1044
B( 13-N , 35-C ) :   1.0953 B( 13-N , 36-C ) :   0.9702 B( 14-C , 18-C ) :   1.2288
B( 15-N , 42-C ) :   1.1219 B( 15-N , 46-C ) :   1.1055 B( 15-N , 47-C ) :   0.9633
B( 16-C , 51-C ) :   1.2205 B( 17-C , 60-H ) :   0.9715 B( 18-C , 19-C ) :   1.2576
B( 19-C , 21-C ) :   1.1927 B( 20-C , 28-C ) :   1.6226 B( 20-C , 63-H ) :   0.9704
B( 21-C , 26-C ) :   1.6566 B( 21-C , 64-H ) :   0.9737 B( 22-C , 23-C ) :   1.2732
B( 22-C , 28-C ) :   1.2798 B( 22-C , 29-C ) :   1.2393 B( 23-C , 24-C ) :   1.6226
B( 23-C , 65-H ) :   0.9715 B( 24-C , 66-H ) :   0.9690 B( 25-C , 67-H ) :   0.9763
B( 25-C , 68-H ) :   0.9831 B( 25-C , 69-H ) :   0.9820 B( 26-C , 27-C ) :   1.1946
B( 26-C , 70-H ) :   0.9742 B( 27-C , 29-C ) :   1.2319 B( 28-C , 71-H ) :   0.9711
B( 29-C , 30-C ) :   1.1978 B( 30-C , 32-C ) :   1.3279 B( 31-C , 39-C ) :   1.6550
B( 31-C , 72-H ) :   0.9703 B( 32-C , 37-C ) :   1.5306 B( 32-C , 73-H ) :   0.9774
B( 33-C , 34-C ) :   1.2559 B( 33-C , 39-C ) :   1.2482 B( 33-C , 40-C ) :   1.2964
B( 34-C , 35-C ) :   1.6526 B( 34-C , 74-H ) :   0.9707 B( 35-C , 75-H ) :   0.9703
B( 36-C , 76-H ) :   0.9759 B( 36-C , 77-H ) :   0.9823 B( 36-C , 78-H ) :   0.9834
B( 37-C , 38-C ) :   1.3267 B( 37-C , 79-H ) :   0.9785 B( 38-C , 40-C ) :   1.1959
B( 39-C , 80-H ) :   0.9719 B( 40-C , 41-C ) :   1.1951 B( 41-C , 43-C ) :   1.2344
B( 42-C , 50-C ) :   1.6354 B( 42-C , 81-H ) :   0.9695 B( 43-C , 48-C ) :   1.6168
B( 43-C , 82-H ) :   0.9745 B( 44-C , 45-C ) :   1.2763 B( 44-C , 50-C ) :   1.2609
B( 44-C , 51-C ) :   1.2517 B( 45-C , 46-C ) :   1.6311 B( 45-C , 83-H ) :   0.9707
B( 46-C , 84-H ) :   0.9705 B( 47-C , 85-H ) :   0.9761 B( 47-C , 86-H ) :   0.9827
B( 47-C , 87-H ) :   0.9827 B( 48-C , 49-C ) :   1.2314 B( 48-C , 88-H ) :   0.9732
B( 49-C , 51-C ) :   1.2044 B( 50-C , 89-H ) :   0.9717

MP2 TOTAL ENERGY:    -2130.903107569 Eh
FINAL SINGLE POINT ENERGY     -2130.903107569352

DIPOLE MOMENT
-------------
                                X             Y             Z
Electronic contribution:     -2.18934       1.72239      -0.05941
Nuclear contribution   :      0.03693       0.21455       0.07655
                        -----------------------------------------
Total Dipole Moment    :     -2.15241       1.93693       0.01713
                        -----------------------------------------
Magnitude (a.u.)       :      2.89566
Magnitude (Debye)      :      7.36019

Rotational constants in cm-1:     0.001499     0.001472     0.000763
Rotational constants in MHz :    44.933356    44.137008    22.860892

                             ****ORCA TERMINATED NORMALLY****
TOTAL RUN TIME: 0 days 1 hours 12 minutes 15 seconds 228 msec
