                         Program Version 5.0.4 -  RELEASE  -
|  1> ! PAL2
|  2> ! mp2 cc-pvdz TightSCF  NoKeepInts
|  3>
|  4> %scf
|  5>   MaxCore 2000
|  6> end
|  7> %mp2
|  8>   MaxCore 2000
|  9> end
| 10> * xyz 0 1
| 11>    C       -3.34800         6.29700        -0.76800
| 12>    C        1.47400         4.04100         0.05700
| 13>    C       -2.80200         4.09300         0.04900
| 14>    C       -3.86700         4.22000         0.95400
| 15>    C       -4.63300         5.36900         0.96700
| 16>    C       -5.23000         7.59000         0.13000
| 17>    C        0.13200         4.30700         0.06100
| 18>    C       -0.56900         3.05600         0.04700
| 19>    C        1.64900         2.61800         0.02300
| 20>    C       -2.55800         5.16600        -0.82200
| 21>    N       -4.36700         6.38800         0.11700
| 22>    N        0.38800         2.06700         0.02500
| 23>    N       -2.01000         0.39500        -0.07500
| 24>    N       -0.38800        -2.07400        -0.02700
| 25>    N        2.01000        -0.40100         0.06500
| 26>    C       -1.96000         2.86100         0.02400
| 27>    C       -2.62300         1.61500        -0.01800
| 28>    C       -5.57300        -4.32900         1.06600
| 29>    C       -4.07300         1.47100         0.05600
| 30>    C       -4.10600        -2.75600        -0.02600
| 31>    C       -4.99500        -2.75700        -1.11100
| 32>    C       -6.13200        -3.54200        -1.07600
| 33>    C       -7.65100        -5.11300         0.04000
| 34>    C       -4.32400         0.14100         0.03700
| 35>    C       -3.02500        -0.52000        -0.04800
| 36>    C       -4.42200        -3.56600         1.07500
| 37>    N       -6.40700        -4.31300         0.00100
| 38>    C       -2.86700        -1.92200        -0.04000
| 39>    C       -1.65000        -2.62400        -0.02700
| 40>    C        3.56800        -6.14200        -1.04000
| 41>    C       -1.47600        -4.04900        -0.03400
| 42>    C        2.80300        -4.09900        -0.00800
| 43>    C        3.65700        -4.38400         1.06900
| 44>    C        4.42700        -5.53000         1.05900
| 45>    C        5.24500        -7.58800         0.01400
| 46>    C       -0.13400        -4.31500        -0.02200
| 47>    C        0.56800        -3.06400        -0.02700
| 48>    C        2.77500        -5.01200        -1.07400
| 49>    N        4.37600        -6.39100         0.01700
| 50>    C        1.95900        -2.86900        -0.00900
| 51>    C        2.62100        -1.62200         0.00900
| 52>    C        5.54300         4.33900        -1.13000
| 53>    C        4.07000        -1.47900        -0.09400
| 54>    C        4.10400         2.75100        -0.02100
| 55>    C        5.02700         2.72900         1.03600
| 56>    C        6.16600         3.50900         0.97800
| 57>    C        7.61900         5.15300        -0.11500
| 58>    C        4.32100        -0.14800        -0.09200
| 59>    C        3.02500         0.51400         0.01500
| 60>    C        4.38700         3.58200        -1.11500
| 61>    C        2.86600         1.91600         0.01300
| 62>    N        6.41300         4.29600        -0.09500
| 63>    H       -3.18800         7.15300        -1.41200
| 64>    H        2.27400         4.76600         0.08100
| 65>    H       -4.11200         3.42300         1.64500
| 66>    H       -5.46900         5.50900         1.63900
| 67>    H       -6.09300         7.41500        -0.51600
| 68>    H       -5.55700         7.77600         1.15300
| 69>    H       -4.65300         8.43900        -0.23700
| 70>    H       -0.33200         5.28200         0.06900
| 71>    H       -1.74100         5.13400        -1.53400
| 72>    H        0.18200         1.07200         0.00500
| 73>    H       -0.18300        -1.08000        -0.02100
| 74>    H       -5.86400        -4.96200         1.89500
| 75>    H       -4.79400         2.27200         0.13900
| 76>    H       -4.80000        -2.16000        -1.99400
| 77>    H       -6.84100        -3.58200        -1.89300
| 78>    H       -8.42800        -4.53600         0.54600
| 79>    H       -7.95600        -5.33700        -0.98100
| 80>    H       -7.45600        -6.03700         0.58400
| 81>    H       -5.28700        -0.34400         0.10000
| 82>    H       -3.78000        -3.60100         1.94700
| 83>    H        3.58700        -6.86800        -1.84300
| 84>    H       -2.27600        -4.77400        -0.05000
| 85>    H        3.71400        -3.72400         1.92600
| 86>    H        5.09200        -5.79500         1.87100
| 87>    H        6.20500        -7.32900        -0.43900
| 88>    H        5.39300        -7.91700         1.04200
| 89>    H        4.75900        -8.37300        -0.56400
| 90>    H        0.32900        -5.29000        -0.00800
| 91>    H        2.14600        -4.84200        -1.94000
| 92>    H        5.80800         4.98600        -1.95600
| 93>    H        4.78800        -2.28100        -0.18500
| 94>    H        4.86000         2.11400         1.91200
| 95>    H        6.90100         3.53100         1.77200
| 96>    H        7.38300         6.10900         0.35600
| 97>    H        8.41400         4.65200         0.43500
| 98>    H        7.92100         5.31000        -1.15000
| 99>    H        5.28300         0.33600        -0.17900
|100>    H        3.72000         3.63200        -1.96700
|101> *
|102>
|103>                          ****END OF INPUT****

CARTESIAN COORDINATES (ANGSTROEM)
---------------------------------
  C     -3.348000    6.297000   -0.768000
  C      1.474000    4.041000    0.057000
  C     -2.802000    4.093000    0.049000
  C     -3.867000    4.220000    0.954000
  C     -4.633000    5.369000    0.967000
  C     -5.230000    7.590000    0.130000
  C      0.132000    4.307000    0.061000
  C     -0.569000    3.056000    0.047000
  C      1.649000    2.618000    0.023000
  C     -2.558000    5.166000   -0.822000
  N     -4.367000    6.388000    0.117000
  N      0.388000    2.067000    0.025000
  N     -2.010000    0.395000   -0.075000
  N     -0.388000   -2.074000   -0.027000
  N      2.010000   -0.401000    0.065000
  C     -1.960000    2.861000    0.024000
  C     -2.623000    1.615000   -0.018000
  C     -5.573000   -4.329000    1.066000
  C     -4.073000    1.471000    0.056000
  C     -4.106000   -2.756000   -0.026000
  C     -4.995000   -2.757000   -1.111000
  C     -6.132000   -3.542000   -1.076000
  C     -7.651000   -5.113000    0.040000
  C     -4.324000    0.141000    0.037000
  C     -3.025000   -0.520000   -0.048000
  C     -4.422000   -3.566000    1.075000
  N     -6.407000   -4.313000    0.001000
  C     -2.867000   -1.922000   -0.040000
  C     -1.650000   -2.624000   -0.027000
  C      3.568000   -6.142000   -1.040000
  C     -1.476000   -4.049000   -0.034000
  C      2.803000   -4.099000   -0.008000
  C      3.657000   -4.384000    1.069000
  C      4.427000   -5.530000    1.059000
  C      5.245000   -7.588000    0.014000
  C     -0.134000   -4.315000   -0.022000
  C      0.568000   -3.064000   -0.027000
  C      2.775000   -5.012000   -1.074000
  N      4.376000   -6.391000    0.017000
  C      1.959000   -2.869000   -0.009000
  C      2.621000   -1.622000    0.009000
  C      5.543000    4.339000   -1.130000
  C      4.070000   -1.479000   -0.094000
  C      4.104000    2.751000   -0.021000
  C      5.027000    2.729000    1.036000
  C      6.166000    3.509000    0.978000
  C      7.619000    5.153000   -0.115000
  C      4.321000   -0.148000   -0.092000
  C      3.025000    0.514000    0.015000
  C      4.387000    3.582000   -1.115000
  C      2.866000    1.916000    0.013000
  N      6.413000    4.296000   -0.095000
  H     -3.188000    7.153000   -1.412000
  H      2.274000    4.766000    0.081000
  H     -4.112000    3.423000    1.645000
  H     -5.469000    5.509000    1.639000
  H     -6.093000    7.415000   -0.516000
  H     -5.557000    7.776000    1.153000
  H     -4.653000    8.439000   -0.237000
  H     -0.332000    5.282000    0.069000
  H     -1.741000    5.134000   -1.534000
  H      0.182000    1.072000    0.005000
  H     -0.183000   -1.080000   -0.021000
  H     -5.864000   -4.962000    1.895000
  H     -4.794000    2.272000    0.139000
  H     -4.800000   -2.160000   -1.994000
  H     -6.841000   -3.582000   -1.893000
  H     -8.428000   -4.536000    0.546000
  H     -7.956000   -5.337000   -0.981000
  H     -7.456000   -6.037000    0.584000
  H     -5.287000   -0.344000    0.100000
  H     -3.780000   -3.601000    1.947000
  H      3.587000   -6.868000   -1.843000
  H     -2.276000   -4.774000   -0.050000
  H      3.714000   -3.724000    1.926000
  H      5.092000   -5.795000    1.871000
  H      6.205000   -7.329000   -0.439000
  H      5.393000   -7.917000    1.042000
  H      4.759000   -8.373000   -0.564000
  H      0.329000   -5.290000   -0.008000
  H      2.146000   -4.842000   -1.940000
  H      5.808000    4.986000   -1.956000
  H      4.788000   -2.281000   -0.185000
  H      4.860000    2.114000    1.912000
  H      6.901000    3.531000    1.772000
  H      7.383000    6.109000    0.356000
  H      8.414000    4.652000    0.435000
  H      7.921000    5.310000   -1.150000
  H      5.283000    0.336000   -0.179000
  H      3.720000    3.632000   -1.967000

 Total Charge           Charge          ....    0
 Multiplicity           Mult            ....    1
 Number of Electrons    NEL             ....  358
 Basis Dimension        Dim             ....  918

ORBITAL ENERGIES
----------------

  NO   OCC          E(Eh)            E(eV)
   0   2.0000     -15.654128      -425.9705
   1   2.0000     -15.636995      -425.5043
   2   2.0000     -15.630126      -425.3173
   3   2.0000     -15.608479      -424.7283
   4   2.0000     -15.521527      -422.3622
   5   2.0000     -15.516396      -422.2226
   6   2.0000     -15.447975      -420.3608
   7   2.0000     -15.443072      -420.2273
   8   2.0000     -11.312037      -307.8162
   9   2.0000     -11.308313      -307.7148
  10   2.0000     -11.306341      -307.6612
  11   2.0000     -11.301154      -307.5200
  12   2.0000     -11.297064      -307.4087
  13   2.0000     -11.294011      -307.3257
  14   2.0000     -11.290651      -307.2342
  15   2.0000     -11.288074      -307.1641
  16   2.0000     -11.286177      -307.1125
  17   2.0000     -11.284341      -307.0625
  18   2.0000     -11.271098      -306.7022
  19   2.0000     -11.269722      -306.6647
  20   2.0000     -11.257836      -306.3413
  21   2.0000     -11.245178      -305.9968
  22   2.0000     -11.244273      -305.9722
  23   2.0000     -11.240406      -305.8670
  24   2.0000     -11.234692      -305.7115
  25   2.0000     -11.233120      -305.6687
  26   2.0000     -11.232332      -305.6473
  27   2.0000     -11.228157      -305.5337
  28   2.0000     -11.228018      -305.5299
  29   2.0000     -11.217052      -305.2315
  30   2.0000     -11.211756      -305.0874
  31   2.0000     -11.210868      -305.0632
  32   2.0000     -11.204288      -304.8842
  33   2.0000     -11.203638      -304.8665
  34   2.0000     -11.192586      -304.5657
  35   2.0000     -11.191970      -304.5490
  36   2.0000     -11.179533      -304.2106
  37   2.0000     -11.178063      -304.1706
  38   2.0000     -11.177632      -304.1588
  39   2.0000     -11.172117      -304.0088
  40   2.0000     -11.168722      -303.9164
  41   2.0000     -11.166636      -303.8596
  42   2.0000     -11.165210      -303.8208
  43   2.0000     -11.164913      -303.8127
  44   2.0000     -11.163235      -303.7671
  45   2.0000     -11.162406      -303.7445
  46   2.0000     -11.151156      -303.4384
  47   2.0000     -11.150521      -303.4211
  48   2.0000     -11.147576      -303.3410
  49   2.0000     -11.147442      -303.3373
  50   2.0000     -11.138543      -303.0952
  51   2.0000     -11.133678      -302.9628
  52   2.0000      -1.338509       -36.4227
  53   2.0000      -1.323774       -36.0217
  54   2.0000      -1.317959       -35.8635
  55   2.0000      -1.300171       -35.3794
  56   2.0000      -1.220864       -33.2214
  57   2.0000      -1.212033       -32.9811
  58   2.0000      -1.165459       -31.7138
  59   2.0000      -1.155730       -31.4490
  60   2.0000      -1.125126       -30.6162
  61   2.0000      -1.112119       -30.2623
  62   2.0000      -1.107256       -30.1300
  63   2.0000      -1.093050       -29.7434
  64   2.0000      -1.061720       -28.8909
  65   2.0000      -1.047743       -28.5105
  66   2.0000      -1.042609       -28.3708
  67   2.0000      -1.030061       -28.0294
  68   2.0000      -1.026964       -27.9451
  69   2.0000      -1.011988       -27.5376
  70   2.0000      -1.009749       -27.4767
  71   2.0000      -0.994913       -27.0730
  72   2.0000      -0.985178       -26.8081
  73   2.0000      -0.974840       -26.5267
  74   2.0000      -0.972592       -26.4656
  75   2.0000      -0.959496       -26.1092
  76   2.0000      -0.951198       -25.8834
  77   2.0000      -0.947125       -25.7726
  78   2.0000      -0.938119       -25.5275
  79   2.0000      -0.922737       -25.1089
  80   2.0000      -0.896008       -24.3816
  81   2.0000      -0.886283       -24.1170
  82   2.0000      -0.874973       -23.8092
  83   2.0000      -0.869994       -23.6738
  84   2.0000      -0.862762       -23.4769
  85   2.0000      -0.855903       -23.2903
  86   2.0000      -0.848529       -23.0896
  87   2.0000      -0.840506       -22.8713
  88   2.0000      -0.822179       -22.3726
  89   2.0000      -0.798740       -21.7348
  90   2.0000      -0.796702       -21.6794
  91   2.0000      -0.741467       -20.1763
  92   2.0000      -0.734555       -19.9882
  93   2.0000      -0.730239       -19.8708
  94   2.0000      -0.721698       -19.6384
  95   2.0000      -0.720627       -19.6093
  96   2.0000      -0.712999       -19.4017
  97   2.0000      -0.706867       -19.2348
  98   2.0000      -0.700680       -19.0665
  99   2.0000      -0.694478       -18.8977
 100   2.0000      -0.690095       -18.7784
 101   2.0000      -0.681353       -18.5406
 102   2.0000      -0.678726       -18.4691
 103   2.0000      -0.674597       -18.3567
 104   2.0000      -0.670782       -18.2529
 105   2.0000      -0.667575       -18.1656
 106   2.0000      -0.664078       -18.0705
 107   2.0000      -0.660857       -17.9828
 108   2.0000      -0.656460       -17.8632
 109   2.0000      -0.655594       -17.8396
 110   2.0000      -0.652218       -17.7477
 111   2.0000      -0.648999       -17.6602
 112   2.0000      -0.645438       -17.5632
 113   2.0000      -0.638064       -17.3626
 114   2.0000      -0.634874       -17.2758
 115   2.0000      -0.627416       -17.0729
 116   2.0000      -0.624461       -16.9924
 117   2.0000      -0.614728       -16.7276
 118   2.0000      -0.613413       -16.6918
 119   2.0000      -0.610120       -16.6022
 120   2.0000      -0.609705       -16.5909
 121   2.0000      -0.602972       -16.4077
 122   2.0000      -0.594940       -16.1891
 123   2.0000      -0.594027       -16.1643
 124   2.0000      -0.590638       -16.0721
 125   2.0000      -0.583464       -15.8769
 126   2.0000      -0.579406       -15.7664
 127   2.0000      -0.574694       -15.6382
 128   2.0000      -0.565950       -15.4003
 129   2.0000      -0.559321       -15.2199
 130   2.0000      -0.553911       -15.0727
 131   2.0000      -0.548717       -14.9313
 132   2.0000      -0.540929       -14.7194
 133   2.0000      -0.536717       -14.6048
 134   2.0000      -0.534796       -14.5525
 135   2.0000      -0.529673       -14.4131
 136   2.0000      -0.526404       -14.3242
 137   2.0000      -0.523282       -14.2392
 138   2.0000      -0.519742       -14.1429
 139   2.0000      -0.516198       -14.0465
 140   2.0000      -0.510915       -13.9027
 141   2.0000      -0.507380       -13.8065
 142   2.0000      -0.506474       -13.7819
 143   2.0000      -0.501141       -13.6367
 144   2.0000      -0.501091       -13.6354
 145   2.0000      -0.498299       -13.5594
 146   2.0000      -0.494612       -13.4591
 147   2.0000      -0.490124       -13.3370
 148   2.0000      -0.489089       -13.3088
 149   2.0000      -0.469416       -12.7734
 150   2.0000      -0.462181       -12.5766
 151   2.0000      -0.454105       -12.3568
 152   2.0000      -0.447803       -12.1853
 153   2.0000      -0.447057       -12.1650
 154   2.0000      -0.446406       -12.1473
 155   2.0000      -0.440093       -11.9756
 156   2.0000      -0.434581       -11.8256
 157   2.0000      -0.429588       -11.6897
 158   2.0000      -0.395736       -10.7685
 159   2.0000      -0.386038       -10.5046
 160   2.0000      -0.378123       -10.2893
 161   2.0000      -0.371301       -10.1036
 162   2.0000      -0.370335       -10.0773
 163   2.0000      -0.358437        -9.7536
 164   2.0000      -0.354247        -9.6395
 165   2.0000      -0.339177        -9.2295
 166   2.0000      -0.337192        -9.1755
 167   2.0000      -0.335356        -9.1255
 168   2.0000      -0.328474        -8.9382
 169   2.0000      -0.300279        -8.1710
 170   2.0000      -0.298710        -8.1283
 171   2.0000      -0.288131        -7.8404
 172   2.0000      -0.286327        -7.7913
 173   2.0000      -0.258030        -7.0213
 174   2.0000      -0.247078        -6.7233
 175   2.0000      -0.188930        -5.1411
 176   2.0000      -0.179005        -4.8710
 177   2.0000      -0.069518        -1.8917
 178   2.0000      -0.055834        -1.5193
 179   0.0000       0.029901         0.8137
 180   0.0000       0.069589         1.8936
 181   0.0000       0.092558         2.5186
 182   0.0000       0.101117         2.7515
 183   0.0000       0.123611         3.3636

MULLIKEN ATOMIC CHARGES
-----------------------
   0 C :    0.206664
   1 N :   -0.449180
   2 C :   -0.062791
   3 N :   -0.336189
   4 C :   -0.053632
   5 N :   -0.562865
   6 C :   -0.088536
   7 N :   -0.338827
   8 C :    0.205179
   9 N :   -0.562828
  10 C :    0.116715
  11 N :   -0.437765
  12 C :   -0.078977
  13 N :   -0.435487
  14 C :    0.244480
  15 N :   -0.440845
  16 C :    0.229597
  17 C :   -0.094879
  18 C :   -0.214881
  19 C :    0.239166
  20 C :    0.210585
  21 C :   -0.092702
  22 C :   -0.089042
  23 C :   -0.044474
  24 C :    0.200199
  25 C :    0.114152
  26 C :   -0.072693
  27 C :    0.217062
  28 C :   -0.056697
  29 C :   -0.182466
  30 C :    0.240179
  31 C :    0.219113
  32 C :   -0.063959
  33 C :   -0.072475
  34 C :   -0.050571
  35 C :    0.214511
  36 C :    0.111614
  37 C :   -0.065820
  38 C :    0.234406
  39 C :   -0.059699
  40 C :   -0.185921
  41 C :    0.223394
  42 C :    0.200577
  43 C :   -0.072868
  44 C :   -0.089279
  45 C :   -0.056396
  46 C :    0.207065
  47 C :    0.115485
  48 C :   -0.071016
  49 C :    0.231792
  50 C :   -0.050044
  51 C :   -0.189624
  52 H :    0.047013
  53 H :   -0.015031
  54 H :    0.050857
  55 H :    0.045959
  56 H :    0.054200
  57 H :    0.052520
  58 H :    0.051451
  59 H :   -0.005097
  60 H :    0.046396
  61 H :    0.172068
  62 H :    0.173944
  63 H :    0.056079
  64 H :   -0.012467
  65 H :    0.047465
  66 H :    0.056968
  67 H :    0.062604
  68 H :    0.057885
  69 H :    0.057791
  70 H :   -0.026453
  71 H :    0.046430
  72 H :    0.062805
  73 H :   -0.011484
  74 H :    0.052530
  75 H :    0.061997
  76 H :    0.067469
  77 H :    0.062332
  78 H :    0.061594
  79 H :   -0.015051
  80 H :    0.053171
  81 H :    0.053717
  82 H :   -0.023903
  83 H :    0.042730
  84 H :    0.053750
  85 H :    0.059933
  86 H :    0.056024
  87 H :    0.056838
  88 H :   -0.018399
  89 H :    0.044861
Sum of atomic charges:   -0.0000000

LOEWDIN ATOMIC CHARGES
----------------------
   0 C :   -0.013823
   1 N :    0.125188
   2 C :   -0.100533
   3 N :    0.181296
   4 C :    0.014287
   5 N :   -0.135431
   6 C :   -0.029620
   7 N :    0.176961
   8 C :   -0.014378
   9 N :   -0.139793
  10 C :    0.026240
  11 N :    0.143619
  12 C :   -0.105670
  13 N :    0.152109
  14 C :   -0.037531
  15 N :    0.138673
  16 C :   -0.053010
  17 C :   -0.034270
  18 C :   -0.104787
  19 C :   -0.084897
  20 C :    0.002517
  21 C :   -0.111186
  22 C :    0.039889
  23 C :   -0.017363
  24 C :   -0.006324
  25 C :    0.030186
  26 C :   -0.104213
  27 C :   -0.105003
  28 C :   -0.024064
  29 C :   -0.104131
  30 C :   -0.038651
  31 C :    0.011199
  32 C :   -0.097510
  33 C :    0.058015
  34 C :   -0.017785
  35 C :    0.007359
  36 C :    0.032052
  37 C :   -0.098310
  38 C :   -0.046357
  39 C :   -0.021857
  40 C :   -0.108576
  41 C :   -0.092250
  42 C :   -0.007864
  43 C :   -0.102046
  44 C :    0.033584
  45 C :   -0.024826
  46 C :   -0.002035
  47 C :    0.029389
  48 C :   -0.099856
  49 C :   -0.080693
  50 C :   -0.021443
  51 C :   -0.108234
  52 H :    0.026531
  53 H :    0.003839
  54 H :    0.042849
  55 H :    0.026282
  56 H :    0.023950
  57 H :    0.028575
  58 H :    0.028941
  59 H :    0.006584
  60 H :    0.041045
  61 H :    0.060329
  62 H :    0.061073
  63 H :    0.030941
  64 H :    0.001600
  65 H :    0.045768
  66 H :    0.030052
  67 H :    0.028371
  68 H :    0.031920
  69 H :    0.030913
  70 H :   -0.002961
  71 H :    0.044433
  72 H :    0.033721
  73 H :    0.005436
  74 H :    0.047370
  75 H :    0.033161
  76 H :    0.030937
  77 H :    0.033518
  78 H :    0.033196
  79 H :    0.003738
  80 H :    0.047174
  81 H :    0.028919
  82 H :   -0.002164
  83 H :    0.043136
  84 H :    0.029527
  85 H :    0.026949
  86 H :    0.030362
  87 H :    0.031225
  88 H :    0.000518
  89 H :    0.044000

  Mayer bond orders larger than 0.100000
B(  0-C ,  1-N ) :   1.1015 B(  0-C , 17-C ) :   1.6699 B(  0-C , 52-H ) :   0.9690
B(  1-N ,  8-C ) :   1.0979 B(  1-N , 10-C ) :   0.9704 B(  2-C , 12-C ) :   1.5242
B(  2-C , 16-C ) :   1.3389 B(  2-C , 53-H ) :   0.9769 B(  3-N , 14-C ) :   1.2114
B(  3-N , 16-C ) :   1.1936 B(  3-N , 61-H ) :   0.8987 B(  4-C ,  6-C ) :   1.2341
B(  4-C , 17-C ) :   1.2366 B(  4-C , 18-C ) :   1.3552 B(  5-N , 19-C ) :   1.4367
B(  5-N , 27-C ) :   1.3914 B(  6-C ,  8-C ) :   1.6733 B(  6-C , 54-H ) :   0.9677
B(  7-N , 30-C ) :   1.1950 B(  7-N , 38-C ) :   1.1967 B(  7-N , 62-H ) :   0.8977
B(  8-C , 55-H ) :   0.9692 B(  9-N , 41-C ) :   1.4019 B(  9-N , 49-C ) :   1.4198
B( 10-C , 56-H ) :   0.9765 B( 10-C , 57-H ) :   0.9820 B( 10-C , 58-H ) :   0.9840
B( 11-N , 20-C ) :   1.1279 B( 11-N , 24-C ) :   1.1156 B( 11-N , 25-C ) :   0.9590
B( 12-C , 14-C ) :   1.3403 B( 12-C , 59-H ) :   0.9750 B( 13-N , 31-C ) :   1.1395
B( 13-N , 35-C ) :   1.1348 B( 13-N , 36-C ) :   0.9519 B( 14-C , 18-C ) :   1.1631
B( 15-N , 42-C ) :   1.1120 B( 15-N , 46-C ) :   1.1186 B( 15-N , 47-C ) :   0.9618
B( 16-C , 51-C ) :   1.1857 B( 17-C , 60-H ) :   0.9688 B( 18-C , 19-C ) :   1.1745
B( 19-C , 21-C ) :   1.2252 B( 20-C , 28-C ) :   1.6253 B( 20-C , 63-H ) :   0.9703
B( 21-C , 26-C ) :   1.6310 B( 21-C , 64-H ) :   0.9700 B( 22-C , 23-C ) :   1.2871
B( 22-C , 28-C ) :   1.2699 B( 22-C , 29-C ) :   1.2249 B( 23-C , 24-C ) :   1.6185
B( 23-C , 65-H ) :   0.9706 B( 24-C , 66-H ) :   0.9693 B( 25-C , 67-H ) :   0.9761
B( 25-C , 68-H ) :   0.9829 B( 25-C , 69-H ) :   0.9822 B( 26-C , 27-C ) :   1.2228
B( 26-C , 70-H ) :   0.9724 B( 27-C , 29-C ) :   1.2253 B( 28-C , 71-H ) :   0.9717
B( 29-C , 30-C ) :   1.2231 B( 30-C , 32-C ) :   1.3001 B( 31-C , 39-C ) :   1.6126
B( 31-C , 72-H ) :   0.9690 B( 32-C , 37-C ) :   1.5583 B( 32-C , 73-H ) :   0.9782
B( 33-C , 34-C ) :   1.2888 B( 33-C , 39-C ) :   1.2832 B( 33-C , 40-C ) :   1.2178
B( 34-C , 35-C ) :   1.6096 B( 34-C , 74-H ) :   0.9701 B( 35-C , 75-H ) :   0.9690
B( 36-C , 76-H ) :   0.9765 B( 36-C , 77-H ) :   0.9819 B( 36-C , 78-H ) :   0.9828
B( 37-C , 38-C ) :   1.3030 B( 37-C , 79-H ) :   0.9772 B( 38-C , 40-C ) :   1.2174
B( 39-C , 80-H ) :   0.9711 B( 40-C , 41-C ) :   1.2333 B( 41-C , 43-C ) :   1.2004
B( 42-C , 50-C ) :   1.6332 B( 42-C , 81-H ) :   0.9696 B( 43-C , 48-C ) :   1.6516
B( 43-C , 82-H ) :   0.9731 B( 44-C , 45-C ) :   1.2676 B( 44-C , 50-C ) :   1.2695
B( 44-C , 51-C ) :   1.2571 B( 45-C , 46-C ) :   1.6335 B( 45-C , 83-H ) :   0.9715
B( 46-C , 84-H ) :   0.9701 B( 47-C , 85-H ) :   0.9761 B( 47-C , 86-H ) :   0.9828
B( 47-C , 87-H ) :   0.9825 B( 48-C , 49-C ) :   1.2020 B( 48-C , 88-H ) :   0.9743
B( 49-C , 51-C ) :   1.2302 B( 50-C , 89-H ) :   0.9712

MP2 TOTAL ENERGY:    -2130.912045536 Eh
FINAL SINGLE POINT ENERGY     -2130.912045535881

DIPOLE MOMENT
-------------
                                X             Y             Z
Electronic contribution:      1.13054      -2.27460      -0.12990
Nuclear contribution   :     -0.04853       0.15216       0.15990
                        -----------------------------------------
Total Dipole Moment    :      1.08201      -2.12245       0.03000
                        -----------------------------------------
Magnitude (a.u.)       :      2.38253
Magnitude (Debye)      :      6.05590

Rotational constants in cm-1:     0.001500     0.001475     0.000761
Rotational constants in MHz :    44.972868    44.219426    22.828440

                             ****ORCA TERMINATED NORMALLY****
TOTAL RUN TIME: 0 days 1 hours 29 minutes 23 seconds 456 msec
