                         Program Version 5.0.4 -  RELEASE  -
|  1> ! PAL2
|  2> ! mp2 cc-pvdz TightSCF  NoKeepInts
|  3>
|  4> %scf
|  5>   MaxCore 2000
|  6> end
|  7> %mp2
|  8>   MaxCore 2000
|  9> end
| 10> * xyz 0 1
| 11>    C       -4.57500         5.46000        -0.85100
| 12>    C        1.47400         4.04100         0.05700
| 13>    C       -2.80200         4.09300         0.04900
| 14>    C       -2.59700         5.08700         1.01900
| 15>    C       -3.38200         6.22200         1.02400
| 16>    C       -5.20100         7.61000         0.15300
| 17>    C        0.13200         4.30700         0.06100
| 18>    C       -0.56900         3.05600         0.04700
| 19>    C        1.64900         2.61800         0.02300
| 20>    C       -3.82000         4.30500        -0.89400
| 21>    N       -4.35200         6.39900         0.09700
| 22>    N        0.38800         2.06700         0.02500
| 23>    N       -2.01000         0.39500        -0.07500
| 24>    N       -0.38800        -2.07400        -0.02700
| 25>    N        2.01000        -0.40100         0.06500
| 26>    C       -1.96000         2.86100         0.02400
| 27>    C       -2.62300         1.61500        -0.01800
| 28>    C       -5.57300        -4.32900         1.06600
| 29>    C       -4.07300         1.47100         0.05600
| 30>    C       -4.10600        -2.75600        -0.02600
| 31>    C       -4.99500        -2.75700        -1.11100
| 32>    C       -6.13200        -3.54200        -1.07600
| 33>    C       -7.65100        -5.11300         0.04000
| 34>    C       -4.32400         0.14100         0.03700
| 35>    C       -3.02500        -0.52000        -0.04800
| 36>    C       -4.42200        -3.56600         1.07500
| 37>    N       -6.40700        -4.31300         0.00100
| 38>    C       -2.86700        -1.92200        -0.04000
| 39>    C       -1.65000        -2.62400        -0.02700
| 40>    C        3.56800        -6.14200        -1.04000
| 41>    C       -1.47600        -4.04900        -0.03400
| 42>    C        2.80300        -4.09900        -0.00800
| 43>    C        3.65700        -4.38400         1.06900
| 44>    C        4.42700        -5.53000         1.05900
| 45>    C        5.24500        -7.58800         0.01400
| 46>    C       -0.13400        -4.31500        -0.02200
| 47>    C        0.56800        -3.06400        -0.02700
| 48>    C        2.77500        -5.01200        -1.07400
| 49>    N        4.37600        -6.39100         0.01700
| 50>    C        1.95900        -2.86900        -0.00900
| 51>    C        2.62100        -1.62200         0.00900
| 52>    C        5.54300         4.33900        -1.13000
| 53>    C        4.07000        -1.47900        -0.09400
| 54>    C        4.10400         2.75100        -0.02100
| 55>    C        5.02700         2.72900         1.03600
| 56>    C        6.16600         3.50900         0.97800
| 57>    C        7.61900         5.15300        -0.11500
| 58>    C        4.32100        -0.14800        -0.09200
| 59>    C        3.02500         0.51400         0.01500
| 60>    C        4.38700         3.58200        -1.11500
| 61>    C        2.86600         1.91600         0.01300
| 62>    N        6.41300         4.29600        -0.09500
| 63>    H       -5.36200         5.67100        -1.56500
| 64>    H        2.27400         4.76600         0.08100
| 65>    H       -1.83400         4.97700         1.77900
| 66>    H       -3.26800         7.01100         1.75600
| 67>    H       -6.03300         7.42900         0.83700
| 68>    H       -4.59800         8.44500         0.50800
| 69>    H       -5.57800         7.82000        -0.84800
| 70>    H       -0.33200         5.28200         0.06900
| 71>    H       -4.01800         3.58100        -1.67600
| 72>    H        0.18200         1.07200         0.00500
| 73>    H       -0.18300        -1.08000        -0.02100
| 74>    H       -5.86400        -4.96200         1.89500
| 75>    H       -4.79400         2.27200         0.13900
| 76>    H       -4.80000        -2.16000        -1.99400
| 77>    H       -6.84100        -3.58200        -1.89300
| 78>    H       -8.42800        -4.53600         0.54600
| 79>    H       -7.95600        -5.33700        -0.98100
| 80>    H       -7.45600        -6.03700         0.58400
| 81>    H       -5.28700        -0.34400         0.10000
| 82>    H       -3.78000        -3.60100         1.94700
| 83>    H        3.58700        -6.86800        -1.84300
| 84>    H       -2.27600        -4.77400        -0.05000
| 85>    H        3.71400        -3.72400         1.92600
| 86>    H        5.09200        -5.79500         1.87100
| 87>    H        6.20500        -7.32900        -0.43900
| 88>    H        5.39300        -7.91700         1.04200
| 89>    H        4.75900        -8.37300        -0.56400
| 90>    H        0.32900        -5.29000        -0.00800
| 91>    H        2.14600        -4.84200        -1.94000
| 92>    H        5.80800         4.98600        -1.95600
| 93>    H        4.78800        -2.28100        -0.18500
| 94>    H        4.86000         2.11400         1.91200
| 95>    H        6.90100         3.53100         1.77200
| 96>    H        7.38300         6.10900         0.35600
| 97>    H        8.41400         4.65200         0.43500
| 98>    H        7.92100         5.31000        -1.15000
| 99>    H        5.28300         0.33600        -0.17900
|100>    H        3.72000         3.63200        -1.96700
|101> *
|102>
|103>                          ****END OF INPUT****

CARTESIAN COORDINATES (ANGSTROEM)
---------------------------------
  C     -4.575000    5.460000   -0.851000
  C      1.474000    4.041000    0.057000
  C     -2.802000    4.093000    0.049000
  C     -2.597000    5.087000    1.019000
  C     -3.382000    6.222000    1.024000
  C     -5.201000    7.610000    0.153000
  C      0.132000    4.307000    0.061000
  C     -0.569000    3.056000    0.047000
  C      1.649000    2.618000    0.023000
  C     -3.820000    4.305000   -0.894000
  N     -4.352000    6.399000    0.097000
  N      0.388000    2.067000    0.025000
  N     -2.010000    0.395000   -0.075000
  N     -0.388000   -2.074000   -0.027000
  N      2.010000   -0.401000    0.065000
  C     -1.960000    2.861000    0.024000
  C     -2.623000    1.615000   -0.018000
  C     -5.573000   -4.329000    1.066000
  C     -4.073000    1.471000    0.056000
  C     -4.106000   -2.756000   -0.026000
  C     -4.995000   -2.757000   -1.111000
  C     -6.132000   -3.542000   -1.076000
  C     -7.651000   -5.113000    0.040000
  C     -4.324000    0.141000    0.037000
  C     -3.025000   -0.520000   -0.048000
  C     -4.422000   -3.566000    1.075000
  N     -6.407000   -4.313000    0.001000
  C     -2.867000   -1.922000   -0.040000
  C     -1.650000   -2.624000   -0.027000
  C      3.568000   -6.142000   -1.040000
  C     -1.476000   -4.049000   -0.034000
  C      2.803000   -4.099000   -0.008000
  C      3.657000   -4.384000    1.069000
  C      4.427000   -5.530000    1.059000
  C      5.245000   -7.588000    0.014000
  C     -0.134000   -4.315000   -0.022000
  C      0.568000   -3.064000   -0.027000
  C      2.775000   -5.012000   -1.074000
  N      4.376000   -6.391000    0.017000
  C      1.959000   -2.869000   -0.009000
  C      2.621000   -1.622000    0.009000
  C      5.543000    4.339000   -1.130000
  C      4.070000   -1.479000   -0.094000
  C      4.104000    2.751000   -0.021000
  C      5.027000    2.729000    1.036000
  C      6.166000    3.509000    0.978000
  C      7.619000    5.153000   -0.115000
  C      4.321000   -0.148000   -0.092000
  C      3.025000    0.514000    0.015000
  C      4.387000    3.582000   -1.115000
  C      2.866000    1.916000    0.013000
  N      6.413000    4.296000   -0.095000
  H     -5.362000    5.671000   -1.565000
  H      2.274000    4.766000    0.081000
  H     -1.834000    4.977000    1.779000
  H     -3.268000    7.011000    1.756000
  H     -6.033000    7.429000    0.837000
  H     -4.598000    8.445000    0.508000
  H     -5.578000    7.820000   -0.848000
  H     -0.332000    5.282000    0.069000
  H     -4.018000    3.581000   -1.676000
  H      0.182000    1.072000    0.005000
  H     -0.183000   -1.080000   -0.021000
  H     -5.864000   -4.962000    1.895000
  H     -4.794000    2.272000    0.139000
  H     -4.800000   -2.160000   -1.994000
  H     -6.841000   -3.582000   -1.893000
  H     -8.428000   -4.536000    0.546000
  H     -7.956000   -5.337000   -0.981000
  H     -7.456000   -6.037000    0.584000
  H     -5.287000   -0.344000    0.100000
  H     -3.780000   -3.601000    1.947000
  H      3.587000   -6.868000   -1.843000
  H     -2.276000   -4.774000   -0.050000
  H      3.714000   -3.724000    1.926000
  H      5.092000   -5.795000    1.871000
  H      6.205000   -7.329000   -0.439000
  H      5.393000   -7.917000    1.042000
  H      4.759000   -8.373000   -0.564000
  H      0.329000   -5.290000   -0.008000
  H      2.146000   -4.842000   -1.940000
  H      5.808000    4.986000   -1.956000
  H      4.788000   -2.281000   -0.185000
  H      4.860000    2.114000    1.912000
  H      6.901000    3.531000    1.772000
  H      7.383000    6.109000    0.356000
  H      8.414000    4.652000    0.435000
  H      7.921000    5.310000   -1.150000
  H      5.283000    0.336000   -0.179000
  H      3.720000    3.632000   -1.967000

 Total Charge           Charge          ....    0
 Multiplicity           Mult            ....    1
 Number of Electrons    NEL             ....  358
 Basis Dimension        Dim             ....  918

ORBITAL ENERGIES
----------------

  NO   OCC          E(Eh)            E(eV)
   0   2.0000     -15.651754      -425.9059
   1   2.0000     -15.639436      -425.5707
   2   2.0000     -15.628523      -425.2737
   3   2.0000     -15.609905      -424.7671
   4   2.0000     -15.521434      -422.3597
   5   2.0000     -15.515609      -422.2012
   6   2.0000     -15.446842      -420.3299
   7   2.0000     -15.443786      -420.2468
   8   2.0000     -11.310547      -307.7756
   9   2.0000     -11.306561      -307.6672
  10   2.0000     -11.304013      -307.5978
  11   2.0000     -11.302643      -307.5605
  12   2.0000     -11.295999      -307.3797
  13   2.0000     -11.295795      -307.3742
  14   2.0000     -11.293104      -307.3010
  15   2.0000     -11.286587      -307.1237
  16   2.0000     -11.285320      -307.0892
  17   2.0000     -11.284750      -307.0737
  18   2.0000     -11.271724      -306.7192
  19   2.0000     -11.271353      -306.7091
  20   2.0000     -11.255556      -306.2792
  21   2.0000     -11.243468      -305.9503
  22   2.0000     -11.242865      -305.9339
  23   2.0000     -11.242574      -305.9260
  24   2.0000     -11.234840      -305.7155
  25   2.0000     -11.234237      -305.6991
  26   2.0000     -11.233028      -305.6662
  27   2.0000     -11.226742      -305.4952
  28   2.0000     -11.226569      -305.4905
  29   2.0000     -11.218532      -305.2718
  30   2.0000     -11.213158      -305.1255
  31   2.0000     -11.212607      -305.1106
  32   2.0000     -11.204524      -304.8906
  33   2.0000     -11.203694      -304.8680
  34   2.0000     -11.192131      -304.5534
  35   2.0000     -11.191694      -304.5415
  36   2.0000     -11.178295      -304.1769
  37   2.0000     -11.175939      -304.1128
  38   2.0000     -11.175675      -304.1056
  39   2.0000     -11.173424      -304.0443
  40   2.0000     -11.167183      -303.8745
  41   2.0000     -11.167179      -303.8744
  42   2.0000     -11.166531      -303.8568
  43   2.0000     -11.164877      -303.8117
  44   2.0000     -11.163549      -303.7756
  45   2.0000     -11.163012      -303.7610
  46   2.0000     -11.150670      -303.4252
  47   2.0000     -11.148352      -303.3621
  48   2.0000     -11.147810      -303.3473
  49   2.0000     -11.145315      -303.2795
  50   2.0000     -11.139218      -303.1135
  51   2.0000     -11.135298      -303.0069
  52   2.0000      -1.336464       -36.3670
  53   2.0000      -1.325869       -36.0787
  54   2.0000      -1.316524       -35.8245
  55   2.0000      -1.301377       -35.4123
  56   2.0000      -1.220902       -33.2224
  57   2.0000      -1.211543       -32.9678
  58   2.0000      -1.163967       -31.6731
  59   2.0000      -1.156298       -31.4645
  60   2.0000      -1.123362       -30.5682
  61   2.0000      -1.113872       -30.3100
  62   2.0000      -1.105856       -30.0919
  63   2.0000      -1.093837       -29.7648
  64   2.0000      -1.059806       -28.8388
  65   2.0000      -1.049735       -28.5647
  66   2.0000      -1.041177       -28.3319
  67   2.0000      -1.029415       -28.0118
  68   2.0000      -1.027928       -27.9713
  69   2.0000      -1.012091       -27.5404
  70   2.0000      -1.009305       -27.4646
  71   2.0000      -0.995134       -27.0790
  72   2.0000      -0.985301       -26.8114
  73   2.0000      -0.974357       -26.5136
  74   2.0000      -0.972355       -26.4591
  75   2.0000      -0.958786       -26.0899
  76   2.0000      -0.951702       -25.8971
  77   2.0000      -0.945494       -25.7282
  78   2.0000      -0.938539       -25.5389
  79   2.0000      -0.922766       -25.1097
  80   2.0000      -0.895153       -24.3583
  81   2.0000      -0.884854       -24.0781
  82   2.0000      -0.876483       -23.8503
  83   2.0000      -0.868841       -23.6424
  84   2.0000      -0.862282       -23.4639
  85   2.0000      -0.855422       -23.2772
  86   2.0000      -0.848581       -23.0911
  87   2.0000      -0.841264       -22.8920
  88   2.0000      -0.821767       -22.3614
  89   2.0000      -0.798734       -21.7347
  90   2.0000      -0.796756       -21.6808
  91   2.0000      -0.740767       -20.1573
  92   2.0000      -0.733541       -19.9607
  93   2.0000      -0.730398       -19.8751
  94   2.0000      -0.722133       -19.6502
  95   2.0000      -0.719475       -19.5779
  96   2.0000      -0.712655       -19.3923
  97   2.0000      -0.706208       -19.2169
  98   2.0000      -0.699940       -19.0463
  99   2.0000      -0.694684       -18.9033
 100   2.0000      -0.689004       -18.7487
 101   2.0000      -0.681301       -18.5391
 102   2.0000      -0.678888       -18.4735
 103   2.0000      -0.673415       -18.3245
 104   2.0000      -0.669885       -18.2285
 105   2.0000      -0.665996       -18.1227
 106   2.0000      -0.664524       -18.0826
 107   2.0000      -0.659531       -17.9467
 108   2.0000      -0.658042       -17.9062
 109   2.0000      -0.657195       -17.8832
 110   2.0000      -0.651522       -17.7288
 111   2.0000      -0.649078       -17.6623
 112   2.0000      -0.644935       -17.5496
 113   2.0000      -0.638455       -17.3732
 114   2.0000      -0.634663       -17.2701
 115   2.0000      -0.625659       -17.0250
 116   2.0000      -0.622736       -16.9455
 117   2.0000      -0.616484       -16.7754
 118   2.0000      -0.611962       -16.6523
 119   2.0000      -0.610433       -16.6107
 120   2.0000      -0.608389       -16.5551
 121   2.0000      -0.602937       -16.4068
 122   2.0000      -0.595656       -16.2086
 123   2.0000      -0.593397       -16.1472
 124   2.0000      -0.591363       -16.0918
 125   2.0000      -0.585109       -15.9216
 126   2.0000      -0.578274       -15.7356
 127   2.0000      -0.574639       -15.6367
 128   2.0000      -0.566935       -15.4271
 129   2.0000      -0.559232       -15.2175
 130   2.0000      -0.553864       -15.0714
 131   2.0000      -0.548069       -14.9137
 132   2.0000      -0.541928       -14.7466
 133   2.0000      -0.536769       -14.6062
 134   2.0000      -0.534055       -14.5324
 135   2.0000      -0.528957       -14.3937
 136   2.0000      -0.525562       -14.3013
 137   2.0000      -0.522534       -14.2189
 138   2.0000      -0.519624       -14.1397
 139   2.0000      -0.517338       -14.0775
 140   2.0000      -0.509555       -13.8657
 141   2.0000      -0.507042       -13.7973
 142   2.0000      -0.506350       -13.7785
 143   2.0000      -0.501091       -13.6354
 144   2.0000      -0.500121       -13.6090
 145   2.0000      -0.498286       -13.5591
 146   2.0000      -0.494299       -13.4506
 147   2.0000      -0.491267       -13.3681
 148   2.0000      -0.489128       -13.3098
 149   2.0000      -0.469343       -12.7715
 150   2.0000      -0.461678       -12.5629
 151   2.0000      -0.453207       -12.3324
 152   2.0000      -0.448370       -12.2008
 153   2.0000      -0.446270       -12.1436
 154   2.0000      -0.446214       -12.1421
 155   2.0000      -0.439203       -11.9513
 156   2.0000      -0.435235       -11.8433
 157   2.0000      -0.430710       -11.7202
 158   2.0000      -0.394658       -10.7392
 159   2.0000      -0.383650       -10.4397
 160   2.0000      -0.379415       -10.3244
 161   2.0000      -0.371554       -10.1105
 162   2.0000      -0.368674       -10.0321
 163   2.0000      -0.360093        -9.7986
 164   2.0000      -0.352956        -9.6044
 165   2.0000      -0.341045        -9.2803
 166   2.0000      -0.337227        -9.1764
 167   2.0000      -0.334292        -9.0965
 168   2.0000      -0.329129        -8.9561
 169   2.0000      -0.300125        -8.1668
 170   2.0000      -0.298891        -8.1332
 171   2.0000      -0.287956        -7.8357
 172   2.0000      -0.286382        -7.7928
 173   2.0000      -0.256608        -6.9827
 174   2.0000      -0.247343        -6.7305
 175   2.0000      -0.188701        -5.1348
 176   2.0000      -0.178702        -4.8627
 177   2.0000      -0.068674        -1.8687
 178   2.0000      -0.055793        -1.5182
 179   0.0000       0.030058         0.8179
 180   0.0000       0.069692         1.8964
 181   0.0000       0.092859         2.5268
 182   0.0000       0.100384         2.7316
 183   0.0000       0.125280         3.4090

MULLIKEN ATOMIC CHARGES
-----------------------
   0 C :    0.204224
   1 N :   -0.448843
   2 C :   -0.064307
   3 N :   -0.336611
   4 C :   -0.065057
   5 N :   -0.561249
   6 C :   -0.083100
   7 N :   -0.338996
   8 C :    0.203330
   9 N :   -0.562811
  10 C :    0.116982
  11 N :   -0.437286
  12 C :   -0.074209
  13 N :   -0.435975
  14 C :    0.234955
  15 N :   -0.441068
  16 C :    0.231884
  17 C :   -0.081680
  18 C :   -0.192227
  19 C :    0.222933
  20 C :    0.211307
  21 C :   -0.081842
  22 C :   -0.086776
  23 C :   -0.045338
  24 C :    0.202308
  25 C :    0.113799
  26 C :   -0.073576
  27 C :    0.217551
  28 C :   -0.055516
  29 C :   -0.182711
  30 C :    0.239354
  31 C :    0.218806
  32 C :   -0.063520
  33 C :   -0.073704
  34 C :   -0.049603
  35 C :    0.212382
  36 C :    0.111937
  37 C :   -0.065696
  38 C :    0.235573
  39 C :   -0.060687
  40 C :   -0.185610
  41 C :    0.221651
  42 C :    0.200386
  43 C :   -0.073407
  44 C :   -0.089955
  45 C :   -0.056320
  46 C :    0.205926
  47 C :    0.115678
  48 C :   -0.072200
  49 C :    0.230540
  50 C :   -0.050263
  51 C :   -0.191262
  52 H :    0.047780
  53 H :   -0.015079
  54 H :    0.046333
  55 H :    0.046419
  56 H :    0.054565
  57 H :    0.052540
  58 H :    0.051904
  59 H :   -0.006928
  60 H :    0.044453
  61 H :    0.171917
  62 H :    0.174043
  63 H :    0.057125
  64 H :   -0.014356
  65 H :    0.046898
  66 H :    0.057552
  67 H :    0.063532
  68 H :    0.058235
  69 H :    0.058491
  70 H :   -0.026141
  71 H :    0.047720
  72 H :    0.062010
  73 H :   -0.011778
  74 H :    0.051866
  75 H :    0.061105
  76 H :    0.066833
  77 H :    0.061801
  78 H :    0.060959
  79 H :   -0.014475
  80 H :    0.052252
  81 H :    0.053577
  82 H :   -0.024455
  83 H :    0.042031
  84 H :    0.053032
  85 H :    0.059301
  86 H :    0.055693
  87 H :    0.056678
  88 H :   -0.019175
  89 H :    0.045644
Sum of atomic charges:   -0.0000000

LOEWDIN ATOMIC CHARGES
----------------------
   0 C :   -0.013406
   1 N :    0.125635
   2 C :   -0.100768
   3 N :    0.180381
   4 C :    0.016096
   5 N :   -0.134454
   6 C :   -0.030005
   7 N :    0.176730
   8 C :   -0.014127
   9 N :   -0.139406
  10 C :    0.026642
  11 N :    0.144994
  12 C :   -0.103414
  13 N :    0.150858
  14 C :   -0.040258
  15 N :    0.137979
  16 C :   -0.051732
  17 C :   -0.030653
  18 C :   -0.104448
  19 C :   -0.086752
  20 C :    0.003563
  21 C :   -0.107158
  22 C :    0.042765
  23 C :   -0.017950
  24 C :   -0.004252
  25 C :    0.030516
  26 C :   -0.105431
  27 C :   -0.103940
  28 C :   -0.022887
  29 C :   -0.103411
  30 C :   -0.040427
  31 C :    0.010590
  32 C :   -0.096595
  33 C :    0.055875
  34 C :   -0.017452
  35 C :    0.005137
  36 C :    0.031756
  37 C :   -0.098255
  38 C :   -0.044302
  39 C :   -0.022751
  40 C :   -0.108289
  41 C :   -0.094438
  42 C :   -0.008028
  43 C :   -0.103127
  44 C :    0.032587
  45 C :   -0.025011
  46 C :   -0.003266
  47 C :    0.029207
  48 C :   -0.101761
  49 C :   -0.081819
  50 C :   -0.021446
  51 C :   -0.109234
  52 H :    0.026684
  53 H :    0.003836
  54 H :    0.041559
  55 H :    0.026629
  56 H :    0.024233
  57 H :    0.028404
  58 H :    0.029230
  59 H :    0.006213
  60 H :    0.041515
  61 H :    0.060220
  62 H :    0.061101
  63 H :    0.031416
  64 H :    0.001163
  65 H :    0.045545
  66 H :    0.030375
  67 H :    0.028835
  68 H :    0.032086
  69 H :    0.031244
  70 H :   -0.002955
  71 H :    0.045057
  72 H :    0.033376
  73 H :    0.005298
  74 H :    0.047146
  75 H :    0.032701
  76 H :    0.030600
  77 H :    0.033268
  78 H :    0.032906
  79 H :    0.004024
  80 H :    0.046731
  81 H :    0.028860
  82 H :   -0.002410
  83 H :    0.042848
  84 H :    0.029179
  85 H :    0.026647
  86 H :    0.030199
  87 H :    0.031148
  88 H :    0.000153
  89 H :    0.044274

  Mayer bond orders larger than 0.100000
B(  0-C ,  1-N ) :   1.1008 B(  0-C , 17-C ) :   1.6689 B(  0-C , 52-H ) :   0.9690
B(  1-N ,  8-C ) :   1.0991 B(  1-N , 10-C ) :   0.9697 B(  2-C , 12-C ) :   1.5270
B(  2-C , 16-C ) :   1.3347 B(  2-C , 53-H ) :   0.9773 B(  3-N , 14-C ) :   1.2101
B(  3-N , 16-C ) :   1.1938 B(  3-N , 61-H ) :   0.8990 B(  4-C ,  6-C ) :   1.2369
B(  4-C , 17-C ) :   1.2384 B(  4-C , 18-C ) :   1.3409 B(  5-N , 19-C ) :   1.4346
B(  5-N , 27-C ) :   1.3939 B(  6-C ,  8-C ) :   1.6695 B(  6-C , 54-H ) :   0.9695
B(  7-N , 30-C ) :   1.1931 B(  7-N , 38-C ) :   1.1980 B(  7-N , 62-H ) :   0.8976
B(  8-C , 55-H ) :   0.9700 B(  9-N , 41-C ) :   1.4007 B(  9-N , 49-C ) :   1.4221
B( 10-C , 56-H ) :   0.9764 B( 10-C , 57-H ) :   0.9828 B( 10-C , 58-H ) :   0.9833
B( 11-N , 20-C ) :   1.1291 B( 11-N , 24-C ) :   1.1189 B( 11-N , 25-C ) :   0.9579
B( 12-C , 14-C ) :   1.3374 B( 12-C , 59-H ) :   0.9759 B( 13-N , 31-C ) :   1.1385
B( 13-N , 35-C ) :   1.1315 B( 13-N , 36-C ) :   0.9529 B( 14-C , 18-C ) :   1.1706
B( 15-N , 42-C ) :   1.1115 B( 15-N , 46-C ) :   1.1173 B( 15-N , 47-C ) :   0.9624
B( 16-C , 51-C ) :   1.1895 B( 17-C , 60-H ) :   0.9693 B( 18-C , 19-C ) :   1.1809
B( 19-C , 21-C ) :   1.2253 B( 20-C , 28-C ) :   1.6229 B( 20-C , 63-H ) :   0.9702
B( 21-C , 26-C ) :   1.6323 B( 21-C , 64-H ) :   0.9723 B( 22-C , 23-C ) :   1.2880
B( 22-C , 28-C ) :   1.2727 B( 22-C , 29-C ) :   1.2227 B( 23-C , 24-C ) :   1.6163
B( 23-C , 65-H ) :   0.9707 B( 24-C , 66-H ) :   0.9692 B( 25-C , 67-H ) :   0.9761
B( 25-C , 68-H ) :   0.9828 B( 25-C , 69-H ) :   0.9822 B( 26-C , 27-C ) :   1.2203
B( 26-C , 70-H ) :   0.9724 B( 27-C , 29-C ) :   1.2237 B( 28-C , 71-H ) :   0.9716
B( 29-C , 30-C ) :   1.2254 B( 30-C , 32-C ) :   1.2984 B( 31-C , 39-C ) :   1.6148
B( 31-C , 72-H ) :   0.9691 B( 32-C , 37-C ) :   1.5603 B( 32-C , 73-H ) :   0.9780
B( 33-C , 34-C ) :   1.2880 B( 33-C , 39-C ) :   1.2807 B( 33-C , 40-C ) :   1.2203
B( 34-C , 35-C ) :   1.6115 B( 34-C , 74-H ) :   0.9701 B( 35-C , 75-H ) :   0.9691
B( 36-C , 76-H ) :   0.9764 B( 36-C , 77-H ) :   0.9819 B( 36-C , 78-H ) :   0.9828
B( 37-C , 38-C ) :   1.3009 B( 37-C , 79-H ) :   0.9774 B( 38-C , 40-C ) :   1.2190
B( 39-C , 80-H ) :   0.9712 B( 40-C , 41-C ) :   1.2301 B( 41-C , 43-C ) :   1.2049
B( 42-C , 50-C ) :   1.6346 B( 42-C , 81-H ) :   0.9696 B( 43-C , 48-C ) :   1.6465
B( 43-C , 82-H ) :   0.9730 B( 44-C , 45-C ) :   1.2666 B( 44-C , 50-C ) :   1.2681
B( 44-C , 51-C ) :   1.2603 B( 45-C , 46-C ) :   1.6347 B( 45-C , 83-H ) :   0.9714
B( 46-C , 84-H ) :   0.9702 B( 47-C , 85-H ) :   0.9761 B( 47-C , 86-H ) :   0.9829
B( 47-C , 87-H ) :   0.9825 B( 48-C , 49-C ) :   1.2064 B( 48-C , 88-H ) :   0.9743
B( 49-C , 51-C ) :   1.2242 B( 50-C , 89-H ) :   0.9712

MP2 TOTAL ENERGY:    -2130.915999653 Eh
FINAL SINGLE POINT ENERGY     -2130.915999652532

DIPOLE MOMENT
-------------
                                X             Y             Z
Electronic contribution:      0.76041      -2.25427      -0.21426
Nuclear contribution   :      0.00997       0.19283       0.22775
                        -----------------------------------------
Total Dipole Moment    :      0.77038      -2.06144       0.01349
                        -----------------------------------------
Magnitude (a.u.)       :      2.20072
Magnitude (Debye)      :      5.59379

Rotational constants in cm-1:     0.001499     0.001475     0.000762
Rotational constants in MHz :    44.927715    44.231869    22.836461

                             ****ORCA TERMINATED NORMALLY****
TOTAL RUN TIME: 0 days 1 hours 28 minutes 43 seconds 197 msec
