                         Program Version 5.0.4 -  RELEASE  -
|  1> ! PAL2
|  2> ! mp2 cc-pvdz TightSCF  NoKeepInts
|  3>
|  4> %scf
|  5>   MaxCore 2000
|  6> end
|  7> %mp2
|  8>   MaxCore 2000
|  9> end
| 10> * xyz 0 1
| 11>    C       -3.05200         6.48700        -0.13000
| 12>    C        1.47400         4.04100         0.05700
| 13>    C       -2.80200         4.09300         0.04900
| 14>    C       -4.18100         4.01900         0.29900
| 15>    C       -4.94400         5.16900         0.32300
| 16>    C       -5.23000         7.59100         0.11000
| 17>    C        0.13200         4.30700         0.06100
| 18>    C       -0.56900         3.05600         0.04700
| 19>    C        1.64900         2.61800         0.02300
| 20>    C       -2.24800         5.36400        -0.17000
| 21>    N       -4.37800         6.38100         0.11500
| 22>    N        0.38800         2.06700         0.02500
| 23>    N       -2.01000         0.39500        -0.07500
| 24>    N       -0.38800        -2.07400        -0.02700
| 25>    N        2.01000        -0.40100         0.06500
| 26>    C       -1.96000         2.86100         0.02400
| 27>    C       -2.62300         1.61500        -0.01800
| 28>    C       -5.57300        -4.32900         1.06600
| 29>    C       -4.07300         1.47100         0.05600
| 30>    C       -4.10600        -2.75600        -0.02600
| 31>    C       -4.99500        -2.75700        -1.11100
| 32>    C       -6.13200        -3.54200        -1.07600
| 33>    C       -7.65100        -5.11300         0.04000
| 34>    C       -4.32400         0.14100         0.03700
| 35>    C       -3.02500        -0.52000        -0.04800
| 36>    C       -4.42200        -3.56600         1.07500
| 37>    N       -6.40700        -4.31300         0.00100
| 38>    C       -2.86700        -1.92200        -0.04000
| 39>    C       -1.65000        -2.62400        -0.02700
| 40>    C        3.56800        -6.14200        -1.04000
| 41>    C       -1.47600        -4.04900        -0.03400
| 42>    C        2.80300        -4.09900        -0.00800
| 43>    C        3.65700        -4.38400         1.06900
| 44>    C        4.42700        -5.53000         1.05900
| 45>    C        5.24500        -7.58800         0.01400
| 46>    C       -0.13400        -4.31500        -0.02200
| 47>    C        0.56800        -3.06400        -0.02700
| 48>    C        2.77500        -5.01200        -1.07400
| 49>    N        4.37600        -6.39100         0.01700
| 50>    C        1.95900        -2.86900        -0.00900
| 51>    C        2.62100        -1.62200         0.00900
| 52>    C        5.54300         4.33900        -1.13000
| 53>    C        4.07000        -1.47900        -0.09400
| 54>    C        4.10400         2.75100        -0.02100
| 55>    C        5.02700         2.72900         1.03600
| 56>    C        6.16600         3.50900         0.97800
| 57>    C        7.61900         5.15300        -0.11500
| 58>    C        4.32100        -0.14800        -0.09200
| 59>    C        3.02500         0.51400         0.01500
| 60>    C        4.38700         3.58200        -1.11500
| 61>    C        2.86600         1.91600         0.01300
| 62>    N        6.41300         4.29600        -0.09500
| 63>    H       -2.66600         7.48700        -0.28000
| 64>    H        2.27400         4.76600         0.08100
| 65>    H       -4.66800         3.06600         0.46600
| 66>    H       -6.01100         5.16100         0.50300
| 67>    H       -5.64600         7.72900        -0.89100
| 68>    H       -6.03200         7.45800         0.83500
| 69>    H       -4.61800         8.45100         0.38300
| 70>    H       -0.33200         5.28200         0.06900
| 71>    H       -1.18700         5.48800        -0.35400
| 72>    H        0.18200         1.07200         0.00500
| 73>    H       -0.18300        -1.08000        -0.02100
| 74>    H       -5.86400        -4.96200         1.89500
| 75>    H       -4.79400         2.27200         0.13900
| 76>    H       -4.80000        -2.16000        -1.99400
| 77>    H       -6.84100        -3.58200        -1.89300
| 78>    H       -8.42800        -4.53600         0.54600
| 79>    H       -7.95600        -5.33700        -0.98100
| 80>    H       -7.45600        -6.03700         0.58400
| 81>    H       -5.28700        -0.34400         0.10000
| 82>    H       -3.78000        -3.60100         1.94700
| 83>    H        3.58700        -6.86800        -1.84300
| 84>    H       -2.27600        -4.77400        -0.05000
| 85>    H        3.71400        -3.72400         1.92600
| 86>    H        5.09200        -5.79500         1.87100
| 87>    H        6.20500        -7.32900        -0.43900
| 88>    H        5.39300        -7.91700         1.04200
| 89>    H        4.75900        -8.37300        -0.56400
| 90>    H        0.32900        -5.29000        -0.00800
| 91>    H        2.14600        -4.84200        -1.94000
| 92>    H        5.80800         4.98600        -1.95600
| 93>    H        4.78800        -2.28100        -0.18500
| 94>    H        4.86000         2.11400         1.91200
| 95>    H        6.90100         3.53100         1.77200
| 96>    H        7.38300         6.10900         0.35600
| 97>    H        8.41400         4.65200         0.43500
| 98>    H        7.92100         5.31000        -1.15000
| 99>    H        5.28300         0.33600        -0.17900
|100>    H        3.72000         3.63200        -1.96700
|101> *
|102>
|103>                          ****END OF INPUT****

CARTESIAN COORDINATES (ANGSTROEM)
---------------------------------
  C     -3.052000    6.487000   -0.130000
  C      1.474000    4.041000    0.057000
  C     -2.802000    4.093000    0.049000
  C     -4.181000    4.019000    0.299000
  C     -4.944000    5.169000    0.323000
  C     -5.230000    7.591000    0.110000
  C      0.132000    4.307000    0.061000
  C     -0.569000    3.056000    0.047000
  C      1.649000    2.618000    0.023000
  C     -2.248000    5.364000   -0.170000
  N     -4.378000    6.381000    0.115000
  N      0.388000    2.067000    0.025000
  N     -2.010000    0.395000   -0.075000
  N     -0.388000   -2.074000   -0.027000
  N      2.010000   -0.401000    0.065000
  C     -1.960000    2.861000    0.024000
  C     -2.623000    1.615000   -0.018000
  C     -5.573000   -4.329000    1.066000
  C     -4.073000    1.471000    0.056000
  C     -4.106000   -2.756000   -0.026000
  C     -4.995000   -2.757000   -1.111000
  C     -6.132000   -3.542000   -1.076000
  C     -7.651000   -5.113000    0.040000
  C     -4.324000    0.141000    0.037000
  C     -3.025000   -0.520000   -0.048000
  C     -4.422000   -3.566000    1.075000
  N     -6.407000   -4.313000    0.001000
  C     -2.867000   -1.922000   -0.040000
  C     -1.650000   -2.624000   -0.027000
  C      3.568000   -6.142000   -1.040000
  C     -1.476000   -4.049000   -0.034000
  C      2.803000   -4.099000   -0.008000
  C      3.657000   -4.384000    1.069000
  C      4.427000   -5.530000    1.059000
  C      5.245000   -7.588000    0.014000
  C     -0.134000   -4.315000   -0.022000
  C      0.568000   -3.064000   -0.027000
  C      2.775000   -5.012000   -1.074000
  N      4.376000   -6.391000    0.017000
  C      1.959000   -2.869000   -0.009000
  C      2.621000   -1.622000    0.009000
  C      5.543000    4.339000   -1.130000
  C      4.070000   -1.479000   -0.094000
  C      4.104000    2.751000   -0.021000
  C      5.027000    2.729000    1.036000
  C      6.166000    3.509000    0.978000
  C      7.619000    5.153000   -0.115000
  C      4.321000   -0.148000   -0.092000
  C      3.025000    0.514000    0.015000
  C      4.387000    3.582000   -1.115000
  C      2.866000    1.916000    0.013000
  N      6.413000    4.296000   -0.095000
  H     -2.666000    7.487000   -0.280000
  H      2.274000    4.766000    0.081000
  H     -4.668000    3.066000    0.466000
  H     -6.011000    5.161000    0.503000
  H     -5.646000    7.729000   -0.891000
  H     -6.032000    7.458000    0.835000
  H     -4.618000    8.451000    0.383000
  H     -0.332000    5.282000    0.069000
  H     -1.187000    5.488000   -0.354000
  H      0.182000    1.072000    0.005000
  H     -0.183000   -1.080000   -0.021000
  H     -5.864000   -4.962000    1.895000
  H     -4.794000    2.272000    0.139000
  H     -4.800000   -2.160000   -1.994000
  H     -6.841000   -3.582000   -1.893000
  H     -8.428000   -4.536000    0.546000
  H     -7.956000   -5.337000   -0.981000
  H     -7.456000   -6.037000    0.584000
  H     -5.287000   -0.344000    0.100000
  H     -3.780000   -3.601000    1.947000
  H      3.587000   -6.868000   -1.843000
  H     -2.276000   -4.774000   -0.050000
  H      3.714000   -3.724000    1.926000
  H      5.092000   -5.795000    1.871000
  H      6.205000   -7.329000   -0.439000
  H      5.393000   -7.917000    1.042000
  H      4.759000   -8.373000   -0.564000
  H      0.329000   -5.290000   -0.008000
  H      2.146000   -4.842000   -1.940000
  H      5.808000    4.986000   -1.956000
  H      4.788000   -2.281000   -0.185000
  H      4.860000    2.114000    1.912000
  H      6.901000    3.531000    1.772000
  H      7.383000    6.109000    0.356000
  H      8.414000    4.652000    0.435000
  H      7.921000    5.310000   -1.150000
  H      5.283000    0.336000   -0.179000
  H      3.720000    3.632000   -1.967000

 Total Charge           Charge          ....    0
 Multiplicity           Mult            ....    1
 Number of Electrons    NEL             ....  358
 Basis Dimension        Dim             ....  918

ORBITAL ENERGIES
----------------

  NO   OCC          E(Eh)            E(eV)
   0   2.0000     -15.679928      -426.6725
   1   2.0000     -15.633016      -425.3960
   2   2.0000     -15.632793      -425.3899
   3   2.0000     -15.588151      -424.1751
   4   2.0000     -15.524862      -422.4530
   5   2.0000     -15.515597      -422.2009
   6   2.0000     -15.454129      -420.5282
   7   2.0000     -15.439396      -420.1273
   8   2.0000     -11.329393      -308.2884
   9   2.0000     -11.328631      -308.2677
  10   2.0000     -11.328018      -308.2510
  11   2.0000     -11.299101      -307.4642
  12   2.0000     -11.298594      -307.4504
  13   2.0000     -11.292233      -307.2773
  14   2.0000     -11.292039      -307.2720
  15   2.0000     -11.287522      -307.1491
  16   2.0000     -11.285512      -307.0944
  17   2.0000     -11.282163      -307.0032
  18   2.0000     -11.269859      -306.6685
  19   2.0000     -11.263457      -306.4943
  20   2.0000     -11.262453      -306.4669
  21   2.0000     -11.251872      -306.1790
  22   2.0000     -11.248270      -306.0810
  23   2.0000     -11.237735      -305.7943
  24   2.0000     -11.236612      -305.7638
  25   2.0000     -11.230613      -305.6005
  26   2.0000     -11.230454      -305.5962
  27   2.0000     -11.230249      -305.5906
  28   2.0000     -11.229489      -305.5699
  29   2.0000     -11.210659      -305.0575
  30   2.0000     -11.209354      -305.0220
  31   2.0000     -11.194146      -304.6082
  32   2.0000     -11.191686      -304.5413
  33   2.0000     -11.191532      -304.5371
  34   2.0000     -11.188953      -304.4669
  35   2.0000     -11.188355      -304.4506
  36   2.0000     -11.187520      -304.4279
  37   2.0000     -11.175766      -304.1081
  38   2.0000     -11.174460      -304.0725
  39   2.0000     -11.171448      -303.9905
  40   2.0000     -11.171427      -303.9900
  41   2.0000     -11.169970      -303.9503
  42   2.0000     -11.167865      -303.8930
  43   2.0000     -11.162366      -303.7434
  44   2.0000     -11.160472      -303.6919
  45   2.0000     -11.157283      -303.6051
  46   2.0000     -11.156196      -303.5755
  47   2.0000     -11.151883      -303.4582
  48   2.0000     -11.147263      -303.3325
  49   2.0000     -11.135360      -303.0085
  50   2.0000     -11.129102      -302.8383
  51   2.0000     -11.117022      -302.5095
  52   2.0000      -1.360498       -37.0210
  53   2.0000      -1.320631       -35.9362
  54   2.0000      -1.320208       -35.9247
  55   2.0000      -1.280306       -34.8389
  56   2.0000      -1.225915       -33.3588
  57   2.0000      -1.210421       -32.9372
  58   2.0000      -1.173859       -31.9423
  59   2.0000      -1.150481       -31.3062
  60   2.0000      -1.143768       -31.1235
  61   2.0000      -1.110440       -30.2166
  62   2.0000      -1.108786       -30.1716
  63   2.0000      -1.082180       -29.4476
  64   2.0000      -1.077274       -29.3141
  65   2.0000      -1.045227       -28.4421
  66   2.0000      -1.044442       -28.4207
  67   2.0000      -1.041190       -28.3322
  68   2.0000      -1.014956       -27.6184
  69   2.0000      -1.013814       -27.5873
  70   2.0000      -1.009055       -27.4578
  71   2.0000      -0.993299       -27.0290
  72   2.0000      -0.985647       -26.8208
  73   2.0000      -0.981705       -26.7135
  74   2.0000      -0.973331       -26.4857
  75   2.0000      -0.962465       -26.1900
  76   2.0000      -0.954989       -25.9866
  77   2.0000      -0.946064       -25.7437
  78   2.0000      -0.938583       -25.5401
  79   2.0000      -0.916908       -24.9503
  80   2.0000      -0.910633       -24.7796
  81   2.0000      -0.897373       -24.4187
  82   2.0000      -0.876918       -23.8621
  83   2.0000      -0.871698       -23.7201
  84   2.0000      -0.871105       -23.7040
  85   2.0000      -0.860529       -23.4162
  86   2.0000      -0.844630       -22.9836
  87   2.0000      -0.836229       -22.7549
  88   2.0000      -0.828380       -22.5414
  89   2.0000      -0.796541       -21.6750
  90   2.0000      -0.789151       -21.4739
  91   2.0000      -0.767930       -20.8964
  92   2.0000      -0.753040       -20.4913
  93   2.0000      -0.733617       -19.9627
  94   2.0000      -0.727315       -19.7912
  95   2.0000      -0.724916       -19.7260
  96   2.0000      -0.719710       -19.5843
  97   2.0000      -0.717444       -19.5226
  98   2.0000      -0.713751       -19.4221
  99   2.0000      -0.698681       -19.0121
 100   2.0000      -0.698148       -18.9976
 101   2.0000      -0.694100       -18.8874
 102   2.0000      -0.685362       -18.6497
 103   2.0000      -0.684436       -18.6245
 104   2.0000      -0.678723       -18.4690
 105   2.0000      -0.674604       -18.3569
 106   2.0000      -0.672791       -18.3076
 107   2.0000      -0.660721       -17.9791
 108   2.0000      -0.658133       -17.9087
 109   2.0000      -0.652872       -17.7655
 110   2.0000      -0.652017       -17.7423
 111   2.0000      -0.646260       -17.5856
 112   2.0000      -0.645619       -17.5682
 113   2.0000      -0.637670       -17.3519
 114   2.0000      -0.635946       -17.3050
 115   2.0000      -0.628583       -17.1046
 116   2.0000      -0.623233       -16.9590
 117   2.0000      -0.620757       -16.8917
 118   2.0000      -0.612972       -16.6798
 119   2.0000      -0.612370       -16.6634
 120   2.0000      -0.611505       -16.6399
 121   2.0000      -0.611373       -16.6363
 122   2.0000      -0.601563       -16.3694
 123   2.0000      -0.588531       -16.0147
 124   2.0000      -0.581481       -15.8229
 125   2.0000      -0.580838       -15.8054
 126   2.0000      -0.580089       -15.7850
 127   2.0000      -0.571272       -15.5451
 128   2.0000      -0.567369       -15.4389
 129   2.0000      -0.560036       -15.2393
 130   2.0000      -0.554611       -15.0917
 131   2.0000      -0.547954       -14.9106
 132   2.0000      -0.542716       -14.7681
 133   2.0000      -0.540594       -14.7103
 134   2.0000      -0.538272       -14.6471
 135   2.0000      -0.536482       -14.5984
 136   2.0000      -0.531439       -14.4612
 137   2.0000      -0.518800       -14.1173
 138   2.0000      -0.516463       -14.0537
 139   2.0000      -0.514897       -14.0111
 140   2.0000      -0.512378       -13.9425
 141   2.0000      -0.510107       -13.8807
 142   2.0000      -0.507762       -13.8169
 143   2.0000      -0.505221       -13.7478
 144   2.0000      -0.502620       -13.6770
 145   2.0000      -0.495720       -13.4892
 146   2.0000      -0.488495       -13.2926
 147   2.0000      -0.481338       -13.0979
 148   2.0000      -0.477424       -12.9914
 149   2.0000      -0.467809       -12.7297
 150   2.0000      -0.466397       -12.6913
 151   2.0000      -0.456836       -12.4311
 152   2.0000      -0.451862       -12.2958
 153   2.0000      -0.444834       -12.1046
 154   2.0000      -0.438265       -11.9258
 155   2.0000      -0.427500       -11.6329
 156   2.0000      -0.409679       -11.1479
 157   2.0000      -0.397261       -10.8100
 158   2.0000      -0.390323       -10.6212
 159   2.0000      -0.387744       -10.5510
 160   2.0000      -0.378719       -10.3055
 161   2.0000      -0.373947       -10.1756
 162   2.0000      -0.365730        -9.9520
 163   2.0000      -0.356782        -9.7085
 164   2.0000      -0.355741        -9.6802
 165   2.0000      -0.342186        -9.3113
 166   2.0000      -0.337645        -9.1878
 167   2.0000      -0.324449        -8.8287
 168   2.0000      -0.321305        -8.7432
 169   2.0000      -0.305086        -8.3018
 170   2.0000      -0.299491        -8.1496
 171   2.0000      -0.285646        -7.7728
 172   2.0000      -0.278691        -7.5836
 173   2.0000      -0.263911        -7.1814
 174   2.0000      -0.241652        -6.5757
 175   2.0000      -0.189963        -5.1692
 176   2.0000      -0.181130        -4.9288
 177   2.0000      -0.079576        -2.1654
 178   2.0000      -0.059761        -1.6262
 179   0.0000       0.028347         0.7714
 180   0.0000       0.065310         1.7772
 181   0.0000       0.090155         2.4533
 182   0.0000       0.106168         2.8890
 183   0.0000       0.115729         3.1492

MULLIKEN ATOMIC CHARGES
-----------------------
   0 C :    0.220440
   1 N :   -0.455932
   2 C :   -0.072207
   3 N :   -0.341300
   4 C :   -0.073731
   5 N :   -0.568317
   6 C :   -0.100879
   7 N :   -0.340986
   8 C :    0.213025
   9 N :   -0.562139
  10 C :    0.119214
  11 N :   -0.438711
  12 C :   -0.055547
  13 N :   -0.429327
  14 C :    0.219926
  15 N :   -0.440663
  16 C :    0.231530
  17 C :   -0.117768
  18 C :   -0.181108
  19 C :    0.214490
  20 C :    0.213236
  21 C :   -0.054809
  22 C :   -0.091212
  23 C :   -0.039520
  24 C :    0.193031
  25 C :    0.114753
  26 C :   -0.089952
  27 C :    0.216890
  28 C :   -0.061932
  29 C :   -0.182247
  30 C :    0.246110
  31 C :    0.229936
  32 C :   -0.061811
  33 C :   -0.060006
  34 C :   -0.051676
  35 C :    0.229184
  36 C :    0.108184
  37 C :   -0.064276
  38 C :    0.230560
  39 C :   -0.057223
  40 C :   -0.181557
  41 C :    0.226507
  42 C :    0.197691
  43 C :   -0.072325
  44 C :   -0.088940
  45 C :   -0.061626
  46 C :    0.212463
  47 C :    0.115185
  48 C :   -0.066502
  49 C :    0.238884
  50 C :   -0.046066
  51 C :   -0.192723
  52 H :    0.035016
  53 H :   -0.018117
  54 H :    0.045397
  55 H :    0.033552
  56 H :    0.049496
  57 H :    0.047593
  58 H :    0.046698
  59 H :   -0.012597
  60 H :    0.042499
  61 H :    0.171216
  62 H :    0.175406
  63 H :    0.054819
  64 H :   -0.035301
  65 H :    0.046843
  66 H :    0.055190
  67 H :    0.062057
  68 H :    0.056966
  69 H :    0.056045
  70 H :   -0.030581
  71 H :    0.044301
  72 H :    0.071487
  73 H :   -0.007923
  74 H :    0.060544
  75 H :    0.070984
  76 H :    0.075092
  77 H :    0.068132
  78 H :    0.067485
  79 H :   -0.016862
  80 H :    0.061565
  81 H :    0.054820
  82 H :   -0.024729
  83 H :    0.042389
  84 H :    0.054714
  85 H :    0.061336
  86 H :    0.055841
  87 H :    0.057530
  88 H :   -0.014346
  89 H :    0.047222
Sum of atomic charges:    0.0000000

LOEWDIN ATOMIC CHARGES
----------------------
   0 C :   -0.017117
   1 N :    0.121178
   2 C :   -0.100508
   3 N :    0.182507
   4 C :   -0.011349
   5 N :   -0.134514
   6 C :   -0.016585
   7 N :    0.175011
   8 C :   -0.022510
   9 N :   -0.140588
  10 C :    0.023035
  11 N :    0.141231
  12 C :   -0.104982
  13 N :    0.166526
  14 C :   -0.016515
  15 N :    0.139556
  16 C :   -0.061159
  17 C :   -0.034653
  18 C :   -0.112088
  19 C :   -0.074256
  20 C :    0.004205
  21 C :   -0.102034
  22 C :    0.036254
  23 C :   -0.014619
  24 C :   -0.013438
  25 C :    0.029647
  26 C :   -0.108296
  27 C :   -0.116952
  28 C :   -0.028009
  29 C :   -0.100061
  30 C :   -0.029211
  31 C :    0.024176
  32 C :   -0.094711
  33 C :    0.082460
  34 C :   -0.015404
  35 C :    0.023859
  36 C :    0.035306
  37 C :   -0.093948
  38 C :   -0.053120
  39 C :   -0.017244
  40 C :   -0.108759
  41 C :   -0.090372
  42 C :   -0.009908
  43 C :   -0.099008
  44 C :    0.034881
  45 C :   -0.028088
  46 C :    0.002920
  47 C :    0.029683
  48 C :   -0.094354
  49 C :   -0.069225
  50 C :   -0.018380
  51 C :   -0.108221
  52 H :    0.022191
  53 H :    0.002476
  54 H :   -0.008821
  55 H :    0.021841
  56 H :    0.021981
  57 H :    0.026181
  58 H :    0.026770
  59 H :    0.004954
  60 H :    0.006534
  61 H :    0.060208
  62 H :    0.061847
  63 H :    0.030523
  64 H :   -0.002309
  65 H :    0.045793
  66 H :    0.029027
  67 H :    0.028034
  68 H :    0.031503
  69 H :    0.030142
  70 H :   -0.004969
  71 H :    0.043253
  72 H :    0.037776
  73 H :    0.007176
  74 H :    0.050715
  75 H :    0.037526
  76 H :    0.034897
  77 H :    0.036250
  78 H :    0.035955
  79 H :    0.002841
  80 H :    0.050885
  81 H :    0.029279
  82 H :   -0.002673
  83 H :    0.042693
  84 H :    0.030141
  85 H :    0.027618
  86 H :    0.030324
  87 H :    0.031553
  88 H :    0.002456
  89 H :    0.045180

  Mayer bond orders larger than 0.100000
B(  0-C ,  1-N ) :   1.1014 B(  0-C , 17-C ) :   1.7129 B(  0-C , 52-H ) :   0.9624
B(  1-N ,  8-C ) :   1.0892 B(  1-N , 10-C ) :   0.9772 B(  2-C , 12-C ) :   1.4899
B(  2-C , 16-C ) :   1.3716 B(  2-C , 53-H ) :   0.9722 B(  3-N , 14-C ) :   1.2223
B(  3-N , 16-C ) :   1.1800 B(  3-N , 61-H ) :   0.8986 B(  4-C ,  6-C ) :   1.2180
B(  4-C , 17-C ) :   1.2195 B(  4-C , 18-C ) :   1.4749 B(  5-N , 19-C ) :   1.4600
B(  5-N , 27-C ) :   1.3704 B(  6-C ,  8-C ) :   1.7263 B(  6-C , 54-H ) :   0.8685
B(  7-N , 30-C ) :   1.1959 B(  7-N , 38-C ) :   1.1889 B(  7-N , 62-H ) :   0.8968
B(  8-C , 55-H ) :   0.9618 B(  9-N , 41-C ) :   1.3951 B(  9-N , 49-C ) :   1.4242
B( 10-C , 56-H ) :   0.9776 B( 10-C , 57-H ) :   0.9823 B( 10-C , 58-H ) :   0.9841
B( 11-N , 20-C ) :   1.1304 B( 11-N , 24-C ) :   1.1058 B( 11-N , 25-C ) :   0.9607
B( 12-C , 14-C ) :   1.3575 B( 12-C , 59-H ) :   0.9325 B( 13-N , 31-C ) :   1.1613
B( 13-N , 35-C ) :   1.1613 B( 13-N , 36-C ) :   0.9412 B( 14-C , 18-C ) :   1.1192
B( 15-N , 42-C ) :   1.1086 B( 15-N , 46-C ) :   1.1258 B( 15-N , 47-C ) :   0.9607
B( 16-C , 51-C ) :   1.1683 B( 17-C , 60-H ) :   0.8977 B( 18-C , 19-C ) :   1.1170
B( 19-C , 21-C ) :   1.2546 B( 20-C , 28-C ) :   1.6298 B( 20-C , 63-H ) :   0.9703
B( 21-C , 26-C ) :   1.5767 B( 21-C , 64-H ) :   0.9045 B( 22-C , 23-C ) :   1.2883
B( 22-C , 28-C ) :   1.2626 B( 22-C , 29-C ) :   1.2281 B( 23-C , 24-C ) :   1.6215
B( 23-C , 65-H ) :   0.9703 B( 24-C , 66-H ) :   0.9696 B( 25-C , 67-H ) :   0.9761
B( 25-C , 68-H ) :   0.9828 B( 25-C , 69-H ) :   0.9824 B( 26-C , 27-C ) :   1.2647
B( 26-C , 70-H ) :   0.9670 B( 27-C , 29-C ) :   1.2044 B( 28-C , 71-H ) :   0.9720
B( 29-C , 30-C ) :   1.2469 B( 30-C , 32-C ) :   1.2790 B( 31-C , 39-C ) :   1.5872
B( 31-C , 72-H ) :   0.9681 B( 32-C , 37-C ) :   1.5794 B( 32-C , 73-H ) :   0.9787
B( 33-C , 34-C ) :   1.3067 B( 33-C , 39-C ) :   1.3049 B( 33-C , 40-C ) :   1.1759
B( 34-C , 35-C ) :   1.5852 B( 34-C , 74-H ) :   0.9696 B( 35-C , 75-H ) :   0.9681
B( 36-C , 76-H ) :   0.9768 B( 36-C , 77-H ) :   0.9816 B( 36-C , 78-H ) :   0.9823
B( 37-C , 38-C ) :   1.2855 B( 37-C , 79-H ) :   0.9764 B( 38-C , 40-C ) :   1.2337
B( 39-C , 80-H ) :   0.9705 B( 40-C , 41-C ) :   1.2510 B( 41-C , 43-C ) :   1.1833
B( 42-C , 50-C ) :   1.6316 B( 42-C , 81-H ) :   0.9696 B( 43-C , 48-C ) :   1.6698
B( 43-C , 82-H ) :   0.9721 B( 44-C , 45-C ) :   1.2644 B( 44-C , 50-C ) :   1.2738
B( 44-C , 51-C ) :   1.2582 B( 45-C , 46-C ) :   1.6333 B( 45-C , 83-H ) :   0.9718
B( 46-C , 84-H ) :   0.9699 B( 47-C , 85-H ) :   0.9762 B( 47-C , 86-H ) :   0.9829
B( 47-C , 87-H ) :   0.9824 B( 48-C , 49-C ) :   1.1867 B( 48-C , 88-H ) :   0.9748
B( 49-C , 51-C ) :   1.2463 B( 50-C , 89-H ) :   0.9708 B( 54-H , 64-H ) :   0.1126

MP2 TOTAL ENERGY:    -2130.775873400 Eh
FINAL SINGLE POINT ENERGY     -2130.775873399582

DIPOLE MOMENT
-------------
                                X             Y             Z
Electronic contribution:      2.96889      -4.23735      -0.09658
Nuclear contribution   :     -0.04177       0.15688       0.11240
                        -----------------------------------------
Total Dipole Moment    :      2.92712      -4.08046       0.01582
                        -----------------------------------------
Magnitude (a.u.)       :      5.02180
Magnitude (Debye)      :     12.76440

Rotational constants in cm-1:     0.001503     0.001478     0.000760
Rotational constants in MHz :    45.065404    44.297788    22.783410

                             ****ORCA TERMINATED NORMALLY****
TOTAL RUN TIME: 0 days 1 hours 9 minutes 57 seconds 611 msec
