                         Program Version 5.0.4 -  RELEASE  -
|  1> ! PAL2
|  2> ! mp2 cc-pvdz TightSCF  NoKeepInts
|  3>
|  4> %scf
|  5>   MaxCore 2000
|  6> end
|  7> %mp2
|  8>   MaxCore 2000
|  9> end
| 10> * xyz 0 1
| 11>    C       -3.35800         6.25500         0.96500
| 12>    C        1.47400         4.04100         0.05700
| 13>    C       -2.80200         4.09300         0.04900
| 14>    C       -3.87800         4.24900        -0.83900
| 15>    C       -4.64900         5.39300        -0.79900
| 16>    C       -5.21000         7.60500         0.08800
| 17>    C        0.13200         4.30700         0.06100
| 18>    C       -0.56900         3.05600         0.04700
| 19>    C        1.64900         2.61800         0.02300
| 20>    C       -2.55400         5.13200         0.95900
| 21>    N       -4.38800         6.37500         0.09600
| 22>    N        0.38800         2.06700         0.02500
| 23>    N       -2.01000         0.39500        -0.07500
| 24>    N       -0.38800        -2.07400        -0.02700
| 25>    N        2.01000        -0.40100         0.06500
| 26>    C       -1.96000         2.86100         0.02400
| 27>    C       -2.62300         1.61500        -0.01800
| 28>    C       -5.57300        -4.32900         1.06600
| 29>    C       -4.07300         1.47100         0.05600
| 30>    C       -4.10600        -2.75600        -0.02600
| 31>    C       -4.99500        -2.75700        -1.11100
| 32>    C       -6.13200        -3.54200        -1.07600
| 33>    C       -7.65100        -5.11300         0.04000
| 34>    C       -4.32400         0.14100         0.03700
| 35>    C       -3.02500        -0.52000        -0.04800
| 36>    C       -4.42200        -3.56600         1.07500
| 37>    N       -6.40700        -4.31300         0.00100
| 38>    C       -2.86700        -1.92200        -0.04000
| 39>    C       -1.65000        -2.62400        -0.02700
| 40>    C        3.56800        -6.14200        -1.04000
| 41>    C       -1.47600        -4.04900        -0.03400
| 42>    C        2.80300        -4.09900        -0.00800
| 43>    C        3.65700        -4.38400         1.06900
| 44>    C        4.42700        -5.53000         1.05900
| 45>    C        5.24500        -7.58800         0.01400
| 46>    C       -0.13400        -4.31500        -0.02200
| 47>    C        0.56800        -3.06400        -0.02700
| 48>    C        2.77500        -5.01200        -1.07400
| 49>    N        4.37600        -6.39100         0.01700
| 50>    C        1.95900        -2.86900        -0.00900
| 51>    C        2.62100        -1.62200         0.00900
| 52>    C        5.54300         4.33900        -1.13000
| 53>    C        4.07000        -1.47900        -0.09400
| 54>    C        4.10400         2.75100        -0.02100
| 55>    C        5.02700         2.72900         1.03600
| 56>    C        6.16600         3.50900         0.97800
| 57>    C        7.61900         5.15300        -0.11500
| 58>    C        4.32100        -0.14800        -0.09200
| 59>    C        3.02500         0.51400         0.01500
| 60>    C        4.38700         3.58200        -1.11500
| 61>    C        2.86600         1.91600         0.01300
| 62>    N        6.41300         4.29600        -0.09500
| 63>    H       -3.21200         7.07500         1.65700
| 64>    H        2.27400         4.76600         0.08100
| 65>    H       -4.11300         3.48700        -1.57100
| 66>    H       -5.48300         5.56300        -1.46800
| 67>    H       -4.79700         8.30400        -0.64200
| 68>    H       -6.23200         7.34200        -0.18100
| 69>    H       -5.18800         8.04700         1.08400
| 70>    H       -0.33200         5.28200         0.06900
| 71>    H       -1.74700         5.06500         1.68000
| 72>    H        0.18200         1.07200         0.00500
| 73>    H       -0.18300        -1.08000        -0.02100
| 74>    H       -5.86400        -4.96200         1.89500
| 75>    H       -4.79400         2.27200         0.13900
| 76>    H       -4.80000        -2.16000        -1.99400
| 77>    H       -6.84100        -3.58200        -1.89300
| 78>    H       -8.42800        -4.53600         0.54600
| 79>    H       -7.95600        -5.33700        -0.98100
| 80>    H       -7.45600        -6.03700         0.58400
| 81>    H       -5.28700        -0.34400         0.10000
| 82>    H       -3.78000        -3.60100         1.94700
| 83>    H        3.58700        -6.86800        -1.84300
| 84>    H       -2.27600        -4.77400        -0.05000
| 85>    H        3.71400        -3.72400         1.92600
| 86>    H        5.09200        -5.79500         1.87100
| 87>    H        6.20500        -7.32900        -0.43900
| 88>    H        5.39300        -7.91700         1.04200
| 89>    H        4.75900        -8.37300        -0.56400
| 90>    H        0.32900        -5.29000        -0.00800
| 91>    H        2.14600        -4.84200        -1.94000
| 92>    H        5.80800         4.98600        -1.95600
| 93>    H        4.78800        -2.28100        -0.18500
| 94>    H        4.86000         2.11400         1.91200
| 95>    H        6.90100         3.53100         1.77200
| 96>    H        7.38300         6.10900         0.35600
| 97>    H        8.41400         4.65200         0.43500
| 98>    H        7.92100         5.31000        -1.15000
| 99>    H        5.28300         0.33600        -0.17900
|100>    H        3.72000         3.63200        -1.96700
|101> *
|102>
|103>                          ****END OF INPUT****

CARTESIAN COORDINATES (ANGSTROEM)
---------------------------------
  C     -3.358000    6.255000    0.965000
  C      1.474000    4.041000    0.057000
  C     -2.802000    4.093000    0.049000
  C     -3.878000    4.249000   -0.839000
  C     -4.649000    5.393000   -0.799000
  C     -5.210000    7.605000    0.088000
  C      0.132000    4.307000    0.061000
  C     -0.569000    3.056000    0.047000
  C      1.649000    2.618000    0.023000
  C     -2.554000    5.132000    0.959000
  N     -4.388000    6.375000    0.096000
  N      0.388000    2.067000    0.025000
  N     -2.010000    0.395000   -0.075000
  N     -0.388000   -2.074000   -0.027000
  N      2.010000   -0.401000    0.065000
  C     -1.960000    2.861000    0.024000
  C     -2.623000    1.615000   -0.018000
  C     -5.573000   -4.329000    1.066000
  C     -4.073000    1.471000    0.056000
  C     -4.106000   -2.756000   -0.026000
  C     -4.995000   -2.757000   -1.111000
  C     -6.132000   -3.542000   -1.076000
  C     -7.651000   -5.113000    0.040000
  C     -4.324000    0.141000    0.037000
  C     -3.025000   -0.520000   -0.048000
  C     -4.422000   -3.566000    1.075000
  N     -6.407000   -4.313000    0.001000
  C     -2.867000   -1.922000   -0.040000
  C     -1.650000   -2.624000   -0.027000
  C      3.568000   -6.142000   -1.040000
  C     -1.476000   -4.049000   -0.034000
  C      2.803000   -4.099000   -0.008000
  C      3.657000   -4.384000    1.069000
  C      4.427000   -5.530000    1.059000
  C      5.245000   -7.588000    0.014000
  C     -0.134000   -4.315000   -0.022000
  C      0.568000   -3.064000   -0.027000
  C      2.775000   -5.012000   -1.074000
  N      4.376000   -6.391000    0.017000
  C      1.959000   -2.869000   -0.009000
  C      2.621000   -1.622000    0.009000
  C      5.543000    4.339000   -1.130000
  C      4.070000   -1.479000   -0.094000
  C      4.104000    2.751000   -0.021000
  C      5.027000    2.729000    1.036000
  C      6.166000    3.509000    0.978000
  C      7.619000    5.153000   -0.115000
  C      4.321000   -0.148000   -0.092000
  C      3.025000    0.514000    0.015000
  C      4.387000    3.582000   -1.115000
  C      2.866000    1.916000    0.013000
  N      6.413000    4.296000   -0.095000
  H     -3.212000    7.075000    1.657000
  H      2.274000    4.766000    0.081000
  H     -4.113000    3.487000   -1.571000
  H     -5.483000    5.563000   -1.468000
  H     -4.797000    8.304000   -0.642000
  H     -6.232000    7.342000   -0.181000
  H     -5.188000    8.047000    1.084000
  H     -0.332000    5.282000    0.069000
  H     -1.747000    5.065000    1.680000
  H      0.182000    1.072000    0.005000
  H     -0.183000   -1.080000   -0.021000
  H     -5.864000   -4.962000    1.895000
  H     -4.794000    2.272000    0.139000
  H     -4.800000   -2.160000   -1.994000
  H     -6.841000   -3.582000   -1.893000
  H     -8.428000   -4.536000    0.546000
  H     -7.956000   -5.337000   -0.981000
  H     -7.456000   -6.037000    0.584000
  H     -5.287000   -0.344000    0.100000
  H     -3.780000   -3.601000    1.947000
  H      3.587000   -6.868000   -1.843000
  H     -2.276000   -4.774000   -0.050000
  H      3.714000   -3.724000    1.926000
  H      5.092000   -5.795000    1.871000
  H      6.205000   -7.329000   -0.439000
  H      5.393000   -7.917000    1.042000
  H      4.759000   -8.373000   -0.564000
  H      0.329000   -5.290000   -0.008000
  H      2.146000   -4.842000   -1.940000
  H      5.808000    4.986000   -1.956000
  H      4.788000   -2.281000   -0.185000
  H      4.860000    2.114000    1.912000
  H      6.901000    3.531000    1.772000
  H      7.383000    6.109000    0.356000
  H      8.414000    4.652000    0.435000
  H      7.921000    5.310000   -1.150000
  H      5.283000    0.336000   -0.179000
  H      3.720000    3.632000   -1.967000

 Total Charge           Charge          ....    0
 Multiplicity           Mult            ....    1
 Number of Electrons    NEL             ....  358
 Basis Dimension        Dim             ....  918

ORBITAL ENERGIES
----------------

  NO   OCC          E(Eh)            E(eV)
   0   2.0000     -15.657720      -426.0682
   1   2.0000     -15.638913      -425.5565
   2   2.0000     -15.628626      -425.2765
   3   2.0000     -15.603542      -424.5940
   4   2.0000     -15.522613      -422.3918
   5   2.0000     -15.515676      -422.2030
   6   2.0000     -15.448316      -420.3700
   7   2.0000     -15.443709      -420.2447
   8   2.0000     -11.314263      -307.8767
   9   2.0000     -11.311550      -307.8029
  10   2.0000     -11.309113      -307.7366
  11   2.0000     -11.302351      -307.5526
  12   2.0000     -11.296121      -307.3831
  13   2.0000     -11.295781      -307.3738
  14   2.0000     -11.292276      -307.2785
  15   2.0000     -11.287095      -307.1375
  16   2.0000     -11.284615      -307.0700
  17   2.0000     -11.281303      -306.9799
  18   2.0000     -11.267496      -306.6042
  19   2.0000     -11.265615      -306.5530
  20   2.0000     -11.261232      -306.4337
  21   2.0000     -11.247763      -306.0672
  22   2.0000     -11.246856      -306.0425
  23   2.0000     -11.242409      -305.9215
  24   2.0000     -11.234602      -305.7091
  25   2.0000     -11.234025      -305.6934
  26   2.0000     -11.233220      -305.6715
  27   2.0000     -11.226968      -305.5013
  28   2.0000     -11.226760      -305.4957
  29   2.0000     -11.213087      -305.1236
  30   2.0000     -11.208127      -304.9886
  31   2.0000     -11.207769      -304.9789
  32   2.0000     -11.206346      -304.9402
  33   2.0000     -11.205338      -304.9127
  34   2.0000     -11.191176      -304.5274
  35   2.0000     -11.190866      -304.5189
  36   2.0000     -11.181274      -304.2579
  37   2.0000     -11.178425      -304.1804
  38   2.0000     -11.177954      -304.1676
  39   2.0000     -11.173851      -304.0560
  40   2.0000     -11.167639      -303.8869
  41   2.0000     -11.167231      -303.8758
  42   2.0000     -11.165700      -303.8341
  43   2.0000     -11.164832      -303.8105
  44   2.0000     -11.164693      -303.8067
  45   2.0000     -11.162283      -303.7412
  46   2.0000     -11.151085      -303.4365
  47   2.0000     -11.149822      -303.4021
  48   2.0000     -11.147505      -303.3390
  49   2.0000     -11.146105      -303.3009
  50   2.0000     -11.137847      -303.0762
  51   2.0000     -11.133031      -302.9452
  52   2.0000      -1.341567       -36.5059
  53   2.0000      -1.325448       -36.0673
  54   2.0000      -1.316673       -35.8285
  55   2.0000      -1.295936       -35.2642
  56   2.0000      -1.222395       -33.2631
  57   2.0000      -1.211111       -32.9560
  58   2.0000      -1.165785       -31.7226
  59   2.0000      -1.155598       -31.4454
  60   2.0000      -1.127694       -30.6861
  61   2.0000      -1.113622       -30.3032
  62   2.0000      -1.106144       -30.0997
  63   2.0000      -1.089872       -29.6569
  64   2.0000      -1.064575       -28.9686
  65   2.0000      -1.049379       -28.5551
  66   2.0000      -1.041362       -28.3369
  67   2.0000      -1.031463       -28.0675
  68   2.0000      -1.023051       -27.8386
  69   2.0000      -1.013132       -27.5687
  70   2.0000      -1.009385       -27.4668
  71   2.0000      -0.993697       -27.0399
  72   2.0000      -0.986661       -26.8484
  73   2.0000      -0.974948       -26.5297
  74   2.0000      -0.973096       -26.4793
  75   2.0000      -0.958809       -26.0905
  76   2.0000      -0.950931       -25.8761
  77   2.0000      -0.947038       -25.7702
  78   2.0000      -0.937486       -25.5103
  79   2.0000      -0.922126       -25.0923
  80   2.0000      -0.897180       -24.4135
  81   2.0000      -0.888067       -24.1655
  82   2.0000      -0.876271       -23.8445
  83   2.0000      -0.869338       -23.6559
  84   2.0000      -0.863553       -23.4985
  85   2.0000      -0.854678       -23.2570
  86   2.0000      -0.846708       -23.0401
  87   2.0000      -0.839717       -22.8498
  88   2.0000      -0.821962       -22.3667
  89   2.0000      -0.798781       -21.7359
  90   2.0000      -0.795765       -21.6539
  91   2.0000      -0.742435       -20.2027
  92   2.0000      -0.735671       -20.0186
  93   2.0000      -0.731183       -19.8965
  94   2.0000      -0.722760       -19.6673
  95   2.0000      -0.719488       -19.5783
  96   2.0000      -0.713122       -19.4050
  97   2.0000      -0.705138       -19.1878
  98   2.0000      -0.701058       -19.0768
  99   2.0000      -0.695689       -18.9307
 100   2.0000      -0.691801       -18.8248
 101   2.0000      -0.681481       -18.5440
 102   2.0000      -0.678769       -18.4703
 103   2.0000      -0.674078       -18.3426
 104   2.0000      -0.670677       -18.2500
 105   2.0000      -0.669757       -18.2250
 106   2.0000      -0.663992       -18.0681
 107   2.0000      -0.661760       -18.0074
 108   2.0000      -0.657032       -17.8787
 109   2.0000      -0.654966       -17.8225
 110   2.0000      -0.650755       -17.7079
 111   2.0000      -0.647995       -17.6329
 112   2.0000      -0.643880       -17.5209
 113   2.0000      -0.636430       -17.3181
 114   2.0000      -0.633151       -17.2289
 115   2.0000      -0.630029       -17.1440
 116   2.0000      -0.622985       -16.9523
 117   2.0000      -0.616161       -16.7666
 118   2.0000      -0.613272       -16.6880
 119   2.0000      -0.611388       -16.6367
 120   2.0000      -0.608643       -16.5620
 121   2.0000      -0.601957       -16.3801
 122   2.0000      -0.597200       -16.2506
 123   2.0000      -0.591145       -16.0859
 124   2.0000      -0.589875       -16.0513
 125   2.0000      -0.584690       -15.9102
 126   2.0000      -0.578392       -15.7388
 127   2.0000      -0.576124       -15.6771
 128   2.0000      -0.563901       -15.3445
 129   2.0000      -0.558689       -15.2027
 130   2.0000      -0.554091       -15.0776
 131   2.0000      -0.549574       -14.9547
 132   2.0000      -0.542069       -14.7504
 133   2.0000      -0.537931       -14.6379
 134   2.0000      -0.534231       -14.5372
 135   2.0000      -0.531487       -14.4625
 136   2.0000      -0.525439       -14.2979
 137   2.0000      -0.523354       -14.2412
 138   2.0000      -0.517528       -14.0826
 139   2.0000      -0.517088       -14.0707
 140   2.0000      -0.509802       -13.8724
 141   2.0000      -0.508504       -13.8371
 142   2.0000      -0.507913       -13.8210
 143   2.0000      -0.501805       -13.6548
 144   2.0000      -0.500264       -13.6129
 145   2.0000      -0.497605       -13.5405
 146   2.0000      -0.493972       -13.4417
 147   2.0000      -0.488260       -13.2862
 148   2.0000      -0.487662       -13.2700
 149   2.0000      -0.469148       -12.7662
 150   2.0000      -0.462761       -12.5924
 151   2.0000      -0.454678       -12.3724
 152   2.0000      -0.448197       -12.1961
 153   2.0000      -0.446980       -12.1629
 154   2.0000      -0.446088       -12.1387
 155   2.0000      -0.439842       -11.9687
 156   2.0000      -0.434180       -11.8146
 157   2.0000      -0.429599       -11.6900
 158   2.0000      -0.397396       -10.8137
 159   2.0000      -0.384646       -10.4667
 160   2.0000      -0.379203       -10.3186
 161   2.0000      -0.372858       -10.1460
 162   2.0000      -0.370895       -10.0926
 163   2.0000      -0.359849        -9.7920
 164   2.0000      -0.353185        -9.6106
 165   2.0000      -0.337391        -9.1809
 166   2.0000      -0.336404        -9.1540
 167   2.0000      -0.335752        -9.1363
 168   2.0000      -0.328756        -8.9459
 169   2.0000      -0.300790        -8.1849
 170   2.0000      -0.299809        -8.1582
 171   2.0000      -0.287594        -7.8258
 172   2.0000      -0.285474        -7.7681
 173   2.0000      -0.258077        -7.0226
 174   2.0000      -0.246560        -6.7092
 175   2.0000      -0.189073        -5.1449
 176   2.0000      -0.179181        -4.8758
 177   2.0000      -0.070217        -1.9107
 178   2.0000      -0.056456        -1.5363
 179   0.0000       0.029556         0.8043
 180   0.0000       0.068865         1.8739
 181   0.0000       0.092577         2.5191
 182   0.0000       0.102560         2.7908
 183   0.0000       0.121082         3.2948

MULLIKEN ATOMIC CHARGES
-----------------------
   0 C :    0.205783
   1 N :   -0.451310
   2 C :   -0.064246
   3 N :   -0.336283
   4 C :   -0.059342
   5 N :   -0.560711
   6 C :   -0.088461
   7 N :   -0.339332
   8 C :    0.201798
   9 N :   -0.562743
  10 C :    0.118220
  11 N :   -0.437426
  12 C :   -0.076229
  13 N :   -0.434609
  14 C :    0.233686
  15 N :   -0.441188
  16 C :    0.230800
  17 C :   -0.096611
  18 C :   -0.188455
  19 C :    0.220603
  20 C :    0.212169
  21 C :   -0.086203
  22 C :   -0.087440
  23 C :   -0.044045
  24 C :    0.200581
  25 C :    0.113895
  26 C :   -0.073558
  27 C :    0.215450
  28 C :   -0.056839
  29 C :   -0.181880
  30 C :    0.240792
  31 C :    0.221529
  32 C :   -0.062991
  33 C :   -0.070960
  34 C :   -0.049603
  35 C :    0.215451
  36 C :    0.111152
  37 C :   -0.065391
  38 C :    0.234892
  39 C :   -0.060297
  40 C :   -0.184395
  41 C :    0.222243
  42 C :    0.199487
  43 C :   -0.073213
  44 C :   -0.090297
  45 C :   -0.057567
  46 C :    0.206930
  47 C :    0.115682
  48 C :   -0.071153
  49 C :    0.232338
  50 C :   -0.049380
  51 C :   -0.191721
  52 H :    0.045635
  53 H :   -0.015420
  54 H :    0.046392
  55 H :    0.043893
  56 H :    0.052117
  57 H :    0.051178
  58 H :    0.050491
  59 H :   -0.004813
  60 H :    0.047183
  61 H :    0.171621
  62 H :    0.174433
  63 H :    0.056978
  64 H :   -0.010695
  65 H :    0.046877
  66 H :    0.057282
  67 H :    0.063499
  68 H :    0.058117
  69 H :    0.058167
  70 H :   -0.026669
  71 H :    0.047327
  72 H :    0.064052
  73 H :   -0.010875
  74 H :    0.053740
  75 H :    0.063185
  76 H :    0.068596
  77 H :    0.063143
  78 H :    0.062298
  79 H :   -0.014777
  80 H :    0.054177
  81 H :    0.053616
  82 H :   -0.024629
  83 H :    0.041754
  84 H :    0.053072
  85 H :    0.059494
  86 H :    0.055514
  87 H :    0.056693
  88 H :   -0.018097
  89 H :    0.045849
Sum of atomic charges:   -0.0000000

LOEWDIN ATOMIC CHARGES
----------------------
   0 C :   -0.014859
   1 N :    0.121696
   2 C :   -0.100928
   3 N :    0.181280
   4 C :    0.009043
   5 N :   -0.133019
   6 C :   -0.029894
   7 N :    0.176486
   8 C :   -0.018194
   9 N :   -0.139650
  10 C :    0.025673
  11 N :    0.144622
  12 C :   -0.104339
  13 N :    0.154124
  14 C :   -0.038531
  15 N :    0.137841
  16 C :   -0.053582
  17 C :   -0.035908
  18 C :   -0.102759
  19 C :   -0.086544
  20 C :    0.004214
  21 C :   -0.108639
  22 C :    0.041756
  23 C :   -0.017156
  24 C :   -0.005891
  25 C :    0.030438
  26 C :   -0.106000
  27 C :   -0.107314
  28 C :   -0.023767
  29 C :   -0.102147
  30 C :   -0.038373
  31 C :    0.013796
  32 C :   -0.095829
  33 C :    0.061369
  34 C :   -0.016732
  35 C :    0.008670
  36 C :    0.032501
  37 C :   -0.097371
  38 C :   -0.045523
  39 C :   -0.021788
  40 C :   -0.108141
  41 C :   -0.094311
  42 C :   -0.008815
  43 C :   -0.102355
  44 C :    0.032131
  45 C :   -0.025871
  46 C :   -0.002424
  47 C :    0.029205
  48 C :   -0.100441
  49 C :   -0.078959
  50 C :   -0.020906
  51 C :   -0.109416
  52 H :    0.025779
  53 H :    0.003666
  54 H :    0.041215
  55 H :    0.025550
  56 H :    0.023009
  57 H :    0.027792
  58 H :    0.028619
  59 H :    0.007000
  60 H :    0.041024
  61 H :    0.060114
  62 H :    0.061305
  63 H :    0.031389
  64 H :    0.002348
  65 H :    0.045599
  66 H :    0.030193
  67 H :    0.028801
  68 H :    0.032032
  69 H :    0.031105
  70 H :   -0.003193
  71 H :    0.044812
  72 H :    0.034336
  73 H :    0.005731
  74 H :    0.047938
  75 H :    0.033694
  76 H :    0.031512
  77 H :    0.033899
  78 H :    0.033533
  79 H :    0.003864
  80 H :    0.047569
  81 H :    0.028844
  82 H :   -0.002525
  83 H :    0.042657
  84 H :    0.029237
  85 H :    0.026730
  86 H :    0.030127
  87 H :    0.031158
  88 H :    0.000666
  89 H :    0.044404

  Mayer bond orders larger than 0.100000
B(  0-C ,  1-N ) :   1.0990 B(  0-C , 17-C ) :   1.6792 B(  0-C , 52-H ) :   0.9685
B(  1-N ,  8-C ) :   1.0917 B(  1-N , 10-C ) :   0.9725 B(  2-C , 12-C ) :   1.5235
B(  2-C , 16-C ) :   1.3392 B(  2-C , 53-H ) :   0.9771 B(  3-N , 14-C ) :   1.2124
B(  3-N , 16-C ) :   1.1935 B(  3-N , 61-H ) :   0.8992 B(  4-C ,  6-C ) :   1.2292
B(  4-C , 17-C ) :   1.2278 B(  4-C , 18-C ) :   1.3662 B(  5-N , 19-C ) :   1.4398
B(  5-N , 27-C ) :   1.3900 B(  6-C ,  8-C ) :   1.6814 B(  6-C , 54-H ) :   0.9680
B(  7-N , 30-C ) :   1.1935 B(  7-N , 38-C ) :   1.1966 B(  7-N , 62-H ) :   0.8974
B(  8-C , 55-H ) :   0.9700 B(  9-N , 41-C ) :   1.3984 B(  9-N , 49-C ) :   1.4239
B( 10-C , 56-H ) :   0.9765 B( 10-C , 57-H ) :   0.9828 B( 10-C , 58-H ) :   0.9834
B( 11-N , 20-C ) :   1.1299 B( 11-N , 24-C ) :   1.1166 B( 11-N , 25-C ) :   0.9582
B( 12-C , 14-C ) :   1.3424 B( 12-C , 59-H ) :   0.9752 B( 13-N , 31-C ) :   1.1436
B( 13-N , 35-C ) :   1.1371 B( 13-N , 36-C ) :   0.9505 B( 14-C , 18-C ) :   1.1612
B( 15-N , 42-C ) :   1.1101 B( 15-N , 46-C ) :   1.1184 B( 15-N , 47-C ) :   0.9624
B( 16-C , 51-C ) :   1.1850 B( 17-C , 60-H ) :   0.9683 B( 18-C , 19-C ) :   1.1686
B( 19-C , 21-C ) :   1.2293 B( 20-C , 28-C ) :   1.6237 B( 20-C , 63-H ) :   0.9702
B( 21-C , 26-C ) :   1.6291 B( 21-C , 64-H ) :   0.9718 B( 22-C , 23-C ) :   1.2890
B( 22-C , 28-C ) :   1.2712 B( 22-C , 29-C ) :   1.2217 B( 23-C , 24-C ) :   1.6165
B( 23-C , 65-H ) :   0.9706 B( 24-C , 66-H ) :   0.9693 B( 25-C , 67-H ) :   0.9761
B( 25-C , 68-H ) :   0.9828 B( 25-C , 69-H ) :   0.9822 B( 26-C , 27-C ) :   1.2242
B( 26-C , 70-H ) :   0.9721 B( 27-C , 29-C ) :   1.2217 B( 28-C , 71-H ) :   0.9717
B( 29-C , 30-C ) :   1.2296 B( 30-C , 32-C ) :   1.2941 B( 31-C , 39-C ) :   1.6092
B( 31-C , 72-H ) :   0.9689 B( 32-C , 37-C ) :   1.5648 B( 32-C , 73-H ) :   0.9782
B( 33-C , 34-C ) :   1.2925 B( 33-C , 39-C ) :   1.2854 B( 33-C , 40-C ) :   1.2103
B( 34-C , 35-C ) :   1.6057 B( 34-C , 74-H ) :   0.9700 B( 35-C , 75-H ) :   0.9689
B( 36-C , 76-H ) :   0.9765 B( 36-C , 77-H ) :   0.9818 B( 36-C , 78-H ) :   0.9827
B( 37-C , 38-C ) :   1.2970 B( 37-C , 79-H ) :   0.9772 B( 38-C , 40-C ) :   1.2224
B( 39-C , 80-H ) :   0.9711 B( 40-C , 41-C ) :   1.2347 B( 41-C , 43-C ) :   1.2009
B( 42-C , 50-C ) :   1.6350 B( 42-C , 81-H ) :   0.9696 B( 43-C , 48-C ) :   1.6506
B( 43-C , 82-H ) :   0.9728 B( 44-C , 45-C ) :   1.2653 B( 44-C , 50-C ) :   1.2685
B( 44-C , 51-C ) :   1.2616 B( 45-C , 46-C ) :   1.6354 B( 45-C , 83-H ) :   0.9715
B( 46-C , 84-H ) :   0.9702 B( 47-C , 85-H ) :   0.9762 B( 47-C , 86-H ) :   0.9829
B( 47-C , 87-H ) :   0.9825 B( 48-C , 49-C ) :   1.2030 B( 48-C , 88-H ) :   0.9744
B( 49-C , 51-C ) :   1.2272 B( 50-C , 89-H ) :   0.9711

MP2 TOTAL ENERGY:    -2130.915076638 Eh
FINAL SINGLE POINT ENERGY     -2130.915076638019

DIPOLE MOMENT
-------------
                                X             Y             Z
Electronic contribution:      1.14093      -2.78007      -0.06097
Nuclear contribution   :      0.01132       0.19681       0.07175
                        -----------------------------------------
Total Dipole Moment    :      1.15226      -2.58327       0.01078
                        -----------------------------------------
Magnitude (a.u.)       :      2.82862
Magnitude (Debye)      :      7.18978

Rotational constants in cm-1:     0.001501     0.001474     0.000762
Rotational constants in MHz :    44.986160    44.200514    22.829594

                             ****ORCA TERMINATED NORMALLY****
TOTAL RUN TIME: 0 days 1 hours 2 minutes 3 seconds 578 msec
