                         Program Version 5.0.4 -  RELEASE  -
|  1> ! PAL2
|  2> ! mp2 cc-pvdz TightSCF  NoKeepInts
|  3>
|  4> %scf
|  5>   MaxCore 2000
|  6> end
|  7> %mp2
|  8>   MaxCore 2000
|  9> end
| 10> * xyz 0 1
| 11>    C       -3.52800         6.13600         1.10800
| 12>    C        1.47400         4.04100         0.05700
| 13>    C       -2.80200         4.09300         0.04900
| 14>    C       -3.70300         4.37200        -0.99000
| 15>    C       -4.47800         5.51300        -0.94800
| 16>    C       -5.20400         7.60900         0.08800
| 17>    C        0.13200         4.30700         0.06100
| 18>    C       -0.56900         3.05600         0.04700
| 19>    C        1.64900         2.61800         0.02300
| 20>    C       -2.72800         5.01000         1.10900
| 21>    N       -4.38700         6.37500         0.09200
| 22>    N        0.38800         2.06700         0.02500
| 23>    N       -2.01000         0.39500        -0.07500
| 24>    N       -0.38800        -2.07400        -0.02700
| 25>    N        2.01000        -0.40100         0.06500
| 26>    C       -1.96000         2.86100         0.02400
| 27>    C       -2.62300         1.61500        -0.01800
| 28>    C       -5.57300        -4.32900         1.06600
| 29>    C       -4.07300         1.47100         0.05600
| 30>    C       -4.10600        -2.75600        -0.02600
| 31>    C       -4.99500        -2.75700        -1.11100
| 32>    C       -6.13200        -3.54200        -1.07600
| 33>    C       -7.65100        -5.11300         0.04000
| 34>    C       -4.32400         0.14100         0.03700
| 35>    C       -3.02500        -0.52000        -0.04800
| 36>    C       -4.42200        -3.56600         1.07500
| 37>    N       -6.40700        -4.31300         0.00100
| 38>    C       -2.86700        -1.92200        -0.04000
| 39>    C       -1.65000        -2.62400        -0.02700
| 40>    C        3.56800        -6.14200        -1.04000
| 41>    C       -1.47600        -4.04900        -0.03400
| 42>    C        2.80300        -4.09900        -0.00800
| 43>    C        3.65700        -4.38400         1.06900
| 44>    C        4.42700        -5.53000         1.05900
| 45>    C        5.24500        -7.58800         0.01400
| 46>    C       -0.13400        -4.31500        -0.02200
| 47>    C        0.56800        -3.06400        -0.02700
| 48>    C        2.77500        -5.01200        -1.07400
| 49>    N        4.37600        -6.39100         0.01700
| 50>    C        1.95900        -2.86900        -0.00900
| 51>    C        2.62100        -1.62200         0.00900
| 52>    C        5.54300         4.33900        -1.13000
| 53>    C        4.07000        -1.47900        -0.09400
| 54>    C        4.10400         2.75100        -0.02100
| 55>    C        5.02700         2.72900         1.03600
| 56>    C        6.16600         3.50900         0.97800
| 57>    C        7.61900         5.15300        -0.11500
| 58>    C        4.32100        -0.14800        -0.09200
| 59>    C        3.02500         0.51400         0.01500
| 60>    C        4.38700         3.58200        -1.11500
| 61>    C        2.86600         1.91600         0.01300
| 62>    N        6.41300         4.29600        -0.09500
| 63>    H       -3.51300         6.86400         1.91000
| 64>    H        2.27400         4.76600         0.08100
| 65>    H       -3.79900         3.70700        -1.84000
| 66>    H       -5.18000         5.77500        -1.73000
| 67>    H       -4.67300         8.38500        -0.46700
| 68>    H       -6.16000         7.39500        -0.38900
| 69>    H       -5.36300         7.92700         1.11800
| 70>    H       -0.33200         5.28200         0.06900
| 71>    H       -2.06100         4.84400         1.94700
| 72>    H        0.18200         1.07200         0.00500
| 73>    H       -0.18300        -1.08000        -0.02100
| 74>    H       -5.86400        -4.96200         1.89500
| 75>    H       -4.79400         2.27200         0.13900
| 76>    H       -4.80000        -2.16000        -1.99400
| 77>    H       -6.84100        -3.58200        -1.89300
| 78>    H       -8.42800        -4.53600         0.54600
| 79>    H       -7.95600        -5.33700        -0.98100
| 80>    H       -7.45600        -6.03700         0.58400
| 81>    H       -5.28700        -0.34400         0.10000
| 82>    H       -3.78000        -3.60100         1.94700
| 83>    H        3.58700        -6.86800        -1.84300
| 84>    H       -2.27600        -4.77400        -0.05000
| 85>    H        3.71400        -3.72400         1.92600
| 86>    H        5.09200        -5.79500         1.87100
| 87>    H        6.20500        -7.32900        -0.43900
| 88>    H        5.39300        -7.91700         1.04200
| 89>    H        4.75900        -8.37300        -0.56400
| 90>    H        0.32900        -5.29000        -0.00800
| 91>    H        2.14600        -4.84200        -1.94000
| 92>    H        5.80800         4.98600        -1.95600
| 93>    H        4.78800        -2.28100        -0.18500
| 94>    H        4.86000         2.11400         1.91200
| 95>    H        6.90100         3.53100         1.77200
| 96>    H        7.38300         6.10900         0.35600
| 97>    H        8.41400         4.65200         0.43500
| 98>    H        7.92100         5.31000        -1.15000
| 99>    H        5.28300         0.33600        -0.17900
|100>    H        3.72000         3.63200        -1.96700
|101> *
|102>
|103>                          ****END OF INPUT****

CARTESIAN COORDINATES (ANGSTROEM)
---------------------------------
  C     -3.528000    6.136000    1.108000
  C      1.474000    4.041000    0.057000
  C     -2.802000    4.093000    0.049000
  C     -3.703000    4.372000   -0.990000
  C     -4.478000    5.513000   -0.948000
  C     -5.204000    7.609000    0.088000
  C      0.132000    4.307000    0.061000
  C     -0.569000    3.056000    0.047000
  C      1.649000    2.618000    0.023000
  C     -2.728000    5.010000    1.109000
  N     -4.387000    6.375000    0.092000
  N      0.388000    2.067000    0.025000
  N     -2.010000    0.395000   -0.075000
  N     -0.388000   -2.074000   -0.027000
  N      2.010000   -0.401000    0.065000
  C     -1.960000    2.861000    0.024000
  C     -2.623000    1.615000   -0.018000
  C     -5.573000   -4.329000    1.066000
  C     -4.073000    1.471000    0.056000
  C     -4.106000   -2.756000   -0.026000
  C     -4.995000   -2.757000   -1.111000
  C     -6.132000   -3.542000   -1.076000
  C     -7.651000   -5.113000    0.040000
  C     -4.324000    0.141000    0.037000
  C     -3.025000   -0.520000   -0.048000
  C     -4.422000   -3.566000    1.075000
  N     -6.407000   -4.313000    0.001000
  C     -2.867000   -1.922000   -0.040000
  C     -1.650000   -2.624000   -0.027000
  C      3.568000   -6.142000   -1.040000
  C     -1.476000   -4.049000   -0.034000
  C      2.803000   -4.099000   -0.008000
  C      3.657000   -4.384000    1.069000
  C      4.427000   -5.530000    1.059000
  C      5.245000   -7.588000    0.014000
  C     -0.134000   -4.315000   -0.022000
  C      0.568000   -3.064000   -0.027000
  C      2.775000   -5.012000   -1.074000
  N      4.376000   -6.391000    0.017000
  C      1.959000   -2.869000   -0.009000
  C      2.621000   -1.622000    0.009000
  C      5.543000    4.339000   -1.130000
  C      4.070000   -1.479000   -0.094000
  C      4.104000    2.751000   -0.021000
  C      5.027000    2.729000    1.036000
  C      6.166000    3.509000    0.978000
  C      7.619000    5.153000   -0.115000
  C      4.321000   -0.148000   -0.092000
  C      3.025000    0.514000    0.015000
  C      4.387000    3.582000   -1.115000
  C      2.866000    1.916000    0.013000
  N      6.413000    4.296000   -0.095000
  H     -3.513000    6.864000    1.910000
  H      2.274000    4.766000    0.081000
  H     -3.799000    3.707000   -1.840000
  H     -5.180000    5.775000   -1.730000
  H     -4.673000    8.385000   -0.467000
  H     -6.160000    7.395000   -0.389000
  H     -5.363000    7.927000    1.118000
  H     -0.332000    5.282000    0.069000
  H     -2.061000    4.844000    1.947000
  H      0.182000    1.072000    0.005000
  H     -0.183000   -1.080000   -0.021000
  H     -5.864000   -4.962000    1.895000
  H     -4.794000    2.272000    0.139000
  H     -4.800000   -2.160000   -1.994000
  H     -6.841000   -3.582000   -1.893000
  H     -8.428000   -4.536000    0.546000
  H     -7.956000   -5.337000   -0.981000
  H     -7.456000   -6.037000    0.584000
  H     -5.287000   -0.344000    0.100000
  H     -3.780000   -3.601000    1.947000
  H      3.587000   -6.868000   -1.843000
  H     -2.276000   -4.774000   -0.050000
  H      3.714000   -3.724000    1.926000
  H      5.092000   -5.795000    1.871000
  H      6.205000   -7.329000   -0.439000
  H      5.393000   -7.917000    1.042000
  H      4.759000   -8.373000   -0.564000
  H      0.329000   -5.290000   -0.008000
  H      2.146000   -4.842000   -1.940000
  H      5.808000    4.986000   -1.956000
  H      4.788000   -2.281000   -0.185000
  H      4.860000    2.114000    1.912000
  H      6.901000    3.531000    1.772000
  H      7.383000    6.109000    0.356000
  H      8.414000    4.652000    0.435000
  H      7.921000    5.310000   -1.150000
  H      5.283000    0.336000   -0.179000
  H      3.720000    3.632000   -1.967000

 Total Charge           Charge          ....    0
 Multiplicity           Mult            ....    1
 Number of Electrons    NEL             ....  358
 Basis Dimension        Dim             ....  918

ORBITAL ENERGIES
----------------

  NO   OCC          E(Eh)            E(eV)
   0   2.0000     -15.639627      -425.5759
   1   2.0000     -15.637524      -425.5187
   2   2.0000     -15.628662      -425.2775
   3   2.0000     -15.626347      -425.2145
   4   2.0000     -15.518405      -422.2773
   5   2.0000     -15.515554      -422.1997
   6   2.0000     -15.444292      -420.2606
   7   2.0000     -15.443351      -420.2349
   8   2.0000     -11.302746      -307.5633
   9   2.0000     -11.301663      -307.5339
  10   2.0000     -11.295931      -307.3779
  11   2.0000     -11.295046      -307.3538
  12   2.0000     -11.294889      -307.3496
  13   2.0000     -11.294586      -307.3413
  14   2.0000     -11.294319      -307.3340
  15   2.0000     -11.291873      -307.2675
  16   2.0000     -11.285613      -307.0971
  17   2.0000     -11.285489      -307.0938
  18   2.0000     -11.285022      -307.0811
  19   2.0000     -11.283724      -307.0457
  20   2.0000     -11.242965      -305.9366
  21   2.0000     -11.241981      -305.9099
  22   2.0000     -11.234695      -305.7116
  23   2.0000     -11.234051      -305.6941
  24   2.0000     -11.233166      -305.6700
  25   2.0000     -11.232969      -305.6646
  26   2.0000     -11.232296      -305.6463
  27   2.0000     -11.232068      -305.6401
  28   2.0000     -11.226484      -305.4882
  29   2.0000     -11.226378      -305.4853
  30   2.0000     -11.224893      -305.4449
  31   2.0000     -11.224700      -305.4396
  32   2.0000     -11.199941      -304.7659
  33   2.0000     -11.199520      -304.7544
  34   2.0000     -11.194476      -304.6172
  35   2.0000     -11.194080      -304.6064
  36   2.0000     -11.172135      -304.0092
  37   2.0000     -11.171186      -303.9834
  38   2.0000     -11.171008      -303.9786
  39   2.0000     -11.170509      -303.9650
  40   2.0000     -11.170369      -303.9612
  41   2.0000     -11.170000      -303.9512
  42   2.0000     -11.167107      -303.8724
  43   2.0000     -11.166258      -303.8493
  44   2.0000     -11.159619      -303.6687
  45   2.0000     -11.158123      -303.6280
  46   2.0000     -11.153145      -303.4925
  47   2.0000     -11.151776      -303.4552
  48   2.0000     -11.142606      -303.2057
  49   2.0000     -11.142011      -303.1895
  50   2.0000     -11.140476      -303.1478
  51   2.0000     -11.140158      -303.1391
  52   2.0000      -1.326004       -36.0824
  53   2.0000      -1.324276       -36.0354
  54   2.0000      -1.316496       -35.8237
  55   2.0000      -1.315079       -35.7851
  56   2.0000      -1.217229       -33.1225
  57   2.0000      -1.212698       -32.9992
  58   2.0000      -1.161262       -31.5996
  59   2.0000      -1.156737       -31.4764
  60   2.0000      -1.115012       -30.3410
  61   2.0000      -1.112121       -30.2623
  62   2.0000      -1.105691       -30.0874
  63   2.0000      -1.103741       -30.0343
  64   2.0000      -1.049789       -28.5662
  65   2.0000      -1.048403       -28.5285
  66   2.0000      -1.041039       -28.3281
  67   2.0000      -1.040021       -28.3004
  68   2.0000      -1.026266       -27.9261
  69   2.0000      -1.009709       -27.4756
  70   2.0000      -1.008906       -27.4537
  71   2.0000      -0.998532       -27.1715
  72   2.0000      -0.981388       -26.7049
  73   2.0000      -0.976118       -26.5615
  74   2.0000      -0.968168       -26.3452
  75   2.0000      -0.960839       -26.1458
  76   2.0000      -0.952432       -25.9170
  77   2.0000      -0.942081       -25.6353
  78   2.0000      -0.940459       -25.5912
  79   2.0000      -0.923432       -25.1279
  80   2.0000      -0.892505       -24.2863
  81   2.0000      -0.877124       -23.8678
  82   2.0000      -0.874941       -23.8083
  83   2.0000      -0.868814       -23.6416
  84   2.0000      -0.866400       -23.5759
  85   2.0000      -0.856857       -23.3163
  86   2.0000      -0.846859       -23.0442
  87   2.0000      -0.845388       -23.0042
  88   2.0000      -0.821750       -22.3610
  89   2.0000      -0.798377       -21.7249
  90   2.0000      -0.797800       -21.7093
  91   2.0000      -0.739047       -20.1105
  92   2.0000      -0.728614       -19.8266
  93   2.0000      -0.728152       -19.8140
  94   2.0000      -0.720850       -19.6153
  95   2.0000      -0.719777       -19.5861
  96   2.0000      -0.711967       -19.3736
  97   2.0000      -0.710165       -19.3246
  98   2.0000      -0.698184       -18.9986
  99   2.0000      -0.691945       -18.8288
 100   2.0000      -0.683285       -18.5931
 101   2.0000      -0.680236       -18.5102
 102   2.0000      -0.678515       -18.4633
 103   2.0000      -0.673927       -18.3385
 104   2.0000      -0.668585       -18.1931
 105   2.0000      -0.667394       -18.1607
 106   2.0000      -0.663311       -18.0496
 107   2.0000      -0.658044       -17.9063
 108   2.0000      -0.657116       -17.8810
 109   2.0000      -0.653172       -17.7737
 110   2.0000      -0.652897       -17.7662
 111   2.0000      -0.651205       -17.7202
 112   2.0000      -0.648650       -17.6507
 113   2.0000      -0.646217       -17.5845
 114   2.0000      -0.634576       -17.2677
 115   2.0000      -0.622982       -16.9522
 116   2.0000      -0.616569       -16.7777
 117   2.0000      -0.615227       -16.7412
 118   2.0000      -0.610305       -16.6072
 119   2.0000      -0.608361       -16.5544
 120   2.0000      -0.608144       -16.5484
 121   2.0000      -0.606732       -16.5100
 122   2.0000      -0.603463       -16.4211
 123   2.0000      -0.594239       -16.1701
 124   2.0000      -0.585343       -15.9280
 125   2.0000      -0.584057       -15.8930
 126   2.0000      -0.578313       -15.7367
 127   2.0000      -0.576902       -15.6983
 128   2.0000      -0.570283       -15.5182
 129   2.0000      -0.562462       -15.3054
 130   2.0000      -0.553686       -15.0665
 131   2.0000      -0.541928       -14.7466
 132   2.0000      -0.540040       -14.6952
 133   2.0000      -0.535018       -14.5586
 134   2.0000      -0.534572       -14.5465
 135   2.0000      -0.531356       -14.4589
 136   2.0000      -0.524041       -14.2599
 137   2.0000      -0.523372       -14.2417
 138   2.0000      -0.516805       -14.0630
 139   2.0000      -0.515281       -14.0215
 140   2.0000      -0.509208       -13.8563
 141   2.0000      -0.507437       -13.8081
 142   2.0000      -0.503671       -13.7056
 143   2.0000      -0.503282       -13.6950
 144   2.0000      -0.498648       -13.5689
 145   2.0000      -0.497382       -13.5344
 146   2.0000      -0.496713       -13.5162
 147   2.0000      -0.493814       -13.4374
 148   2.0000      -0.491074       -13.3628
 149   2.0000      -0.468603       -12.7513
 150   2.0000      -0.459959       -12.5161
 151   2.0000      -0.450804       -12.2670
 152   2.0000      -0.447883       -12.1875
 153   2.0000      -0.445736       -12.1291
 154   2.0000      -0.444966       -12.1081
 155   2.0000      -0.439698       -11.9648
 156   2.0000      -0.434844       -11.8327
 157   2.0000      -0.431971       -11.7545
 158   2.0000      -0.390007       -10.6126
 159   2.0000      -0.381110       -10.3705
 160   2.0000      -0.379466       -10.3258
 161   2.0000      -0.373395       -10.1606
 162   2.0000      -0.360069        -9.7980
 163   2.0000      -0.359040        -9.7700
 164   2.0000      -0.352684        -9.5970
 165   2.0000      -0.351788        -9.5726
 166   2.0000      -0.337319        -9.1789
 167   2.0000      -0.331925        -9.0321
 168   2.0000      -0.329052        -8.9540
 169   2.0000      -0.300224        -8.1695
 170   2.0000      -0.294634        -8.0174
 171   2.0000      -0.289442        -7.8761
 172   2.0000      -0.287359        -7.8194
 173   2.0000      -0.254540        -6.9264
 174   2.0000      -0.247854        -6.7444
 175   2.0000      -0.187807        -5.1105
 176   2.0000      -0.177601        -4.8328
 177   2.0000      -0.065797        -1.7904
 178   2.0000      -0.054427        -1.4810
 179   0.0000       0.031196         0.8489
 180   0.0000       0.070696         1.9237
 181   0.0000       0.093119         2.5339
 182   0.0000       0.096546         2.6271
 183   0.0000       0.133844         3.6421

MULLIKEN ATOMIC CHARGES
-----------------------
   0 C :    0.206984
   1 N :   -0.442632
   2 C :   -0.065288
   3 N :   -0.338161
   4 C :   -0.076605
   5 N :   -0.562224
   6 C :   -0.060283
   7 N :   -0.338329
   8 C :    0.203857
   9 N :   -0.563024
  10 C :    0.115224
  11 N :   -0.437261
  12 C :   -0.068274
  13 N :   -0.439172
  14 C :    0.234531
  15 N :   -0.440696
  16 C :    0.235473
  17 C :   -0.066279
  18 C :   -0.193573
  19 C :    0.225254
  20 C :    0.208433
  21 C :   -0.075978
  22 C :   -0.085834
  23 C :   -0.048854
  24 C :    0.206107
  25 C :    0.113717
  26 C :   -0.073220
  27 C :    0.222713
  28 C :   -0.052326
  29 C :   -0.185370
  30 C :    0.235984
  31 C :    0.212215
  32 C :   -0.064645
  33 C :   -0.080105
  34 C :   -0.049809
  35 C :    0.205298
  36 C :    0.113801
  37 C :   -0.066422
  38 C :    0.237042
  39 C :   -0.061513
  40 C :   -0.188738
  41 C :    0.220459
  42 C :    0.203066
  43 C :   -0.073843
  44 C :   -0.088955
  45 C :   -0.053092
  46 C :    0.203489
  47 C :    0.115607
  48 C :   -0.074640
  49 C :    0.226241
  50 C :   -0.052634
  51 C :   -0.190334
  52 H :    0.053724
  53 H :   -0.014217
  54 H :    0.044851
  55 H :    0.052254
  56 H :    0.058711
  57 H :    0.056359
  58 H :    0.055817
  59 H :   -0.013085
  60 H :    0.046072
  61 H :    0.172684
  62 H :    0.173009
  63 H :    0.057061
  64 H :   -0.019409
  65 H :    0.046445
  66 H :    0.057752
  67 H :    0.063217
  68 H :    0.058250
  69 H :    0.059037
  70 H :   -0.024680
  71 H :    0.048294
  72 H :    0.057089
  73 H :   -0.013816
  74 H :    0.047355
  75 H :    0.056115
  76 H :    0.062608
  77 H :    0.058599
  78 H :    0.057778
  79 H :   -0.013834
  80 H :    0.047629
  81 H :    0.053639
  82 H :   -0.023978
  83 H :    0.042857
  84 H :    0.053074
  85 H :    0.058999
  86 H :    0.056224
  87 H :    0.056712
  88 H :   -0.021779
  89 H :    0.045201
Sum of atomic charges:    0.0000000

LOEWDIN ATOMIC CHARGES
----------------------
   0 C :   -0.005057
   1 N :    0.136239
   2 C :   -0.100567
   3 N :    0.178100
   4 C :    0.032026
   5 N :   -0.137432
   6 C :   -0.023191
   7 N :    0.177170
   8 C :   -0.006907
   9 N :   -0.138905
  10 C :    0.028874
  11 N :    0.145172
  12 C :   -0.101915
  13 N :    0.143118
  14 C :   -0.044079
  15 N :    0.138541
  16 C :   -0.046607
  17 C :   -0.026909
  18 C :   -0.108015
  19 C :   -0.087609
  20 C :    0.001112
  21 C :   -0.105050
  22 C :    0.043929
  23 C :   -0.020302
  24 C :   -0.000828
  25 C :    0.030545
  26 C :   -0.104226
  27 C :   -0.095422
  28 C :   -0.020937
  29 C :   -0.106610
  30 C :   -0.045217
  31 C :    0.002827
  32 C :   -0.098355
  33 C :    0.042851
  34 C :   -0.019323
  35 C :   -0.003107
  36 C :    0.029981
  37 C :   -0.100361
  38 C :   -0.041635
  39 C :   -0.025015
  40 C :   -0.108803
  41 C :   -0.094383
  42 C :   -0.005635
  43 C :   -0.104921
  44 C :    0.034082
  45 C :   -0.022775
  46 C :   -0.005261
  47 C :    0.029265
  48 C :   -0.104812
  49 C :   -0.088724
  50 C :   -0.022867
  51 C :   -0.108945
  52 H :    0.029206
  53 H :    0.004243
  54 H :    0.043536
  55 H :    0.029094
  56 H :    0.026365
  57 H :    0.030254
  58 H :    0.030971
  59 H :    0.004457
  60 H :    0.043467
  61 H :    0.060512
  62 H :    0.060559
  63 H :    0.031277
  64 H :   -0.000387
  65 H :    0.045174
  66 H :    0.030615
  67 H :    0.028717
  68 H :    0.032089
  69 H :    0.031466
  70 H :   -0.002264
  71 H :    0.045489
  72 H :    0.031068
  73 H :    0.004325
  74 H :    0.045234
  75 H :    0.030338
  76 H :    0.028423
  77 H :    0.031765
  78 H :    0.031415
  79 H :    0.004374
  80 H :    0.044734
  81 H :    0.028986
  82 H :   -0.002105
  83 H :    0.043385
  84 H :    0.029097
  85 H :    0.026530
  86 H :    0.030420
  87 H :    0.031160
  88 H :   -0.001088
  89 H :    0.043975

  Mayer bond orders larger than 0.100000
B(  0-C ,  1-N ) :   1.1164 B(  0-C , 17-C ) :   1.6417 B(  0-C , 52-H ) :   0.9690
B(  1-N ,  8-C ) :   1.1100 B(  1-N , 10-C ) :   0.9631 B(  2-C , 12-C ) :   1.5353
B(  2-C , 16-C ) :   1.3238 B(  2-C , 53-H ) :   0.9778 B(  3-N , 14-C ) :   1.2036
B(  3-N , 16-C ) :   1.1948 B(  3-N , 61-H ) :   0.8985 B(  4-C ,  6-C ) :   1.2616
B(  4-C , 17-C ) :   1.2592 B(  4-C , 18-C ) :   1.2809 B(  5-N , 19-C ) :   1.4211
B(  5-N , 27-C ) :   1.4043 B(  6-C ,  8-C ) :   1.6428 B(  6-C , 54-H ) :   0.9705
B(  7-N , 30-C ) :   1.1923 B(  7-N , 38-C ) :   1.2013 B(  7-N , 62-H ) :   0.8982
B(  8-C , 55-H ) :   0.9703 B(  9-N , 41-C ) :   1.4068 B(  9-N , 49-C ) :   1.4174
B( 10-C , 56-H ) :   0.9763 B( 10-C , 57-H ) :   0.9825 B( 10-C , 58-H ) :   0.9831
B( 11-N , 20-C ) :   1.1256 B( 11-N , 24-C ) :   1.1236 B( 11-N , 25-C ) :   0.9577
B( 12-C , 14-C ) :   1.3260 B( 12-C , 59-H ) :   0.9771 B( 13-N , 31-C ) :   1.1264
B( 13-N , 35-C ) :   1.1189 B( 13-N , 36-C ) :   0.9588 B( 14-C , 18-C ) :   1.1929
B( 15-N , 42-C ) :   1.1154 B( 15-N , 46-C ) :   1.1148 B( 15-N , 47-C ) :   0.9623
B( 16-C , 51-C ) :   1.2002 B( 17-C , 60-H ) :   0.9710 B( 18-C , 19-C ) :   1.2072
B( 19-C , 21-C ) :   1.2151 B( 20-C , 28-C ) :   1.6221 B( 20-C , 63-H ) :   0.9702
B( 21-C , 26-C ) :   1.6392 B( 21-C , 64-H ) :   0.9735 B( 22-C , 23-C ) :   1.2842
B( 22-C , 28-C ) :   1.2754 B( 22-C , 29-C ) :   1.2276 B( 23-C , 24-C ) :   1.6174
B( 23-C , 65-H ) :   0.9709 B( 24-C , 66-H ) :   0.9691 B( 25-C , 67-H ) :   0.9762
B( 25-C , 68-H ) :   0.9829 B( 25-C , 69-H ) :   0.9821 B( 26-C , 27-C ) :   1.2122
B( 26-C , 70-H ) :   0.9731 B( 27-C , 29-C ) :   1.2268 B( 28-C , 71-H ) :   0.9714
B( 29-C , 30-C ) :   1.2155 B( 30-C , 32-C ) :   1.3087 B( 31-C , 39-C ) :   1.6283
B( 31-C , 72-H ) :   0.9695 B( 32-C , 37-C ) :   1.5497 B( 32-C , 73-H ) :   0.9778
B( 33-C , 34-C ) :   1.2771 B( 33-C , 39-C ) :   1.2698 B( 33-C , 40-C ) :   1.2450
B( 34-C , 35-C ) :   1.6253 B( 34-C , 74-H ) :   0.9704 B( 35-C , 75-H ) :   0.9696
B( 36-C , 76-H ) :   0.9763 B( 36-C , 77-H ) :   0.9820 B( 36-C , 78-H ) :   0.9831
B( 37-C , 38-C ) :   1.3103 B( 37-C , 79-H ) :   0.9777 B( 38-C , 40-C ) :   1.2109
B( 39-C , 80-H ) :   0.9715 B( 40-C , 41-C ) :   1.2189 B( 41-C , 43-C ) :   1.2144
B( 42-C , 50-C ) :   1.6337 B( 42-C , 81-H ) :   0.9696 B( 43-C , 48-C ) :   1.6370
B( 43-C , 82-H ) :   0.9736 B( 44-C , 45-C ) :   1.2702 B( 44-C , 50-C ) :   1.2671
B( 44-C , 51-C ) :   1.2563 B( 45-C , 46-C ) :   1.6327 B( 45-C , 83-H ) :   0.9712
B( 46-C , 84-H ) :   0.9702 B( 47-C , 85-H ) :   0.9761 B( 47-C , 86-H ) :   0.9828
B( 47-C , 87-H ) :   0.9826 B( 48-C , 49-C ) :   1.2143 B( 48-C , 88-H ) :   0.9739
B( 49-C , 51-C ) :   1.2177 B( 50-C , 89-H ) :   0.9713

MP2 TOTAL ENERGY:    -2130.914865032 Eh
FINAL SINGLE POINT ENERGY     -2130.914865032025

DIPOLE MOMENT
-------------
                                X             Y             Z
Electronic contribution:     -0.19354      -0.98792      -0.05688
Nuclear contribution   :      0.02590       0.20541       0.07024
                        -----------------------------------------
Total Dipole Moment    :     -0.16765      -0.78251       0.01336
                        -----------------------------------------
Magnitude (a.u.)       :      0.80038
Magnitude (Debye)      :      2.03441

Rotational constants in cm-1:     0.001500     0.001473     0.000762
Rotational constants in MHz :    44.955240    44.163637    22.847710

                             ****ORCA TERMINATED NORMALLY****
TOTAL RUN TIME: 0 days 1 hours 14 minutes 9 seconds 139 msec
