                         Program Version 5.0.4 -  RELEASE  -
|  1> ! PAL2
|  2> ! mp2 cc-pvdz TightSCF  NoKeepInts
|  3>
|  4> %scf
|  5>   MaxCore 2000
|  6> end
|  7> %mp2
|  8>   MaxCore 2000
|  9> end
| 10> * xyz 0 1
| 11>    C       -4.95000         5.18300         0.20300
| 12>    C        1.47400         4.04100         0.05700
| 13>    C       -2.80200         4.09300         0.04900
| 14>    C       -2.22300         5.36500        -0.07900
| 15>    C       -3.01700         6.49400        -0.05900
| 16>    C       -5.18000         7.62400         0.13300
| 17>    C        0.13200         4.30700         0.06100
| 18>    C       -0.56900         3.05600         0.04700
| 19>    C        1.64900         2.61800         0.02300
| 20>    C       -4.19600         4.02500         0.19500
| 21>    N       -4.36000         6.39400         0.07700
| 22>    N        0.38800         2.06700         0.02500
| 23>    N       -2.01000         0.39500        -0.07500
| 24>    N       -0.38800        -2.07400        -0.02700
| 25>    N        2.01000        -0.40100         0.06500
| 26>    C       -1.96000         2.86100         0.02400
| 27>    C       -2.62300         1.61500        -0.01800
| 28>    C       -5.57300        -4.32900         1.06600
| 29>    C       -4.07300         1.47100         0.05600
| 30>    C       -4.10600        -2.75600        -0.02600
| 31>    C       -4.99500        -2.75700        -1.11100
| 32>    C       -6.13200        -3.54200        -1.07600
| 33>    C       -7.65100        -5.11300         0.04000
| 34>    C       -4.32400         0.14100         0.03700
| 35>    C       -3.02500        -0.52000        -0.04800
| 36>    C       -4.42200        -3.56600         1.07500
| 37>    N       -6.40700        -4.31300         0.00100
| 38>    C       -2.86700        -1.92200        -0.04000
| 39>    C       -1.65000        -2.62400        -0.02700
| 40>    C        3.56800        -6.14200        -1.04000
| 41>    C       -1.47600        -4.04900        -0.03400
| 42>    C        2.80300        -4.09900        -0.00800
| 43>    C        3.65700        -4.38400         1.06900
| 44>    C        4.42700        -5.53000         1.05900
| 45>    C        5.24500        -7.58800         0.01400
| 46>    C       -0.13400        -4.31500        -0.02200
| 47>    C        0.56800        -3.06400        -0.02700
| 48>    C        2.77500        -5.01200        -1.07400
| 49>    N        4.37600        -6.39100         0.01700
| 50>    C        1.95900        -2.86900        -0.00900
| 51>    C        2.62100        -1.62200         0.00900
| 52>    C        5.54300         4.33900        -1.13000
| 53>    C        4.07000        -1.47900        -0.09400
| 54>    C        4.10400         2.75100        -0.02100
| 55>    C        5.02700         2.72900         1.03600
| 56>    C        6.16600         3.50900         0.97800
| 57>    C        7.61900         5.15300        -0.11500
| 58>    C        4.32100        -0.14800        -0.09200
| 59>    C        3.02500         0.51400         0.01500
| 60>    C        4.38700         3.58200        -1.11500
| 61>    C        2.86600         1.91600         0.01300
| 62>    N        6.41300         4.29600        -0.09500
| 63>    H       -6.02800         5.17800         0.30100
| 64>    H        2.27400         4.76600         0.08100
| 65>    H       -1.15100         5.48300        -0.18500
| 66>    H       -2.61600         7.49500        -0.14500
| 67>    H       -5.20700         7.98700         1.16400
| 68>    H       -4.73000         8.37500        -0.51700
| 69>    H       -6.18800         7.39000        -0.20800
| 70>    H       -0.33200         5.28200         0.06900
| 71>    H       -4.70400         3.07200         0.28400
| 72>    H        0.18200         1.07200         0.00500
| 73>    H       -0.18300        -1.08000        -0.02100
| 74>    H       -5.86400        -4.96200         1.89500
| 75>    H       -4.79400         2.27200         0.13900
| 76>    H       -4.80000        -2.16000        -1.99400
| 77>    H       -6.84100        -3.58200        -1.89300
| 78>    H       -8.42800        -4.53600         0.54600
| 79>    H       -7.95600        -5.33700        -0.98100
| 80>    H       -7.45600        -6.03700         0.58400
| 81>    H       -5.28700        -0.34400         0.10000
| 82>    H       -3.78000        -3.60100         1.94700
| 83>    H        3.58700        -6.86800        -1.84300
| 84>    H       -2.27600        -4.77400        -0.05000
| 85>    H        3.71400        -3.72400         1.92600
| 86>    H        5.09200        -5.79500         1.87100
| 87>    H        6.20500        -7.32900        -0.43900
| 88>    H        5.39300        -7.91700         1.04200
| 89>    H        4.75900        -8.37300        -0.56400
| 90>    H        0.32900        -5.29000        -0.00800
| 91>    H        2.14600        -4.84200        -1.94000
| 92>    H        5.80800         4.98600        -1.95600
| 93>    H        4.78800        -2.28100        -0.18500
| 94>    H        4.86000         2.11400         1.91200
| 95>    H        6.90100         3.53100         1.77200
| 96>    H        7.38300         6.10900         0.35600
| 97>    H        8.41400         4.65200         0.43500
| 98>    H        7.92100         5.31000        -1.15000
| 99>    H        5.28300         0.33600        -0.17900
|100>    H        3.72000         3.63200        -1.96700
|101> *
|102>
|103>                          ****END OF INPUT****

CARTESIAN COORDINATES (ANGSTROEM)
---------------------------------
  C     -4.950000    5.183000    0.203000
  C      1.474000    4.041000    0.057000
  C     -2.802000    4.093000    0.049000
  C     -2.223000    5.365000   -0.079000
  C     -3.017000    6.494000   -0.059000
  C     -5.180000    7.624000    0.133000
  C      0.132000    4.307000    0.061000
  C     -0.569000    3.056000    0.047000
  C      1.649000    2.618000    0.023000
  C     -4.196000    4.025000    0.195000
  N     -4.360000    6.394000    0.077000
  N      0.388000    2.067000    0.025000
  N     -2.010000    0.395000   -0.075000
  N     -0.388000   -2.074000   -0.027000
  N      2.010000   -0.401000    0.065000
  C     -1.960000    2.861000    0.024000
  C     -2.623000    1.615000   -0.018000
  C     -5.573000   -4.329000    1.066000
  C     -4.073000    1.471000    0.056000
  C     -4.106000   -2.756000   -0.026000
  C     -4.995000   -2.757000   -1.111000
  C     -6.132000   -3.542000   -1.076000
  C     -7.651000   -5.113000    0.040000
  C     -4.324000    0.141000    0.037000
  C     -3.025000   -0.520000   -0.048000
  C     -4.422000   -3.566000    1.075000
  N     -6.407000   -4.313000    0.001000
  C     -2.867000   -1.922000   -0.040000
  C     -1.650000   -2.624000   -0.027000
  C      3.568000   -6.142000   -1.040000
  C     -1.476000   -4.049000   -0.034000
  C      2.803000   -4.099000   -0.008000
  C      3.657000   -4.384000    1.069000
  C      4.427000   -5.530000    1.059000
  C      5.245000   -7.588000    0.014000
  C     -0.134000   -4.315000   -0.022000
  C      0.568000   -3.064000   -0.027000
  C      2.775000   -5.012000   -1.074000
  N      4.376000   -6.391000    0.017000
  C      1.959000   -2.869000   -0.009000
  C      2.621000   -1.622000    0.009000
  C      5.543000    4.339000   -1.130000
  C      4.070000   -1.479000   -0.094000
  C      4.104000    2.751000   -0.021000
  C      5.027000    2.729000    1.036000
  C      6.166000    3.509000    0.978000
  C      7.619000    5.153000   -0.115000
  C      4.321000   -0.148000   -0.092000
  C      3.025000    0.514000    0.015000
  C      4.387000    3.582000   -1.115000
  C      2.866000    1.916000    0.013000
  N      6.413000    4.296000   -0.095000
  H     -6.028000    5.178000    0.301000
  H      2.274000    4.766000    0.081000
  H     -1.151000    5.483000   -0.185000
  H     -2.616000    7.495000   -0.145000
  H     -5.207000    7.987000    1.164000
  H     -4.730000    8.375000   -0.517000
  H     -6.188000    7.390000   -0.208000
  H     -0.332000    5.282000    0.069000
  H     -4.704000    3.072000    0.284000
  H      0.182000    1.072000    0.005000
  H     -0.183000   -1.080000   -0.021000
  H     -5.864000   -4.962000    1.895000
  H     -4.794000    2.272000    0.139000
  H     -4.800000   -2.160000   -1.994000
  H     -6.841000   -3.582000   -1.893000
  H     -8.428000   -4.536000    0.546000
  H     -7.956000   -5.337000   -0.981000
  H     -7.456000   -6.037000    0.584000
  H     -5.287000   -0.344000    0.100000
  H     -3.780000   -3.601000    1.947000
  H      3.587000   -6.868000   -1.843000
  H     -2.276000   -4.774000   -0.050000
  H      3.714000   -3.724000    1.926000
  H      5.092000   -5.795000    1.871000
  H      6.205000   -7.329000   -0.439000
  H      5.393000   -7.917000    1.042000
  H      4.759000   -8.373000   -0.564000
  H      0.329000   -5.290000   -0.008000
  H      2.146000   -4.842000   -1.940000
  H      5.808000    4.986000   -1.956000
  H      4.788000   -2.281000   -0.185000
  H      4.860000    2.114000    1.912000
  H      6.901000    3.531000    1.772000
  H      7.383000    6.109000    0.356000
  H      8.414000    4.652000    0.435000
  H      7.921000    5.310000   -1.150000
  H      5.283000    0.336000   -0.179000
  H      3.720000    3.632000   -1.967000

 Total Charge           Charge          ....    0
 Multiplicity           Mult            ....    1
 Number of Electrons    NEL             ....  358
 Basis Dimension        Dim             ....  918

ORBITAL ENERGIES
----------------

  NO   OCC          E(Eh)            E(eV)
   0   2.0000     -15.679748      -426.6676
   1   2.0000     -15.633817      -425.4178
   2   2.0000     -15.631910      -425.3659
   3   2.0000     -15.588223      -424.1771
   4   2.0000     -15.525034      -422.4577
   5   2.0000     -15.515480      -422.1977
   6   2.0000     -15.453691      -420.5163
   7   2.0000     -15.439510      -420.1304
   8   2.0000     -11.329374      -308.2879
   9   2.0000     -11.328309      -308.2590
  10   2.0000     -11.327890      -308.2476
  11   2.0000     -11.299241      -307.4680
  12   2.0000     -11.298421      -307.4457
  13   2.0000     -11.292910      -307.2957
  14   2.0000     -11.291270      -307.2511
  15   2.0000     -11.286606      -307.1242
  16   2.0000     -11.286358      -307.1174
  17   2.0000     -11.281984      -306.9984
  18   2.0000     -11.269733      -306.6650
  19   2.0000     -11.263277      -306.4893
  20   2.0000     -11.262284      -306.4623
  21   2.0000     -11.250548      -306.1430
  22   2.0000     -11.248872      -306.0974
  23   2.0000     -11.237589      -305.7903
  24   2.0000     -11.236679      -305.7656
  25   2.0000     -11.231032      -305.6119
  26   2.0000     -11.230317      -305.5925
  27   2.0000     -11.229787      -305.5780
  28   2.0000     -11.229619      -305.5735
  29   2.0000     -11.211036      -305.0678
  30   2.0000     -11.209499      -305.0260
  31   2.0000     -11.194169      -304.6088
  32   2.0000     -11.192188      -304.5549
  33   2.0000     -11.191224      -304.5287
  34   2.0000     -11.188299      -304.4491
  35   2.0000     -11.188105      -304.4438
  36   2.0000     -11.186839      -304.4094
  37   2.0000     -11.174574      -304.0756
  38   2.0000     -11.172308      -304.0139
  39   2.0000     -11.171963      -304.0046
  40   2.0000     -11.170733      -303.9711
  41   2.0000     -11.168388      -303.9073
  42   2.0000     -11.167829      -303.8921
  43   2.0000     -11.161738      -303.7263
  44   2.0000     -11.161154      -303.7104
  45   2.0000     -11.156552      -303.5852
  46   2.0000     -11.156540      -303.5849
  47   2.0000     -11.151134      -303.4378
  48   2.0000     -11.146960      -303.3242
  49   2.0000     -11.135537      -303.0134
  50   2.0000     -11.129873      -302.8592
  51   2.0000     -11.118015      -302.5366
  52   2.0000      -1.360331       -37.0165
  53   2.0000      -1.321086       -35.9486
  54   2.0000      -1.319684       -35.9104
  55   2.0000      -1.280094       -34.8331
  56   2.0000      -1.226121       -33.3644
  57   2.0000      -1.210419       -32.9372
  58   2.0000      -1.173350       -31.9285
  59   2.0000      -1.150817       -31.3153
  60   2.0000      -1.143573       -31.1182
  61   2.0000      -1.110270       -30.2120
  62   2.0000      -1.108903       -30.1748
  63   2.0000      -1.082011       -29.4430
  64   2.0000      -1.077554       -29.3217
  65   2.0000      -1.045277       -28.4434
  66   2.0000      -1.044332       -28.4177
  67   2.0000      -1.041043       -28.3282
  68   2.0000      -1.014923       -27.6174
  69   2.0000      -1.014824       -27.6148
  70   2.0000      -1.009146       -27.4603
  71   2.0000      -0.993506       -27.0347
  72   2.0000      -0.985605       -26.8197
  73   2.0000      -0.981796       -26.7160
  74   2.0000      -0.974027       -26.5046
  75   2.0000      -0.962181       -26.1823
  76   2.0000      -0.954753       -25.9801
  77   2.0000      -0.946729       -25.7618
  78   2.0000      -0.939322       -25.5603
  79   2.0000      -0.916714       -24.9451
  80   2.0000      -0.910557       -24.7775
  81   2.0000      -0.898285       -24.4436
  82   2.0000      -0.877196       -23.8697
  83   2.0000      -0.872194       -23.7336
  84   2.0000      -0.870890       -23.6981
  85   2.0000      -0.861461       -23.4416
  86   2.0000      -0.845390       -23.0042
  87   2.0000      -0.838224       -22.8092
  88   2.0000      -0.829210       -22.5640
  89   2.0000      -0.796379       -21.6706
  90   2.0000      -0.789321       -21.4785
  91   2.0000      -0.774258       -21.0686
  92   2.0000      -0.753004       -20.4903
  93   2.0000      -0.734120       -19.9764
  94   2.0000      -0.728380       -19.8202
  95   2.0000      -0.726657       -19.7733
  96   2.0000      -0.720469       -19.6049
  97   2.0000      -0.717770       -19.5315
  98   2.0000      -0.714027       -19.4297
  99   2.0000      -0.699775       -19.0419
 100   2.0000      -0.698328       -19.0025
 101   2.0000      -0.694553       -18.8997
 102   2.0000      -0.685379       -18.6501
 103   2.0000      -0.684272       -18.6200
 104   2.0000      -0.678939       -18.4749
 105   2.0000      -0.674464       -18.3531
 106   2.0000      -0.672787       -18.3075
 107   2.0000      -0.661029       -17.9875
 108   2.0000      -0.658235       -17.9115
 109   2.0000      -0.652841       -17.7647
 110   2.0000      -0.652101       -17.7446
 111   2.0000      -0.646172       -17.5832
 112   2.0000      -0.645703       -17.5705
 113   2.0000      -0.638115       -17.3640
 114   2.0000      -0.635636       -17.2965
 115   2.0000      -0.628713       -17.1081
 116   2.0000      -0.623166       -16.9572
 117   2.0000      -0.620539       -16.8857
 118   2.0000      -0.612981       -16.6801
 119   2.0000      -0.612205       -16.6589
 120   2.0000      -0.611742       -16.6463
 121   2.0000      -0.611371       -16.6362
 122   2.0000      -0.601547       -16.3689
 123   2.0000      -0.589207       -16.0331
 124   2.0000      -0.581580       -15.8256
 125   2.0000      -0.580804       -15.8045
 126   2.0000      -0.580364       -15.7925
 127   2.0000      -0.571055       -15.5392
 128   2.0000      -0.566738       -15.4217
 129   2.0000      -0.559894       -15.2355
 130   2.0000      -0.555758       -15.1229
 131   2.0000      -0.547794       -14.9062
 132   2.0000      -0.542742       -14.7688
 133   2.0000      -0.540445       -14.7063
 134   2.0000      -0.538804       -14.6616
 135   2.0000      -0.536142       -14.5892
 136   2.0000      -0.532032       -14.4773
 137   2.0000      -0.518366       -14.1055
 138   2.0000      -0.516755       -14.0616
 139   2.0000      -0.514423       -13.9982
 140   2.0000      -0.511801       -13.9268
 141   2.0000      -0.510116       -13.8810
 142   2.0000      -0.507404       -13.8072
 143   2.0000      -0.505550       -13.7567
 144   2.0000      -0.502422       -13.6716
 145   2.0000      -0.495672       -13.4879
 146   2.0000      -0.488433       -13.2909
 147   2.0000      -0.481419       -13.1001
 148   2.0000      -0.476650       -12.9703
 149   2.0000      -0.467659       -12.7256
 150   2.0000      -0.466225       -12.6866
 151   2.0000      -0.456245       -12.4151
 152   2.0000      -0.451383       -12.2828
 153   2.0000      -0.445145       -12.1130
 154   2.0000      -0.438228       -11.9248
 155   2.0000      -0.427806       -11.6412
 156   2.0000      -0.409222       -11.1355
 157   2.0000      -0.390986       -10.6393
 158   2.0000      -0.388059       -10.5596
 159   2.0000      -0.386884       -10.5276
 160   2.0000      -0.378315       -10.2945
 161   2.0000      -0.373233       -10.1562
 162   2.0000      -0.361009        -9.8236
 163   2.0000      -0.356589        -9.7033
 164   2.0000      -0.355881        -9.6840
 165   2.0000      -0.341731        -9.2990
 166   2.0000      -0.337578        -9.1860
 167   2.0000      -0.324673        -8.8348
 168   2.0000      -0.321665        -8.7530
 169   2.0000      -0.305325        -8.3083
 170   2.0000      -0.299288        -8.1440
 171   2.0000      -0.285964        -7.7815
 172   2.0000      -0.278329        -7.5737
 173   2.0000      -0.263438        -7.1685
 174   2.0000      -0.242219        -6.5911
 175   2.0000      -0.190004        -5.1703
 176   2.0000      -0.181360        -4.9350
 177   2.0000      -0.080078        -2.1790
 178   2.0000      -0.059671        -1.6237
 179   0.0000       0.028437         0.7738
 180   0.0000       0.065398         1.7796
 181   0.0000       0.090245         2.4557
 182   0.0000       0.106303         2.8927
 183   0.0000       0.116582         3.1724

MULLIKEN ATOMIC CHARGES
-----------------------
   0 C :    0.219893
   1 N :   -0.455466
   2 C :   -0.070886
   3 N :   -0.341716
   4 C :   -0.106548
   5 N :   -0.568563
   6 C :   -0.106125
   7 N :   -0.341006
   8 C :    0.223016
   9 N :   -0.562436
  10 C :    0.118918
  11 N :   -0.438456
  12 C :   -0.047280
  13 N :   -0.429347
  14 C :    0.214766
  15 N :   -0.440904
  16 C :    0.233694
  17 C :   -0.097327
  18 C :   -0.179880
  19 C :    0.214129
  20 C :    0.213729
  21 C :   -0.059144
  22 C :   -0.090862
  23 C :   -0.039475
  24 C :    0.193308
  25 C :    0.114629
  26 C :   -0.083235
  27 C :    0.218641
  28 C :   -0.061853
  29 C :   -0.182248
  30 C :    0.245283
  31 C :    0.230363
  32 C :   -0.061296
  33 C :   -0.059990
  34 C :   -0.051191
  35 C :    0.228641
  36 C :    0.108206
  37 C :   -0.064615
  38 C :    0.231274
  39 C :   -0.057659
  40 C :   -0.181798
  41 C :    0.226012
  42 C :    0.197257
  43 C :   -0.072671
  44 C :   -0.089433
  45 C :   -0.061590
  46 C :    0.211836
  47 C :    0.115329
  48 C :   -0.066613
  49 C :    0.238340
  50 C :   -0.046207
  51 C :   -0.193183
  52 H :    0.032764
  53 H :   -0.018342
  54 H :    0.045049
  55 H :    0.032348
  56 H :    0.049615
  57 H :    0.046890
  58 H :    0.047237
  59 H :   -0.020033
  60 H :    0.063136
  61 H :    0.171175
  62 H :    0.175466
  63 H :    0.055200
  64 H :   -0.043104
  65 H :    0.047050
  66 H :    0.055476
  67 H :    0.062329
  68 H :    0.057170
  69 H :    0.056293
  70 H :   -0.031045
  71 H :    0.044709
  72 H :    0.071457
  73 H :   -0.007924
  74 H :    0.060544
  75 H :    0.070901
  76 H :    0.075085
  77 H :    0.068103
  78 H :    0.067404
  79 H :   -0.016754
  80 H :    0.061471
  81 H :    0.054438
  82 H :   -0.025027
  83 H :    0.042031
  84 H :    0.054307
  85 H :    0.060964
  86 H :    0.055608
  87 H :    0.057294
  88 H :   -0.014452
  89 H :    0.046904
Sum of atomic charges:   -0.0000000

LOEWDIN ATOMIC CHARGES
----------------------
   0 C :   -0.020497
   1 N :    0.122292
   2 C :   -0.100322
   3 N :    0.182334
   4 C :   -0.010550
   5 N :   -0.134818
   6 C :   -0.023710
   7 N :    0.175051
   8 C :   -0.017810
   9 N :   -0.140724
  10 C :    0.022459
  11 N :    0.141783
  12 C :   -0.096058
  13 N :    0.166466
  14 C :   -0.015056
  15 N :    0.138945
  16 C :   -0.060790
  17 C :   -0.015194
  18 C :   -0.114690
  19 C :   -0.072740
  20 C :    0.004784
  21 C :   -0.094457
  22 C :    0.037023
  23 C :   -0.014470
  24 C :   -0.013116
  25 C :    0.029771
  26 C :   -0.107387
  27 C :   -0.117185
  28 C :   -0.027801
  29 C :   -0.099017
  30 C :   -0.030099
  31 C :    0.024540
  32 C :   -0.094078
  33 C :    0.082491
  34 C :   -0.015128
  35 C :    0.023359
  36 C :    0.035287
  37 C :   -0.094276
  38 C :   -0.052078
  39 C :   -0.017541
  40 C :   -0.109088
  41 C :   -0.091151
  42 C :   -0.010460
  43 C :   -0.099403
  44 C :    0.034021
  45 C :   -0.028226
  46 C :    0.002215
  47 C :    0.029540
  48 C :   -0.094700
  49 C :   -0.069498
  50 C :   -0.018610
  51 C :   -0.108496
  52 H :    0.021729
  53 H :    0.002490
  54 H :   -0.010078
  55 H :    0.021688
  56 H :    0.022091
  57 H :    0.026004
  58 H :    0.026849
  59 H :    0.002860
  60 H :   -0.018557
  61 H :    0.060286
  62 H :    0.061904
  63 H :    0.030702
  64 H :   -0.003863
  65 H :    0.045880
  66 H :    0.029155
  67 H :    0.028172
  68 H :    0.031596
  69 H :    0.030260
  70 H :   -0.004992
  71 H :    0.043425
  72 H :    0.037781
  73 H :    0.007182
  74 H :    0.050746
  75 H :    0.037468
  76 H :    0.034890
  77 H :    0.036236
  78 H :    0.035920
  79 H :    0.002888
  80 H :    0.050825
  81 H :    0.029104
  82 H :   -0.002815
  83 H :    0.042549
  84 H :    0.029947
  85 H :    0.027432
  86 H :    0.030212
  87 H :    0.031442
  88 H :    0.002414
  89 H :    0.045040

  Mayer bond orders larger than 0.100000
B(  0-C ,  1-N ) :   1.0942 B(  0-C , 17-C ) :   1.7323 B(  0-C , 52-H ) :   0.9594
B(  1-N ,  8-C ) :   1.0991 B(  1-N , 10-C ) :   0.9772 B(  2-C , 12-C ) :   1.4843
B(  2-C , 16-C ) :   1.3771 B(  2-C , 53-H ) :   0.9710 B(  3-N , 14-C ) :   1.2239
B(  3-N , 16-C ) :   1.1778 B(  3-N , 61-H ) :   0.8980 B(  4-C ,  6-C ) :   1.2266
B(  4-C , 17-C ) :   1.2247 B(  4-C , 18-C ) :   1.4837 B(  5-N , 19-C ) :   1.4648
B(  5-N , 27-C ) :   1.3680 B(  6-C ,  8-C ) :   1.7229 B(  6-C , 54-H ) :   0.8705
B(  7-N , 30-C ) :   1.1949 B(  7-N , 38-C ) :   1.1899 B(  7-N , 62-H ) :   0.8967
B(  8-C , 55-H ) :   0.9607 B(  9-N , 41-C ) :   1.3947 B(  9-N , 49-C ) :   1.4246
B( 10-C , 56-H ) :   0.9776 B( 10-C , 57-H ) :   0.9824 B( 10-C , 58-H ) :   0.9837
B( 11-N , 20-C ) :   1.1312 B( 11-N , 24-C ) :   1.1064 B( 11-N , 25-C ) :   0.9603
B( 12-C , 14-C ) :   1.3605 B( 12-C , 59-H ) :   0.9098 B( 13-N , 31-C ) :   1.1618
B( 13-N , 35-C ) :   1.1606 B( 13-N , 36-C ) :   0.9412 B( 14-C , 18-C ) :   1.1167
B( 15-N , 42-C ) :   1.1078 B( 15-N , 46-C ) :   1.1247 B( 15-N , 47-C ) :   0.9612
B( 16-C , 51-C ) :   1.1675 B( 17-C , 60-H ) :   0.8512 B( 18-C , 19-C ) :   1.1157
B( 19-C , 21-C ) :   1.2541 B( 20-C , 28-C ) :   1.6288 B( 20-C , 63-H ) :   0.9702
B( 21-C , 26-C ) :   1.5793 B( 21-C , 64-H ) :   0.8907 B( 22-C , 23-C ) :   1.2895
B( 22-C , 28-C ) :   1.2634 B( 22-C , 29-C ) :   1.2256 B( 23-C , 24-C ) :   1.6202
B( 23-C , 65-H ) :   0.9703 B( 24-C , 66-H ) :   0.9696 B( 25-C , 67-H ) :   0.9760
B( 25-C , 68-H ) :   0.9828 B( 25-C , 69-H ) :   0.9823 B( 26-C , 27-C ) :   1.2664
B( 26-C , 70-H ) :   0.9658 B( 27-C , 29-C ) :   1.2067 B( 28-C , 71-H ) :   0.9720
B( 29-C , 30-C ) :   1.2473 B( 30-C , 32-C ) :   1.2787 B( 31-C , 39-C ) :   1.5875
B( 31-C , 72-H ) :   0.9681 B( 32-C , 37-C ) :   1.5802 B( 32-C , 73-H ) :   0.9786
B( 33-C , 34-C ) :   1.3071 B( 33-C , 39-C ) :   1.3043 B( 33-C , 40-C ) :   1.1759
B( 34-C , 35-C ) :   1.5851 B( 34-C , 74-H ) :   0.9696 B( 35-C , 75-H ) :   0.9681
B( 36-C , 76-H ) :   0.9768 B( 36-C , 77-H ) :   0.9816 B( 36-C , 78-H ) :   0.9823
B( 37-C , 38-C ) :   1.2846 B( 37-C , 79-H ) :   0.9764 B( 38-C , 40-C ) :   1.2342
B( 39-C , 80-H ) :   0.9705 B( 40-C , 41-C ) :   1.2503 B( 41-C , 43-C ) :   1.1844
B( 42-C , 50-C ) :   1.6328 B( 42-C , 81-H ) :   0.9697 B( 43-C , 48-C ) :   1.6685
B( 43-C , 82-H ) :   0.9721 B( 44-C , 45-C ) :   1.2636 B( 44-C , 50-C ) :   1.2728
B( 44-C , 51-C ) :   1.2607 B( 45-C , 46-C ) :   1.6343 B( 45-C , 83-H ) :   0.9718
B( 46-C , 84-H ) :   0.9700 B( 47-C , 85-H ) :   0.9762 B( 47-C , 86-H ) :   0.9829
B( 47-C , 87-H ) :   0.9824 B( 48-C , 49-C ) :   1.1878 B( 48-C , 88-H ) :   0.9748
B( 49-C , 51-C ) :   1.2454 B( 50-C , 89-H ) :   0.9708 B( 54-H , 59-H ) :   0.1059
B( 60-H , 64-H ) :   0.1283

MP2 TOTAL ENERGY:    -2130.745318577 Eh
FINAL SINGLE POINT ENERGY     -2130.745318576587

DIPOLE MOMENT
-------------
                                X             Y             Z
Electronic contribution:      2.74497      -4.35410      -0.19235
Nuclear contribution   :      0.06944       0.23278       0.19314
                        -----------------------------------------
Total Dipole Moment    :      2.81441      -4.12132       0.00078
                        -----------------------------------------
Magnitude (a.u.)       :      4.99061
Magnitude (Debye)      :     12.68513

Rotational constants in cm-1:     0.001501     0.001480     0.000760
Rotational constants in MHz :    45.013059    44.357429    22.781178

                             ****ORCA TERMINATED NORMALLY****
TOTAL RUN TIME: 0 days 1 hours 13 minutes 32 seconds 1 msec
