                         Program Version 5.0.4 -  RELEASE  -
|  1> ! PAL2
|  2> ! mp2 cc-pvdz TightSCF  NoKeepInts
|  3>
|  4> %scf
|  5>   MaxCore 2000
|  6> end
|  7> %mp2
|  8>   MaxCore 2000
|  9> end
| 10> * xyz 0 1
| 11>    C       -4.03900         5.83200        -1.07900
| 12>    C        1.47400         4.04100         0.05700
| 13>    C       -2.80200         4.09300         0.04900
| 14>    C       -3.15000         4.70400         1.26400
| 15>    C       -3.92500         5.84600         1.26800
| 16>    C       -5.21600         7.59900         0.14900
| 17>    C        0.13200         4.30700         0.06100
| 18>    C       -0.56900         3.05600         0.04700
| 19>    C        1.64900         2.61800         0.02300
| 20>    C       -3.27000         4.68500        -1.13400
| 21>    N       -4.35500         6.39600         0.10900
| 22>    N        0.38800         2.06700         0.02500
| 23>    N       -2.01000         0.39500        -0.07500
| 24>    N       -0.38800        -2.07400        -0.02700
| 25>    N        2.01000        -0.40100         0.06500
| 26>    C       -1.96000         2.86100         0.02400
| 27>    C       -2.62300         1.61500        -0.01800
| 28>    C       -5.57300        -4.32900         1.06600
| 29>    C       -4.07300         1.47100         0.05600
| 30>    C       -4.10600        -2.75600        -0.02600
| 31>    C       -4.99500        -2.75700        -1.11100
| 32>    C       -6.13200        -3.54200        -1.07600
| 33>    C       -7.65100        -5.11300         0.04000
| 34>    C       -4.32400         0.14100         0.03700
| 35>    C       -3.02500        -0.52000        -0.04800
| 36>    C       -4.42200        -3.56600         1.07500
| 37>    N       -6.40700        -4.31300         0.00100
| 38>    C       -2.86700        -1.92200        -0.04000
| 39>    C       -1.65000        -2.62400        -0.02700
| 40>    C        3.56800        -6.14200        -1.04000
| 41>    C       -1.47600        -4.04900        -0.03400
| 42>    C        2.80300        -4.09900        -0.00800
| 43>    C        3.65700        -4.38400         1.06900
| 44>    C        4.42700        -5.53000         1.05900
| 45>    C        5.24500        -7.58800         0.01400
| 46>    C       -0.13400        -4.31500        -0.02200
| 47>    C        0.56800        -3.06400        -0.02700
| 48>    C        2.77500        -5.01200        -1.07400
| 49>    N        4.37600        -6.39100         0.01700
| 50>    C        1.95900        -2.86900        -0.00900
| 51>    C        2.62100        -1.62200         0.00900
| 52>    C        5.54300         4.33900        -1.13000
| 53>    C        4.07000        -1.47900        -0.09400
| 54>    C        4.10400         2.75100        -0.02100
| 55>    C        5.02700         2.72900         1.03600
| 56>    C        6.16600         3.50900         0.97800
| 57>    C        7.61900         5.15300        -0.11500
| 58>    C        4.32100        -0.14800        -0.09200
| 59>    C        3.02500         0.51400         0.01500
| 60>    C        4.38700         3.58200        -1.11500
| 61>    C        2.86600         1.91600         0.01300
| 62>    N        6.41300         4.29600        -0.09500
| 63>    H       -4.41000         6.32900        -1.96600
| 64>    H        2.27400         4.76600         0.08100
| 65>    H       -2.82700         4.28900         2.21100
| 66>    H       -4.22600         6.34800         2.17900
| 67>    H       -6.25700         7.28800         0.26600
| 68>    H       -4.91300         8.21900         0.99200
| 69>    H       -5.09300         8.15000        -0.78300
| 70>    H       -0.33200         5.28200         0.06900
| 71>    H       -3.02400         4.26900        -2.10400
| 72>    H        0.18200         1.07200         0.00500
| 73>    H       -0.18300        -1.08000        -0.02100
| 74>    H       -5.86400        -4.96200         1.89500
| 75>    H       -4.79400         2.27200         0.13900
| 76>    H       -4.80000        -2.16000        -1.99400
| 77>    H       -6.84100        -3.58200        -1.89300
| 78>    H       -8.42800        -4.53600         0.54600
| 79>    H       -7.95600        -5.33700        -0.98100
| 80>    H       -7.45600        -6.03700         0.58400
| 81>    H       -5.28700        -0.34400         0.10000
| 82>    H       -3.78000        -3.60100         1.94700
| 83>    H        3.58700        -6.86800        -1.84300
| 84>    H       -2.27600        -4.77400        -0.05000
| 85>    H        3.71400        -3.72400         1.92600
| 86>    H        5.09200        -5.79500         1.87100
| 87>    H        6.20500        -7.32900        -0.43900
| 88>    H        5.39300        -7.91700         1.04200
| 89>    H        4.75900        -8.37300        -0.56400
| 90>    H        0.32900        -5.29000        -0.00800
| 91>    H        2.14600        -4.84200        -1.94000
| 92>    H        5.80800         4.98600        -1.95600
| 93>    H        4.78800        -2.28100        -0.18500
| 94>    H        4.86000         2.11400         1.91200
| 95>    H        6.90100         3.53100         1.77200
| 96>    H        7.38300         6.10900         0.35600
| 97>    H        8.41400         4.65200         0.43500
| 98>    H        7.92100         5.31000        -1.15000
| 99>    H        5.28300         0.33600        -0.17900
|100>    H        3.72000         3.63200        -1.96700
|101> *
|102>
|103>                          ****END OF INPUT****

CARTESIAN COORDINATES (ANGSTROEM)
---------------------------------
  C     -4.039000    5.832000   -1.079000
  C      1.474000    4.041000    0.057000
  C     -2.802000    4.093000    0.049000
  C     -3.150000    4.704000    1.264000
  C     -3.925000    5.846000    1.268000
  C     -5.216000    7.599000    0.149000
  C      0.132000    4.307000    0.061000
  C     -0.569000    3.056000    0.047000
  C      1.649000    2.618000    0.023000
  C     -3.270000    4.685000   -1.134000
  N     -4.355000    6.396000    0.109000
  N      0.388000    2.067000    0.025000
  N     -2.010000    0.395000   -0.075000
  N     -0.388000   -2.074000   -0.027000
  N      2.010000   -0.401000    0.065000
  C     -1.960000    2.861000    0.024000
  C     -2.623000    1.615000   -0.018000
  C     -5.573000   -4.329000    1.066000
  C     -4.073000    1.471000    0.056000
  C     -4.106000   -2.756000   -0.026000
  C     -4.995000   -2.757000   -1.111000
  C     -6.132000   -3.542000   -1.076000
  C     -7.651000   -5.113000    0.040000
  C     -4.324000    0.141000    0.037000
  C     -3.025000   -0.520000   -0.048000
  C     -4.422000   -3.566000    1.075000
  N     -6.407000   -4.313000    0.001000
  C     -2.867000   -1.922000   -0.040000
  C     -1.650000   -2.624000   -0.027000
  C      3.568000   -6.142000   -1.040000
  C     -1.476000   -4.049000   -0.034000
  C      2.803000   -4.099000   -0.008000
  C      3.657000   -4.384000    1.069000
  C      4.427000   -5.530000    1.059000
  C      5.245000   -7.588000    0.014000
  C     -0.134000   -4.315000   -0.022000
  C      0.568000   -3.064000   -0.027000
  C      2.775000   -5.012000   -1.074000
  N      4.376000   -6.391000    0.017000
  C      1.959000   -2.869000   -0.009000
  C      2.621000   -1.622000    0.009000
  C      5.543000    4.339000   -1.130000
  C      4.070000   -1.479000   -0.094000
  C      4.104000    2.751000   -0.021000
  C      5.027000    2.729000    1.036000
  C      6.166000    3.509000    0.978000
  C      7.619000    5.153000   -0.115000
  C      4.321000   -0.148000   -0.092000
  C      3.025000    0.514000    0.015000
  C      4.387000    3.582000   -1.115000
  C      2.866000    1.916000    0.013000
  N      6.413000    4.296000   -0.095000
  H     -4.410000    6.329000   -1.966000
  H      2.274000    4.766000    0.081000
  H     -2.827000    4.289000    2.211000
  H     -4.226000    6.348000    2.179000
  H     -6.257000    7.288000    0.266000
  H     -4.913000    8.219000    0.992000
  H     -5.093000    8.150000   -0.783000
  H     -0.332000    5.282000    0.069000
  H     -3.024000    4.269000   -2.104000
  H      0.182000    1.072000    0.005000
  H     -0.183000   -1.080000   -0.021000
  H     -5.864000   -4.962000    1.895000
  H     -4.794000    2.272000    0.139000
  H     -4.800000   -2.160000   -1.994000
  H     -6.841000   -3.582000   -1.893000
  H     -8.428000   -4.536000    0.546000
  H     -7.956000   -5.337000   -0.981000
  H     -7.456000   -6.037000    0.584000
  H     -5.287000   -0.344000    0.100000
  H     -3.780000   -3.601000    1.947000
  H      3.587000   -6.868000   -1.843000
  H     -2.276000   -4.774000   -0.050000
  H      3.714000   -3.724000    1.926000
  H      5.092000   -5.795000    1.871000
  H      6.205000   -7.329000   -0.439000
  H      5.393000   -7.917000    1.042000
  H      4.759000   -8.373000   -0.564000
  H      0.329000   -5.290000   -0.008000
  H      2.146000   -4.842000   -1.940000
  H      5.808000    4.986000   -1.956000
  H      4.788000   -2.281000   -0.185000
  H      4.860000    2.114000    1.912000
  H      6.901000    3.531000    1.772000
  H      7.383000    6.109000    0.356000
  H      8.414000    4.652000    0.435000
  H      7.921000    5.310000   -1.150000
  H      5.283000    0.336000   -0.179000
  H      3.720000    3.632000   -1.967000

 Total Charge           Charge          ....    0
 Multiplicity           Mult            ....    1
 Number of Electrons    NEL             ....  358
 Basis Dimension        Dim             ....  918

ORBITAL ENERGIES
----------------

  NO   OCC          E(Eh)            E(eV)
   0   2.0000     -15.717503      -427.6950
   1   2.0000     -15.629064      -425.2885
   2   2.0000     -15.618628      -425.0045
   3   2.0000     -15.577756      -423.8923
   4   2.0000     -15.520389      -422.3313
   5   2.0000     -15.504485      -421.8985
   6   2.0000     -15.451222      -420.4491
   7   2.0000     -15.426988      -419.7897
   8   2.0000     -11.356123      -309.0158
   9   2.0000     -11.354265      -308.9653
  10   2.0000     -11.348809      -308.8168
  11   2.0000     -11.311462      -307.8005
  12   2.0000     -11.296728      -307.3996
  13   2.0000     -11.291060      -307.2454
  14   2.0000     -11.289628      -307.2064
  15   2.0000     -11.285118      -307.0837
  16   2.0000     -11.285009      -307.0807
  17   2.0000     -11.281396      -306.9824
  18   2.0000     -11.280985      -306.9712
  19   2.0000     -11.271456      -306.7119
  20   2.0000     -11.263915      -306.5067
  21   2.0000     -11.244157      -305.9691
  22   2.0000     -11.240389      -305.8665
  23   2.0000     -11.232796      -305.6599
  24   2.0000     -11.227202      -305.5077
  25   2.0000     -11.226306      -305.4833
  26   2.0000     -11.222928      -305.3914
  27   2.0000     -11.218910      -305.2821
  28   2.0000     -11.218628      -305.2744
  29   2.0000     -11.210592      -305.0557
  30   2.0000     -11.208947      -305.0110
  31   2.0000     -11.194820      -304.6265
  32   2.0000     -11.193621      -304.5939
  33   2.0000     -11.192681      -304.5683
  34   2.0000     -11.189112      -304.4712
  35   2.0000     -11.188354      -304.4506
  36   2.0000     -11.184285      -304.3399
  37   2.0000     -11.180428      -304.2349
  38   2.0000     -11.180258      -304.2303
  39   2.0000     -11.177172      -304.1463
  40   2.0000     -11.169562      -303.9392
  41   2.0000     -11.165086      -303.8174
  42   2.0000     -11.164742      -303.8081
  43   2.0000     -11.161466      -303.7189
  44   2.0000     -11.160419      -303.6904
  45   2.0000     -11.144852      -303.2668
  46   2.0000     -11.144204      -303.2492
  47   2.0000     -11.141305      -303.1703
  48   2.0000     -11.137964      -303.0794
  49   2.0000     -11.131524      -302.9042
  50   2.0000     -11.116803      -302.5036
  51   2.0000     -11.111311      -302.3541
  52   2.0000      -1.389699       -37.8156
  53   2.0000      -1.317217       -35.8433
  54   2.0000      -1.307622       -35.5822
  55   2.0000      -1.272868       -34.6365
  56   2.0000      -1.224016       -33.3072
  57   2.0000      -1.200611       -32.6703
  58   2.0000      -1.177567       -32.0432
  59   2.0000      -1.163781       -31.6681
  60   2.0000      -1.137047       -30.9406
  61   2.0000      -1.107697       -30.1420
  62   2.0000      -1.106457       -30.1082
  63   2.0000      -1.097351       -29.8604
  64   2.0000      -1.066908       -29.0320
  65   2.0000      -1.056186       -28.7403
  66   2.0000      -1.041641       -28.3445
  67   2.0000      -1.032550       -28.0971
  68   2.0000      -1.014998       -27.6195
  69   2.0000      -1.004014       -27.3206
  70   2.0000      -1.000018       -27.2119
  71   2.0000      -0.994431       -27.0598
  72   2.0000      -0.985204       -26.8088
  73   2.0000      -0.976560       -26.5735
  74   2.0000      -0.964159       -26.2361
  75   2.0000      -0.961804       -26.1720
  76   2.0000      -0.950899       -25.8753
  77   2.0000      -0.940588       -25.5947
  78   2.0000      -0.933606       -25.4047
  79   2.0000      -0.919921       -25.0323
  80   2.0000      -0.912531       -24.8312
  81   2.0000      -0.890630       -24.2353
  82   2.0000      -0.886239       -24.1158
  83   2.0000      -0.868688       -23.6382
  84   2.0000      -0.860052       -23.4032
  85   2.0000      -0.846720       -23.0404
  86   2.0000      -0.829271       -22.5656
  87   2.0000      -0.827072       -22.5058
  88   2.0000      -0.820364       -22.3232
  89   2.0000      -0.794403       -21.6168
  90   2.0000      -0.785987       -21.3878
  91   2.0000      -0.771148       -20.9840
  92   2.0000      -0.738561       -20.0973
  93   2.0000      -0.733503       -19.9596
  94   2.0000      -0.728583       -19.8258
  95   2.0000      -0.723511       -19.6877
  96   2.0000      -0.716428       -19.4950
  97   2.0000      -0.708539       -19.2803
  98   2.0000      -0.707090       -19.2409
  99   2.0000      -0.704106       -19.1597
 100   2.0000      -0.695743       -18.9321
 101   2.0000      -0.688380       -18.7318
 102   2.0000      -0.684235       -18.6190
 103   2.0000      -0.675263       -18.3748
 104   2.0000      -0.672776       -18.3072
 105   2.0000      -0.669689       -18.2232
 106   2.0000      -0.667064       -18.1517
 107   2.0000      -0.662048       -18.0153
 108   2.0000      -0.652235       -17.7482
 109   2.0000      -0.649201       -17.6657
 110   2.0000      -0.648392       -17.6436
 111   2.0000      -0.642071       -17.4716
 112   2.0000      -0.640378       -17.4256
 113   2.0000      -0.634420       -17.2634
 114   2.0000      -0.633292       -17.2328
 115   2.0000      -0.629591       -17.1320
 116   2.0000      -0.626966       -17.0606
 117   2.0000      -0.615508       -16.7488
 118   2.0000      -0.610969       -16.6253
 119   2.0000      -0.609352       -16.5813
 120   2.0000      -0.608721       -16.5642
 121   2.0000      -0.600720       -16.3464
 122   2.0000      -0.591127       -16.0854
 123   2.0000      -0.589350       -16.0370
 124   2.0000      -0.584326       -15.9003
 125   2.0000      -0.578488       -15.7415
 126   2.0000      -0.575035       -15.6475
 127   2.0000      -0.570812       -15.5326
 128   2.0000      -0.570680       -15.5290
 129   2.0000      -0.569373       -15.4934
 130   2.0000      -0.556353       -15.1391
 131   2.0000      -0.543742       -14.7960
 132   2.0000      -0.541747       -14.7417
 133   2.0000      -0.538813       -14.6618
 134   2.0000      -0.533579       -14.5194
 135   2.0000      -0.529327       -14.4037
 136   2.0000      -0.519122       -14.1260
 137   2.0000      -0.515738       -14.0339
 138   2.0000      -0.513384       -13.9699
 139   2.0000      -0.512525       -13.9465
 140   2.0000      -0.509946       -13.8763
 141   2.0000      -0.503158       -13.6916
 142   2.0000      -0.501241       -13.6394
 143   2.0000      -0.497721       -13.5437
 144   2.0000      -0.495211       -13.4754
 145   2.0000      -0.493121       -13.4185
 146   2.0000      -0.488829       -13.3017
 147   2.0000      -0.473711       -12.8903
 148   2.0000      -0.470713       -12.8088
 149   2.0000      -0.465781       -12.6746
 150   2.0000      -0.462571       -12.5872
 151   2.0000      -0.460150       -12.5213
 152   2.0000      -0.451892       -12.2966
 153   2.0000      -0.440976       -11.9996
 154   2.0000      -0.432977       -11.7819
 155   2.0000      -0.431243       -11.7347
 156   2.0000      -0.418242       -11.3809
 157   2.0000      -0.416347       -11.3294
 158   2.0000      -0.411462       -11.1965
 159   2.0000      -0.408558       -11.1174
 160   2.0000      -0.381713       -10.3869
 161   2.0000      -0.369425       -10.0526
 162   2.0000      -0.353666        -9.6238
 163   2.0000      -0.351954        -9.5772
 164   2.0000      -0.345666        -9.4060
 165   2.0000      -0.341447        -9.2912
 166   2.0000      -0.338142        -9.2013
 167   2.0000      -0.317769        -8.6469
 168   2.0000      -0.312088        -8.4924
 169   2.0000      -0.304434        -8.2841
 170   2.0000      -0.298157        -8.1133
 171   2.0000      -0.282537        -7.6882
 172   2.0000      -0.275889        -7.5073
 173   2.0000      -0.266357        -7.2479
 174   2.0000      -0.229164        -6.2359
 175   2.0000      -0.183069        -4.9816
 176   2.0000      -0.173221        -4.7136
 177   2.0000      -0.062549        -1.7020
 178   2.0000      -0.050842        -1.3835
 179   0.0000       0.035932         0.9778
 180   0.0000       0.054905         1.4940
 181   0.0000       0.075091         2.0433
 182   0.0000       0.098582         2.6826
 183   0.0000       0.102238         2.7820

MULLIKEN ATOMIC CHARGES
-----------------------
   0 C :    0.238304
   1 N :   -0.411003
   2 C :   -0.066606
   3 N :   -0.344244
   4 C :   -0.068671
   5 N :   -0.565933
   6 C :   -0.024255
   7 N :   -0.336858
   8 C :    0.233327
   9 N :   -0.566362
  10 C :    0.103029
  11 N :   -0.440041
  12 C :   -0.058048
  13 N :   -0.451692
  14 C :    0.218749
  15 N :   -0.441824
  16 C :    0.257887
  17 C :   -0.032197
  18 C :   -0.173810
  19 C :    0.229041
  20 C :    0.186440
  21 C :   -0.066521
  22 C :   -0.091943
  23 C :   -0.068852
  24 C :    0.217704
  25 C :    0.115101
  26 C :   -0.065267
  27 C :    0.249288
  28 C :   -0.038977
  29 C :   -0.197213
  30 C :    0.219694
  31 C :    0.186650
  32 C :   -0.064132
  33 C :   -0.103859
  34 C :   -0.050291
  35 C :    0.176635
  36 C :    0.121466
  37 C :   -0.070872
  38 C :    0.245298
  39 C :   -0.065811
  40 C :   -0.205320
  41 C :    0.215636
  42 C :    0.212463
  43 C :   -0.077770
  44 C :   -0.092686
  45 C :   -0.037368
  46 C :    0.182483
  47 C :    0.116904
  48 C :   -0.082780
  49 C :    0.206332
  50 C :   -0.068580
  51 C :   -0.188946
  52 H :    0.083306
  53 H :   -0.006398
  54 H :    0.068952
  55 H :    0.082221
  56 H :    0.086641
  57 H :    0.077326
  58 H :    0.075576
  59 H :   -0.029775
  60 H :    0.067630
  61 H :    0.177415
  62 H :    0.167468
  63 H :    0.052081
  64 H :   -0.035718
  65 H :    0.039812
  66 H :    0.054303
  67 H :    0.057540
  68 H :    0.055564
  69 H :    0.058720
  70 H :   -0.012487
  71 H :    0.046208
  72 H :    0.036161
  73 H :   -0.019424
  74 H :    0.028189
  75 H :    0.034783
  76 H :    0.045119
  77 H :    0.045229
  78 H :    0.044459
  79 H :   -0.011481
  80 H :    0.027891
  81 H :    0.049873
  82 H :   -0.023179
  83 H :    0.042403
  84 H :    0.048723
  85 H :    0.053670
  86 H :    0.056220
  87 H :    0.054141
  88 H :   -0.031185
  89 H :    0.038326
Sum of atomic charges:   -0.0000000

LOEWDIN ATOMIC CHARGES
----------------------
   0 C :    0.042242
   1 N :    0.196240
   2 C :   -0.098368
   3 N :    0.170493
   4 C :    0.122956
   5 N :   -0.148467
   6 C :   -0.008648
   7 N :    0.177401
   8 C :    0.038296
   9 N :   -0.138394
  10 C :    0.040875
  11 N :    0.138429
  12 C :   -0.095983
  13 N :    0.111604
  14 C :   -0.062826
  15 N :    0.134009
  16 C :   -0.014873
  17 C :   -0.012264
  18 C :   -0.121749
  19 C :   -0.089295
  20 C :   -0.020220
  21 C :   -0.098669
  22 C :    0.031435
  23 C :   -0.035196
  24 C :    0.007535
  25 C :    0.029060
  26 C :   -0.091107
  27 C :   -0.051999
  28 C :   -0.014605
  29 C :   -0.118312
  30 C :   -0.066680
  31 C :   -0.028159
  32 C :   -0.100310
  33 C :   -0.009300
  34 C :   -0.027152
  35 C :   -0.037124
  36 C :    0.022667
  37 C :   -0.110730
  38 C :   -0.027799
  39 C :   -0.035251
  40 C :   -0.113800
  41 C :   -0.094123
  42 C :    0.000823
  43 C :   -0.115134
  44 C :    0.026006
  45 C :   -0.013816
  46 C :   -0.025278
  47 C :    0.028020
  48 C :   -0.115863
  49 C :   -0.119562
  50 C :   -0.034494
  51 C :   -0.108289
  52 H :    0.042587
  53 H :    0.008011
  54 H :    0.056693
  55 H :    0.042654
  56 H :    0.041007
  57 H :    0.040198
  58 H :    0.040108
  59 H :   -0.000894
  60 H :    0.055910
  61 H :    0.062753
  62 H :    0.057527
  63 H :    0.028335
  64 H :   -0.005591
  65 H :    0.041221
  66 H :    0.029674
  67 H :    0.026016
  68 H :    0.030820
  69 H :    0.031126
  70 H :    0.003614
  71 H :    0.045293
  72 H :    0.021449
  73 H :    0.001701
  74 H :    0.037252
  75 H :    0.020413
  76 H :    0.019461
  77 H :    0.025520
  78 H :    0.025207
  79 H :    0.005694
  80 H :    0.036276
  81 H :    0.027785
  82 H :   -0.001409
  83 H :    0.044051
  84 H :    0.026449
  85 H :    0.023992
  86 H :    0.030265
  87 H :    0.029933
  88 H :   -0.005591
  89 H :    0.040236

  Mayer bond orders larger than 0.100000
B(  0-C ,  1-N ) :   1.2119 B(  0-C , 17-C ) :   1.5110 B(  0-C , 52-H ) :   0.9666
B(  1-N ,  8-C ) :   1.2041 B(  1-N , 10-C ) :   0.9245 B(  2-C , 12-C ) :   1.5818
B(  2-C , 16-C ) :   1.2711 B(  2-C , 53-H ) :   0.9793 B(  3-N , 14-C ) :   1.1743
B(  3-N , 16-C ) :   1.2022 B(  3-N , 61-H ) :   0.8952 B(  4-C ,  6-C ) :   1.3604
B(  4-C , 17-C ) :   1.3626 B(  4-C , 18-C ) :   1.0500 B(  5-N , 19-C ) :   1.3643
B(  5-N , 27-C ) :   1.4486 B(  6-C ,  8-C ) :   1.5141 B(  6-C , 54-H ) :   0.9705
B(  7-N , 30-C ) :   1.1833 B(  7-N , 38-C ) :   1.2162 B(  7-N , 62-H ) :   0.9015
B(  8-C , 55-H ) :   0.9676 B(  9-N , 41-C ) :   1.4349 B(  9-N , 49-C ) :   1.3929
B( 10-C , 56-H ) :   0.9767 B( 10-C , 57-H ) :   0.9807 B( 10-C , 58-H ) :   0.9815
B( 11-N , 20-C ) :   1.0960 B( 11-N , 24-C ) :   1.1346 B( 11-N , 25-C ) :   0.9625
B( 12-C , 14-C ) :   1.2716 B( 12-C , 59-H ) :   0.9769 B( 13-N , 31-C ) :   1.0817
B( 13-N , 35-C ) :   1.0709 B( 13-N , 36-C ) :   0.9828 B( 14-C , 18-C ) :   1.2643
B( 15-N , 42-C ) :   1.1262 B( 15-N , 46-C ) :   1.0884 B( 15-N , 47-C ) :   0.9666
B( 16-C , 51-C ) :   1.2497 B( 17-C , 60-H ) :   0.9709 B( 18-C , 19-C ) :   1.3131
B( 19-C , 21-C ) :   1.1615 B( 20-C , 28-C ) :   1.6293 B( 20-C , 63-H ) :   0.9710
B( 21-C , 26-C ) :   1.6835 B( 21-C , 64-H ) :   0.9717 B( 22-C , 23-C ) :   1.2547
B( 22-C , 28-C ) :   1.2800 B( 22-C , 29-C ) :   1.2566 B( 23-C , 24-C ) :   1.6353
B( 23-C , 65-H ) :   0.9723 B( 24-C , 66-H ) :   0.9690 B( 25-C , 67-H ) :   0.9762
B( 25-C , 68-H ) :   0.9834 B( 25-C , 69-H ) :   0.9818 B( 26-C , 27-C ) :   1.1709
B( 26-C , 70-H ) :   0.9758 B( 27-C , 29-C ) :   1.2432 B( 28-C , 71-H ) :   0.9709
B( 29-C , 30-C ) :   1.1752 B( 30-C , 32-C ) :   1.3510 B( 31-C , 39-C ) :   1.6859
B( 31-C , 72-H ) :   0.9709 B( 32-C , 37-C ) :   1.5091 B( 32-C , 73-H ) :   0.9771
B( 33-C , 34-C ) :   1.2318 B( 33-C , 39-C ) :   1.2239 B( 33-C , 40-C ) :   1.3601
B( 34-C , 35-C ) :   1.6844 B( 34-C , 74-H ) :   0.9709 B( 35-C , 75-H ) :   0.9709
B( 36-C , 76-H ) :   0.9755 B( 36-C , 77-H ) :   0.9826 B( 36-C , 78-H ) :   0.9838
B( 37-C , 38-C ) :   1.3444 B( 37-C , 79-H ) :   0.9793 B( 38-C , 40-C ) :   1.1784
B( 39-C , 80-H ) :   0.9721 B( 40-C , 41-C ) :   1.1669 B( 41-C , 43-C ) :   1.2581
B( 42-C , 50-C ) :   1.6426 B( 42-C , 81-H ) :   0.9696 B( 43-C , 48-C ) :   1.5930
B( 43-C , 82-H ) :   0.9756 B( 44-C , 45-C ) :   1.2809 B( 44-C , 50-C ) :   1.2483
B( 44-C , 51-C ) :   1.2476 B( 45-C , 46-C ) :   1.6333 B( 45-C , 83-H ) :   0.9702
B( 46-C , 84-H ) :   0.9709 B( 47-C , 85-H ) :   0.9759 B( 47-C , 86-H ) :   0.9826
B( 47-C , 87-H ) :   0.9830 B( 48-C , 49-C ) :   1.2523 B( 48-C , 88-H ) :   0.9725
B( 49-C , 51-C ) :   1.1877 B( 50-C , 89-H ) :   0.9722

MP2 TOTAL ENERGY:    -2130.871362990 Eh
FINAL SINGLE POINT ENERGY     -2130.871362990172

DIPOLE MOMENT
-------------
                                X             Y             Z
Electronic contribution:     -4.60871       5.38173      -0.15593
Nuclear contribution   :     -0.02427       0.16921       0.21178
                        -----------------------------------------
Total Dipole Moment    :     -4.63298       5.55095       0.05585
                        -----------------------------------------
Magnitude (a.u.)       :      7.23053
Magnitude (Debye)      :     18.37856

Rotational constants in cm-1:     0.001498     0.001472     0.000763
Rotational constants in MHz :    44.899697    44.139577    22.868929

                             ****ORCA TERMINATED NORMALLY****
TOTAL RUN TIME: 0 days 1 hours 20 minutes 45 seconds 670 msec
