                         Program Version 5.0.4 -  RELEASE  -
|  1> ! PAL2
|  2> ! mp2 cc-pvdz TightSCF  NoKeepInts
|  3>
|  4> %scf
|  5>   MaxCore 2000
|  6> end
|  7> %mp2
|  8>   MaxCore 2000
|  9> end
| 10> * xyz 0 1
| 11>    C       -3.72700         6.04400        -1.02900
| 12>    C        1.47400         4.04100         0.05700
| 13>    C       -2.80200         4.09300         0.04900
| 14>    C       -3.47300         4.48400         1.21800
| 15>    C       -4.24300         5.63000         1.22500
| 16>    C       -5.22300         7.59400         0.14300
| 17>    C        0.13200         4.30700         0.06100
| 18>    C       -0.56900         3.05600         0.04700
| 19>    C        1.64900         2.61800         0.02300
| 20>    C       -2.94900         4.90400        -1.08700
| 21>    N       -4.35900         6.39300         0.11400
| 22>    N        0.38800         2.06700         0.02500
| 23>    N       -2.01000         0.39500        -0.07500
| 24>    N       -0.38800        -2.07400        -0.02700
| 25>    N        2.01000        -0.40100         0.06500
| 26>    C       -1.96000         2.86100         0.02400
| 27>    C       -2.62300         1.61500        -0.01800
| 28>    C       -5.57300        -4.32900         1.06600
| 29>    C       -4.07300         1.47100         0.05600
| 30>    C       -4.10600        -2.75600        -0.02600
| 31>    C       -4.99500        -2.75700        -1.11100
| 32>    C       -6.13200        -3.54200        -1.07600
| 33>    C       -7.65100        -5.11300         0.04000
| 34>    C       -4.32400         0.14100         0.03700
| 35>    C       -3.02500        -0.52000        -0.04800
| 36>    C       -4.42200        -3.56600         1.07500
| 37>    N       -6.40700        -4.31300         0.00100
| 38>    C       -2.86700        -1.92200        -0.04000
| 39>    C       -1.65000        -2.62400        -0.02700
| 40>    C        3.56800        -6.14200        -1.04000
| 41>    C       -1.47600        -4.04900        -0.03400
| 42>    C        2.80300        -4.09900        -0.00800
| 43>    C        3.65700        -4.38400         1.06900
| 44>    C        4.42700        -5.53000         1.05900
| 45>    C        5.24500        -7.58800         0.01400
| 46>    C       -0.13400        -4.31500        -0.02200
| 47>    C        0.56800        -3.06400        -0.02700
| 48>    C        2.77500        -5.01200        -1.07400
| 49>    N        4.37600        -6.39100         0.01700
| 50>    C        1.95900        -2.86900        -0.00900
| 51>    C        2.62100        -1.62200         0.00900
| 52>    C        5.54300         4.33900        -1.13000
| 53>    C        4.07000        -1.47900        -0.09400
| 54>    C        4.10400         2.75100        -0.02100
| 55>    C        5.02700         2.72900         1.03600
| 56>    C        6.16600         3.50900         0.97800
| 57>    C        7.61900         5.15300        -0.11500
| 58>    C        4.32100        -0.14800        -0.09200
| 59>    C        3.02500         0.51400         0.01500
| 60>    C        4.38700         3.58200        -1.11500
| 61>    C        2.86600         1.91600         0.01300
| 62>    N        6.41300         4.29600        -0.09500
| 63>    H       -3.85800         6.70500        -1.87700
| 64>    H        2.27400         4.76600         0.08100
| 65>    H       -3.40600         3.89500         2.12400
| 66>    H       -4.78600         5.96700         2.09900
| 67>    H       -6.25100         7.29900        -0.08000
| 68>    H       -5.16800         8.04200         1.13500
| 69>    H       -4.86700         8.30100        -0.60600
| 70>    H       -0.33200         5.28200         0.06900
| 71>    H       -2.44500         4.66300        -2.01600
| 72>    H        0.18200         1.07200         0.00500
| 73>    H       -0.18300        -1.08000        -0.02100
| 74>    H       -5.86400        -4.96200         1.89500
| 75>    H       -4.79400         2.27200         0.13900
| 76>    H       -4.80000        -2.16000        -1.99400
| 77>    H       -6.84100        -3.58200        -1.89300
| 78>    H       -8.42800        -4.53600         0.54600
| 79>    H       -7.95600        -5.33700        -0.98100
| 80>    H       -7.45600        -6.03700         0.58400
| 81>    H       -5.28700        -0.34400         0.10000
| 82>    H       -3.78000        -3.60100         1.94700
| 83>    H        3.58700        -6.86800        -1.84300
| 84>    H       -2.27600        -4.77400        -0.05000
| 85>    H        3.71400        -3.72400         1.92600
| 86>    H        5.09200        -5.79500         1.87100
| 87>    H        6.20500        -7.32900        -0.43900
| 88>    H        5.39300        -7.91700         1.04200
| 89>    H        4.75900        -8.37300        -0.56400
| 90>    H        0.32900        -5.29000        -0.00800
| 91>    H        2.14600        -4.84200        -1.94000
| 92>    H        5.80800         4.98600        -1.95600
| 93>    H        4.78800        -2.28100        -0.18500
| 94>    H        4.86000         2.11400         1.91200
| 95>    H        6.90100         3.53100         1.77200
| 96>    H        7.38300         6.10900         0.35600
| 97>    H        8.41400         4.65200         0.43500
| 98>    H        7.92100         5.31000        -1.15000
| 99>    H        5.28300         0.33600        -0.17900
|100>    H        3.72000         3.63200        -1.96700
|101> *
|102>
|103>                          ****END OF INPUT****

CARTESIAN COORDINATES (ANGSTROEM)
---------------------------------
  C     -3.727000    6.044000   -1.029000
  C      1.474000    4.041000    0.057000
  C     -2.802000    4.093000    0.049000
  C     -3.473000    4.484000    1.218000
  C     -4.243000    5.630000    1.225000
  C     -5.223000    7.594000    0.143000
  C      0.132000    4.307000    0.061000
  C     -0.569000    3.056000    0.047000
  C      1.649000    2.618000    0.023000
  C     -2.949000    4.904000   -1.087000
  N     -4.359000    6.393000    0.114000
  N      0.388000    2.067000    0.025000
  N     -2.010000    0.395000   -0.075000
  N     -0.388000   -2.074000   -0.027000
  N      2.010000   -0.401000    0.065000
  C     -1.960000    2.861000    0.024000
  C     -2.623000    1.615000   -0.018000
  C     -5.573000   -4.329000    1.066000
  C     -4.073000    1.471000    0.056000
  C     -4.106000   -2.756000   -0.026000
  C     -4.995000   -2.757000   -1.111000
  C     -6.132000   -3.542000   -1.076000
  C     -7.651000   -5.113000    0.040000
  C     -4.324000    0.141000    0.037000
  C     -3.025000   -0.520000   -0.048000
  C     -4.422000   -3.566000    1.075000
  N     -6.407000   -4.313000    0.001000
  C     -2.867000   -1.922000   -0.040000
  C     -1.650000   -2.624000   -0.027000
  C      3.568000   -6.142000   -1.040000
  C     -1.476000   -4.049000   -0.034000
  C      2.803000   -4.099000   -0.008000
  C      3.657000   -4.384000    1.069000
  C      4.427000   -5.530000    1.059000
  C      5.245000   -7.588000    0.014000
  C     -0.134000   -4.315000   -0.022000
  C      0.568000   -3.064000   -0.027000
  C      2.775000   -5.012000   -1.074000
  N      4.376000   -6.391000    0.017000
  C      1.959000   -2.869000   -0.009000
  C      2.621000   -1.622000    0.009000
  C      5.543000    4.339000   -1.130000
  C      4.070000   -1.479000   -0.094000
  C      4.104000    2.751000   -0.021000
  C      5.027000    2.729000    1.036000
  C      6.166000    3.509000    0.978000
  C      7.619000    5.153000   -0.115000
  C      4.321000   -0.148000   -0.092000
  C      3.025000    0.514000    0.015000
  C      4.387000    3.582000   -1.115000
  C      2.866000    1.916000    0.013000
  N      6.413000    4.296000   -0.095000
  H     -3.858000    6.705000   -1.877000
  H      2.274000    4.766000    0.081000
  H     -3.406000    3.895000    2.124000
  H     -4.786000    5.967000    2.099000
  H     -6.251000    7.299000   -0.080000
  H     -5.168000    8.042000    1.135000
  H     -4.867000    8.301000   -0.606000
  H     -0.332000    5.282000    0.069000
  H     -2.445000    4.663000   -2.016000
  H      0.182000    1.072000    0.005000
  H     -0.183000   -1.080000   -0.021000
  H     -5.864000   -4.962000    1.895000
  H     -4.794000    2.272000    0.139000
  H     -4.800000   -2.160000   -1.994000
  H     -6.841000   -3.582000   -1.893000
  H     -8.428000   -4.536000    0.546000
  H     -7.956000   -5.337000   -0.981000
  H     -7.456000   -6.037000    0.584000
  H     -5.287000   -0.344000    0.100000
  H     -3.780000   -3.601000    1.947000
  H      3.587000   -6.868000   -1.843000
  H     -2.276000   -4.774000   -0.050000
  H      3.714000   -3.724000    1.926000
  H      5.092000   -5.795000    1.871000
  H      6.205000   -7.329000   -0.439000
  H      5.393000   -7.917000    1.042000
  H      4.759000   -8.373000   -0.564000
  H      0.329000   -5.290000   -0.008000
  H      2.146000   -4.842000   -1.940000
  H      5.808000    4.986000   -1.956000
  H      4.788000   -2.281000   -0.185000
  H      4.860000    2.114000    1.912000
  H      6.901000    3.531000    1.772000
  H      7.383000    6.109000    0.356000
  H      8.414000    4.652000    0.435000
  H      7.921000    5.310000   -1.150000
  H      5.283000    0.336000   -0.179000
  H      3.720000    3.632000   -1.967000

 Total Charge           Charge          ....    0
 Multiplicity           Mult            ....    1
 Number of Electrons    NEL             ....  358
 Basis Dimension        Dim             ....  918

ORBITAL ENERGIES
----------------

  NO   OCC          E(Eh)            E(eV)
   0   2.0000     -15.685008      -426.8108
   1   2.0000     -15.634297      -425.4309
   2   2.0000     -15.623697      -425.1424
   3   2.0000     -15.595588      -424.3775
   4   2.0000     -15.519255      -422.3004
   5   2.0000     -15.508751      -422.0146
   6   2.0000     -15.448391      -420.3721
   7   2.0000     -15.432509      -419.9399
   8   2.0000     -11.331604      -308.3486
   9   2.0000     -11.330039      -308.3060
  10   2.0000     -11.329993      -308.3048
  11   2.0000     -11.299705      -307.4806
  12   2.0000     -11.293489      -307.3115
  13   2.0000     -11.292753      -307.2914
  14   2.0000     -11.287051      -307.1363
  15   2.0000     -11.284312      -307.0617
  16   2.0000     -11.283183      -307.0310
  17   2.0000     -11.277522      -306.8770
  18   2.0000     -11.275278      -306.8159
  19   2.0000     -11.265342      -306.5455
  20   2.0000     -11.264823      -306.5314
  21   2.0000     -11.259048      -306.3743
  22   2.0000     -11.256065      -306.2931
  23   2.0000     -11.237709      -305.7936
  24   2.0000     -11.230591      -305.5999
  25   2.0000     -11.229709      -305.5759
  26   2.0000     -11.227909      -305.5269
  27   2.0000     -11.222737      -305.3862
  28   2.0000     -11.222466      -305.3788
  29   2.0000     -11.204891      -304.9006
  30   2.0000     -11.204270      -304.8837
  31   2.0000     -11.202748      -304.8423
  32   2.0000     -11.201921      -304.8198
  33   2.0000     -11.200974      -304.7940
  34   2.0000     -11.186174      -304.3913
  35   2.0000     -11.185992      -304.3863
  36   2.0000     -11.185633      -304.3765
  37   2.0000     -11.185296      -304.3674
  38   2.0000     -11.184872      -304.3558
  39   2.0000     -11.168781      -303.9180
  40   2.0000     -11.166465      -303.8550
  41   2.0000     -11.163325      -303.7695
  42   2.0000     -11.160766      -303.6999
  43   2.0000     -11.159983      -303.6786
  44   2.0000     -11.154932      -303.5411
  45   2.0000     -11.153775      -303.5097
  46   2.0000     -11.153525      -303.5029
  47   2.0000     -11.148049      -303.3538
  48   2.0000     -11.145947      -303.2966
  49   2.0000     -11.139228      -303.1138
  50   2.0000     -11.125637      -302.7440
  51   2.0000     -11.121761      -302.6385
  52   2.0000      -1.363868       -37.1127
  53   2.0000      -1.321546       -35.9611
  54   2.0000      -1.312037       -35.7024
  55   2.0000      -1.288260       -35.0553
  56   2.0000      -1.220395       -33.2086
  57   2.0000      -1.205121       -32.7930
  58   2.0000      -1.170282       -31.8450
  59   2.0000      -1.144911       -31.1546
  60   2.0000      -1.143905       -31.1272
  61   2.0000      -1.109788       -30.1989
  62   2.0000      -1.101471       -29.9726
  63   2.0000      -1.084430       -29.5088
  64   2.0000      -1.080412       -29.3995
  65   2.0000      -1.045558       -28.4511
  66   2.0000      -1.040119       -28.3031
  67   2.0000      -1.036746       -28.2113
  68   2.0000      -1.014599       -27.6086
  69   2.0000      -1.013422       -27.5766
  70   2.0000      -1.005643       -27.3649
  71   2.0000      -0.988804       -26.9067
  72   2.0000      -0.985136       -26.8069
  73   2.0000      -0.978431       -26.6245
  74   2.0000      -0.967673       -26.3317
  75   2.0000      -0.959653       -26.1135
  76   2.0000      -0.951390       -25.8886
  77   2.0000      -0.944747       -25.7079
  78   2.0000      -0.926739       -25.2179
  79   2.0000      -0.918166       -24.9846
  80   2.0000      -0.911205       -24.7951
  81   2.0000      -0.888937       -24.1892
  82   2.0000      -0.875258       -23.8170
  83   2.0000      -0.870702       -23.6930
  84   2.0000      -0.863917       -23.5084
  85   2.0000      -0.851101       -23.1596
  86   2.0000      -0.841448       -22.8970
  87   2.0000      -0.831253       -22.6195
  88   2.0000      -0.822285       -22.3755
  89   2.0000      -0.795998       -21.6602
  90   2.0000      -0.791552       -21.5392
  91   2.0000      -0.754177       -20.5222
  92   2.0000      -0.734105       -19.9760
  93   2.0000      -0.727346       -19.7921
  94   2.0000      -0.721241       -19.6260
  95   2.0000      -0.717353       -19.5202
  96   2.0000      -0.715616       -19.4729
  97   2.0000      -0.707717       -19.2580
  98   2.0000      -0.699154       -19.0249
  99   2.0000      -0.695808       -18.9339
 100   2.0000      -0.693705       -18.8767
 101   2.0000      -0.686402       -18.6779
 102   2.0000      -0.683020       -18.5859
 103   2.0000      -0.676510       -18.4088
 104   2.0000      -0.672030       -18.2869
 105   2.0000      -0.669260       -18.2115
 106   2.0000      -0.666489       -18.1361
 107   2.0000      -0.655412       -17.8347
 108   2.0000      -0.653426       -17.7806
 109   2.0000      -0.650339       -17.6966
 110   2.0000      -0.648209       -17.6387
 111   2.0000      -0.646044       -17.5798
 112   2.0000      -0.645633       -17.5686
 113   2.0000      -0.639129       -17.3916
 114   2.0000      -0.634002       -17.2521
 115   2.0000      -0.626736       -17.0544
 116   2.0000      -0.622829       -16.9480
 117   2.0000      -0.615690       -16.7538
 118   2.0000      -0.613872       -16.7043
 119   2.0000      -0.612502       -16.6670
 120   2.0000      -0.609369       -16.5818
 121   2.0000      -0.604588       -16.4517
 122   2.0000      -0.594405       -16.1746
 123   2.0000      -0.588334       -16.0094
 124   2.0000      -0.583962       -15.8904
 125   2.0000      -0.581479       -15.8228
 126   2.0000      -0.576055       -15.6753
 127   2.0000      -0.573864       -15.6156
 128   2.0000      -0.572332       -15.5739
 129   2.0000      -0.558663       -15.2020
 130   2.0000      -0.554971       -15.1015
 131   2.0000      -0.548814       -14.9340
 132   2.0000      -0.545319       -14.8389
 133   2.0000      -0.538603       -14.6561
 134   2.0000      -0.534950       -14.5567
 135   2.0000      -0.531673       -14.4676
 136   2.0000      -0.520358       -14.1597
 137   2.0000      -0.517567       -14.0837
 138   2.0000      -0.513521       -13.9736
 139   2.0000      -0.513159       -13.9638
 140   2.0000      -0.510104       -13.8806
 141   2.0000      -0.507705       -13.8154
 142   2.0000      -0.502865       -13.6837
 143   2.0000      -0.500223       -13.6118
 144   2.0000      -0.496284       -13.5046
 145   2.0000      -0.493627       -13.4323
 146   2.0000      -0.493322       -13.4240
 147   2.0000      -0.482355       -13.1256
 148   2.0000      -0.480450       -13.0737
 149   2.0000      -0.464408       -12.6372
 150   2.0000      -0.463265       -12.6061
 151   2.0000      -0.456631       -12.4256
 152   2.0000      -0.449928       -12.2432
 153   2.0000      -0.441912       -12.0250
 154   2.0000      -0.438781       -11.9398
 155   2.0000      -0.437208       -11.8970
 156   2.0000      -0.425898       -11.5893
 157   2.0000      -0.419615       -11.4183
 158   2.0000      -0.403959       -10.9923
 159   2.0000      -0.389061       -10.5869
 160   2.0000      -0.382503       -10.4084
 161   2.0000      -0.372748       -10.1430
 162   2.0000      -0.359103        -9.7717
 163   2.0000      -0.356617        -9.7040
 164   2.0000      -0.349120        -9.5000
 165   2.0000      -0.339174        -9.2294
 166   2.0000      -0.337546        -9.1851
 167   2.0000      -0.330164        -8.9842
 168   2.0000      -0.318243        -8.6598
 169   2.0000      -0.299647        -8.1538
 170   2.0000      -0.298768        -8.1299
 171   2.0000      -0.285116        -7.7584
 172   2.0000      -0.280743        -7.6394
 173   2.0000      -0.262431        -7.1411
 174   2.0000      -0.236655        -6.4397
 175   2.0000      -0.184915        -5.0318
 176   2.0000      -0.174862        -4.7582
 177   2.0000      -0.062683        -1.7057
 178   2.0000      -0.051323        -1.3966
 179   0.0000       0.034061         0.9268
 180   0.0000       0.061726         1.6796
 181   0.0000       0.090869         2.4727
 182   0.0000       0.096820         2.6346
 183   0.0000       0.106137         2.8881

MULLIKEN ATOMIC CHARGES
-----------------------
   0 C :    0.226516
   1 N :   -0.422992
   2 C :   -0.066186
   3 N :   -0.341219
   4 C :   -0.072640
   5 N :   -0.565425
   6 C :   -0.033893
   7 N :   -0.336870
   8 C :    0.222692
   9 N :   -0.565447
  10 C :    0.107111
  11 N :   -0.438698
  12 C :   -0.061506
  13 N :   -0.448144
  14 C :    0.228054
  15 N :   -0.441059
  16 C :    0.249193
  17 C :   -0.040611
  18 C :   -0.190683
  19 C :    0.235398
  20 C :    0.194972
  21 C :   -0.072685
  22 C :   -0.088158
  23 C :   -0.061743
  24 C :    0.215076
  25 C :    0.114360
  26 C :   -0.068412
  27 C :    0.240989
  28 C :   -0.043137
  29 C :   -0.194748
  30 C :    0.225126
  31 C :    0.193274
  32 C :   -0.066295
  33 C :   -0.097298
  34 C :   -0.051052
  35 C :    0.185673
  36 C :    0.119209
  37 C :   -0.069547
  38 C :    0.241654
  39 C :   -0.063739
  40 C :   -0.200565
  41 C :    0.218526
  42 C :    0.210334
  43 C :   -0.075791
  44 C :   -0.090473
  45 C :   -0.042089
  46 C :    0.190220
  47 C :    0.116233
  48 C :   -0.079552
  49 C :    0.213332
  50 C :   -0.063109
  51 C :   -0.188606
  52 H :    0.073438
  53 H :   -0.009343
  54 H :    0.060374
  55 H :    0.072182
  56 H :    0.076427
  57 H :    0.070141
  58 H :    0.068334
  59 H :   -0.024068
  60 H :    0.059327
  61 H :    0.176029
  62 H :    0.169114
  63 H :    0.054350
  64 H :   -0.029970
  65 H :    0.043398
  66 H :    0.056320
  67 H :    0.059951
  68 H :    0.056993
  69 H :    0.059297
  70 H :   -0.017321
  71 H :    0.047475
  72 H :    0.042388
  73 H :   -0.018829
  74 H :    0.033850
  75 H :    0.041257
  76 H :    0.050254
  77 H :    0.049188
  78 H :    0.048472
  79 H :   -0.012509
  80 H :    0.033894
  81 H :    0.051602
  82 H :   -0.022578
  83 H :    0.043379
  84 H :    0.050916
  85 H :    0.056059
  86 H :    0.056667
  87 H :    0.055305
  88 H :   -0.027972
  89 H :    0.040640
Sum of atomic charges:   -0.0000000

LOEWDIN ATOMIC CHARGES
----------------------
   0 C :    0.025427
   1 N :    0.173654
   2 C :   -0.099827
   3 N :    0.173940
   4 C :    0.089097
   5 N :   -0.145531
   6 C :   -0.011004
   7 N :    0.177837
   8 C :    0.023123
   9 N :   -0.138953
  10 C :    0.036315
  11 N :    0.141812
  12 C :   -0.098453
  13 N :    0.120787
  14 C :   -0.056912
  15 N :    0.136532
  16 C :   -0.025840
  17 C :   -0.014246
  18 C :   -0.115866
  19 C :   -0.089518
  20 C :   -0.011679
  21 C :   -0.100543
  22 C :    0.038704
  23 C :   -0.029514
  24 C :    0.006282
  25 C :    0.029800
  26 C :   -0.096012
  27 C :   -0.065953
  28 C :   -0.016342
  29 C :   -0.116835
  30 C :   -0.059634
  31 C :   -0.019774
  32 C :   -0.102296
  33 C :    0.005737
  34 C :   -0.025375
  35 C :   -0.026488
  36 C :    0.024822
  37 C :   -0.107921
  38 C :   -0.033580
  39 C :   -0.031720
  40 C :   -0.112491
  41 C :   -0.092085
  42 C :   -0.000234
  43 C :   -0.110765
  44 C :    0.030470
  45 C :   -0.016166
  46 C :   -0.017651
  47 C :    0.028664
  48 C :   -0.111061
  49 C :   -0.109742
  50 C :   -0.030430
  51 C :   -0.107874
  52 H :    0.038226
  53 H :    0.006584
  54 H :    0.052027
  55 H :    0.037934
  56 H :    0.035528
  57 H :    0.036878
  58 H :    0.036688
  59 H :    0.000798
  60 H :    0.051615
  61 H :    0.062141
  62 H :    0.058457
  63 H :    0.029612
  64 H :   -0.004186
  65 H :    0.043142
  66 H :    0.030400
  67 H :    0.027198
  68 H :    0.031490
  69 H :    0.031461
  70 H :    0.001297
  71 H :    0.045638
  72 H :    0.024257
  73 H :    0.001949
  74 H :    0.039536
  75 H :    0.023420
  76 H :    0.022088
  77 H :    0.027364
  78 H :    0.027068
  79 H :    0.005139
  80 H :    0.038870
  81 H :    0.028419
  82 H :   -0.001226
  83 H :    0.044208
  84 H :    0.027668
  85 H :    0.025142
  86 H :    0.030526
  87 H :    0.030486
  88 H :   -0.004050
  89 H :    0.041521

  Mayer bond orders larger than 0.100000
B(  0-C ,  1-N ) :   1.1717 B(  0-C , 17-C ) :   1.5630 B(  0-C , 52-H ) :   0.9680
B(  1-N ,  8-C ) :   1.1661 B(  1-N , 10-C ) :   0.9389 B(  2-C , 12-C ) :   1.5632
B(  2-C , 16-C ) :   1.2927 B(  2-C , 53-H ) :   0.9788 B(  3-N , 14-C ) :   1.1837
B(  3-N , 16-C ) :   1.2017 B(  3-N , 61-H ) :   0.8961 B(  4-C ,  6-C ) :   1.3268
B(  4-C , 17-C ) :   1.3261 B(  4-C , 18-C ) :   1.1232 B(  5-N , 19-C ) :   1.3795
B(  5-N , 27-C ) :   1.4370 B(  6-C ,  8-C ) :   1.5620 B(  6-C , 54-H ) :   0.9709
B(  7-N , 30-C ) :   1.1883 B(  7-N , 38-C ) :   1.2108 B(  7-N , 62-H ) :   0.9005
B(  8-C , 55-H ) :   0.9685 B(  9-N , 41-C ) :   1.4285 B(  9-N , 49-C ) :   1.3978
B( 10-C , 56-H ) :   0.9764 B( 10-C , 57-H ) :   0.9810 B( 10-C , 58-H ) :   0.9824
B( 11-N , 20-C ) :   1.1078 B( 11-N , 24-C ) :   1.1330 B( 11-N , 25-C ) :   0.9601
B( 12-C , 14-C ) :   1.2925 B( 12-C , 59-H ) :   0.9773 B( 13-N , 31-C ) :   1.0933
B( 13-N , 35-C ) :   1.0851 B( 13-N , 36-C ) :   0.9758 B( 14-C , 18-C ) :   1.2385
B( 15-N , 42-C ) :   1.1243 B( 15-N , 46-C ) :   1.0983 B( 15-N , 47-C ) :   0.9645
B( 16-C , 51-C ) :   1.2277 B( 17-C , 60-H ) :   0.9714 B( 18-C , 19-C ) :   1.2824
B( 19-C , 21-C ) :   1.1776 B( 20-C , 28-C ) :   1.6254 B( 20-C , 63-H ) :   0.9706
B( 21-C , 26-C ) :   1.6695 B( 21-C , 64-H ) :   0.9721 B( 22-C , 23-C ) :   1.2659
B( 22-C , 28-C ) :   1.2795 B( 22-C , 29-C ) :   1.2488 B( 23-C , 24-C ) :   1.6278
B( 23-C , 65-H ) :   0.9718 B( 24-C , 66-H ) :   0.9690 B( 25-C , 67-H ) :   0.9763
B( 25-C , 68-H ) :   0.9832 B( 25-C , 69-H ) :   0.9819 B( 26-C , 27-C ) :   1.1842
B( 26-C , 70-H ) :   0.9749 B( 27-C , 29-C ) :   1.2382 B( 28-C , 71-H ) :   0.9710
B( 29-C , 30-C ) :   1.1835 B( 30-C , 32-C ) :   1.3421 B( 31-C , 39-C ) :   1.6686
B( 31-C , 72-H ) :   0.9706 B( 32-C , 37-C ) :   1.5166 B( 32-C , 73-H ) :   0.9772
B( 33-C , 34-C ) :   1.2446 B( 33-C , 39-C ) :   1.2379 B( 33-C , 40-C ) :   1.3250
B( 34-C , 35-C ) :   1.6668 B( 34-C , 74-H ) :   0.9709 B( 35-C , 75-H ) :   0.9706
B( 36-C , 76-H ) :   0.9757 B( 36-C , 77-H ) :   0.9825 B( 36-C , 78-H ) :   0.9836
B( 37-C , 38-C ) :   1.3392 B( 37-C , 79-H ) :   0.9788 B( 38-C , 40-C ) :   1.1849
B( 39-C , 80-H ) :   0.9720 B( 40-C , 41-C ) :   1.1848 B( 41-C , 43-C ) :   1.2408
B( 42-C , 50-C ) :   1.6379 B( 42-C , 81-H ) :   0.9696 B( 43-C , 48-C ) :   1.6105
B( 43-C , 82-H ) :   0.9751 B( 44-C , 45-C ) :   1.2793 B( 44-C , 50-C ) :   1.2558
B( 44-C , 51-C ) :   1.2478 B( 45-C , 46-C ) :   1.6312 B( 45-C , 83-H ) :   0.9705
B( 46-C , 84-H ) :   0.9706 B( 47-C , 85-H ) :   0.9760 B( 47-C , 86-H ) :   0.9826
B( 47-C , 87-H ) :   0.9828 B( 48-C , 49-C ) :   1.2364 B( 48-C , 88-H ) :   0.9730
B( 49-C , 51-C ) :   1.2037 B( 50-C , 89-H ) :   0.9719

MP2 TOTAL ENERGY:    -2130.891405621 Eh
FINAL SINGLE POINT ENERGY     -2130.891405620861

DIPOLE MOMENT
-------------
                                X             Y             Z
Electronic contribution:     -3.10917       3.33520      -0.14826
Nuclear contribution   :     -0.03932       0.16002       0.19270
                        -----------------------------------------
Total Dipole Moment    :     -3.14849       3.49522       0.04444
                        -----------------------------------------
Magnitude (a.u.)       :      4.70441
Magnitude (Debye)      :     11.95767

Rotational constants in cm-1:     0.001498     0.001473     0.000763
Rotational constants in MHz :    44.915321    44.150460    22.862032

                             ****ORCA TERMINATED NORMALLY****
TOTAL RUN TIME: 0 days 1 hours 28 minutes 8 seconds 415 msec
