                         Program Version 5.0.4 -  RELEASE  -
|  1> ! PAL2
|  2> ! mp2 cc-pvdz TightSCF  NoKeepInts
|  3>
|  4> %scf
|  5>   MaxCore 2000
|  6> end
|  7> %mp2
|  8>   MaxCore 2000
|  9> end
| 10> * xyz 0 1
| 11>    C       -4.39100         5.58900        -0.98100
| 12>    C        1.47400         4.04100         0.05700
| 13>    C       -2.80200         4.09300         0.04900
| 14>    C       -2.78700         4.95500         1.15700
| 15>    C       -3.56800         6.09300         1.16100
| 16>    C       -5.20700         7.60500         0.15300
| 17>    C        0.13200         4.30700         0.06100
| 18>    C       -0.56900         3.05600         0.04700
| 19>    C        1.64900         2.61800         0.02300
| 20>    C       -3.63100         4.43600        -1.03000
| 21>    N       -4.35200         6.39800         0.10100
| 22>    N        0.38800         2.06700         0.02500
| 23>    N       -2.01000         0.39500        -0.07500
| 24>    N       -0.38800        -2.07400        -0.02700
| 25>    N        2.01000        -0.40100         0.06500
| 26>    C       -1.96000         2.86100         0.02400
| 27>    C       -2.62300         1.61500        -0.01800
| 28>    C       -5.57300        -4.32900         1.06600
| 29>    C       -4.07300         1.47100         0.05600
| 30>    C       -4.10600        -2.75600        -0.02600
| 31>    C       -4.99500        -2.75700        -1.11100
| 32>    C       -6.13200        -3.54200        -1.07600
| 33>    C       -7.65100        -5.11300         0.04000
| 34>    C       -4.32400         0.14100         0.03700
| 35>    C       -3.02500        -0.52000        -0.04800
| 36>    C       -4.42200        -3.56600         1.07500
| 37>    N       -6.40700        -4.31300         0.00100
| 38>    C       -2.86700        -1.92200        -0.04000
| 39>    C       -1.65000        -2.62400        -0.02700
| 40>    C        3.56800        -6.14200        -1.04000
| 41>    C       -1.47600        -4.04900        -0.03400
| 42>    C        2.80300        -4.09900        -0.00800
| 43>    C        3.65700        -4.38400         1.06900
| 44>    C        4.42700        -5.53000         1.05900
| 45>    C        5.24500        -7.58800         0.01400
| 46>    C       -0.13400        -4.31500        -0.02200
| 47>    C        0.56800        -3.06400        -0.02700
| 48>    C        2.77500        -5.01200        -1.07400
| 49>    N        4.37600        -6.39100         0.01700
| 50>    C        1.95900        -2.86900        -0.00900
| 51>    C        2.62100        -1.62200         0.00900
| 52>    C        5.54300         4.33900        -1.13000
| 53>    C        4.07000        -1.47900        -0.09400
| 54>    C        4.10400         2.75100        -0.02100
| 55>    C        5.02700         2.72900         1.03600
| 56>    C        6.16600         3.50900         0.97800
| 57>    C        7.61900         5.15300        -0.11500
| 58>    C        4.32100        -0.14800        -0.09200
| 59>    C        3.02500         0.51400         0.01500
| 60>    C        4.38700         3.58200        -1.11500
| 61>    C        2.86600         1.91600         0.01300
| 62>    N        6.41300         4.29600        -0.09500
| 63>    H       -5.03500         5.89900        -1.79500
| 64>    H        2.27400         4.76600         0.08100
| 65>    H       -2.17400         4.73900         2.02400
| 66>    H       -3.59600         6.78200         1.99500
| 67>    H       -6.14900         7.35400         0.64500
| 68>    H       -4.68600         8.38100         0.71400
| 69>    H       -5.39500         7.94500        -0.86600
| 70>    H       -0.33200         5.28200         0.06900
| 71>    H       -3.67600         3.81900        -1.92000
| 72>    H        0.18200         1.07200         0.00500
| 73>    H       -0.18300        -1.08000        -0.02100
| 74>    H       -5.86400        -4.96200         1.89500
| 75>    H       -4.79400         2.27200         0.13900
| 76>    H       -4.80000        -2.16000        -1.99400
| 77>    H       -6.84100        -3.58200        -1.89300
| 78>    H       -8.42800        -4.53600         0.54600
| 79>    H       -7.95600        -5.33700        -0.98100
| 80>    H       -7.45600        -6.03700         0.58400
| 81>    H       -5.28700        -0.34400         0.10000
| 82>    H       -3.78000        -3.60100         1.94700
| 83>    H        3.58700        -6.86800        -1.84300
| 84>    H       -2.27600        -4.77400        -0.05000
| 85>    H        3.71400        -3.72400         1.92600
| 86>    H        5.09200        -5.79500         1.87100
| 87>    H        6.20500        -7.32900        -0.43900
| 88>    H        5.39300        -7.91700         1.04200
| 89>    H        4.75900        -8.37300        -0.56400
| 90>    H        0.32900        -5.29000        -0.00800
| 91>    H        2.14600        -4.84200        -1.94000
| 92>    H        5.80800         4.98600        -1.95600
| 93>    H        4.78800        -2.28100        -0.18500
| 94>    H        4.86000         2.11400         1.91200
| 95>    H        6.90100         3.53100         1.77200
| 96>    H        7.38300         6.10900         0.35600
| 97>    H        8.41400         4.65200         0.43500
| 98>    H        7.92100         5.31000        -1.15000
| 99>    H        5.28300         0.33600        -0.17900
|100>    H        3.72000         3.63200        -1.96700
|101> *
|102>
|103>                          ****END OF INPUT****

CARTESIAN COORDINATES (ANGSTROEM)
---------------------------------
  C     -4.391000    5.589000   -0.981000
  C      1.474000    4.041000    0.057000
  C     -2.802000    4.093000    0.049000
  C     -2.787000    4.955000    1.157000
  C     -3.568000    6.093000    1.161000
  C     -5.207000    7.605000    0.153000
  C      0.132000    4.307000    0.061000
  C     -0.569000    3.056000    0.047000
  C      1.649000    2.618000    0.023000
  C     -3.631000    4.436000   -1.030000
  N     -4.352000    6.398000    0.101000
  N      0.388000    2.067000    0.025000
  N     -2.010000    0.395000   -0.075000
  N     -0.388000   -2.074000   -0.027000
  N      2.010000   -0.401000    0.065000
  C     -1.960000    2.861000    0.024000
  C     -2.623000    1.615000   -0.018000
  C     -5.573000   -4.329000    1.066000
  C     -4.073000    1.471000    0.056000
  C     -4.106000   -2.756000   -0.026000
  C     -4.995000   -2.757000   -1.111000
  C     -6.132000   -3.542000   -1.076000
  C     -7.651000   -5.113000    0.040000
  C     -4.324000    0.141000    0.037000
  C     -3.025000   -0.520000   -0.048000
  C     -4.422000   -3.566000    1.075000
  N     -6.407000   -4.313000    0.001000
  C     -2.867000   -1.922000   -0.040000
  C     -1.650000   -2.624000   -0.027000
  C      3.568000   -6.142000   -1.040000
  C     -1.476000   -4.049000   -0.034000
  C      2.803000   -4.099000   -0.008000
  C      3.657000   -4.384000    1.069000
  C      4.427000   -5.530000    1.059000
  C      5.245000   -7.588000    0.014000
  C     -0.134000   -4.315000   -0.022000
  C      0.568000   -3.064000   -0.027000
  C      2.775000   -5.012000   -1.074000
  N      4.376000   -6.391000    0.017000
  C      1.959000   -2.869000   -0.009000
  C      2.621000   -1.622000    0.009000
  C      5.543000    4.339000   -1.130000
  C      4.070000   -1.479000   -0.094000
  C      4.104000    2.751000   -0.021000
  C      5.027000    2.729000    1.036000
  C      6.166000    3.509000    0.978000
  C      7.619000    5.153000   -0.115000
  C      4.321000   -0.148000   -0.092000
  C      3.025000    0.514000    0.015000
  C      4.387000    3.582000   -1.115000
  C      2.866000    1.916000    0.013000
  N      6.413000    4.296000   -0.095000
  H     -5.035000    5.899000   -1.795000
  H      2.274000    4.766000    0.081000
  H     -2.174000    4.739000    2.024000
  H     -3.596000    6.782000    1.995000
  H     -6.149000    7.354000    0.645000
  H     -4.686000    8.381000    0.714000
  H     -5.395000    7.945000   -0.866000
  H     -0.332000    5.282000    0.069000
  H     -3.676000    3.819000   -1.920000
  H      0.182000    1.072000    0.005000
  H     -0.183000   -1.080000   -0.021000
  H     -5.864000   -4.962000    1.895000
  H     -4.794000    2.272000    0.139000
  H     -4.800000   -2.160000   -1.994000
  H     -6.841000   -3.582000   -1.893000
  H     -8.428000   -4.536000    0.546000
  H     -7.956000   -5.337000   -0.981000
  H     -7.456000   -6.037000    0.584000
  H     -5.287000   -0.344000    0.100000
  H     -3.780000   -3.601000    1.947000
  H      3.587000   -6.868000   -1.843000
  H     -2.276000   -4.774000   -0.050000
  H      3.714000   -3.724000    1.926000
  H      5.092000   -5.795000    1.871000
  H      6.205000   -7.329000   -0.439000
  H      5.393000   -7.917000    1.042000
  H      4.759000   -8.373000   -0.564000
  H      0.329000   -5.290000   -0.008000
  H      2.146000   -4.842000   -1.940000
  H      5.808000    4.986000   -1.956000
  H      4.788000   -2.281000   -0.185000
  H      4.860000    2.114000    1.912000
  H      6.901000    3.531000    1.772000
  H      7.383000    6.109000    0.356000
  H      8.414000    4.652000    0.435000
  H      7.921000    5.310000   -1.150000
  H      5.283000    0.336000   -0.179000
  H      3.720000    3.632000   -1.967000

 Total Charge           Charge          ....    0
 Multiplicity           Mult            ....    1
 Number of Electrons    NEL             ....  358
 Basis Dimension        Dim             ....  918

ORBITAL ENERGIES
----------------

  NO   OCC          E(Eh)            E(eV)
   0   2.0000     -15.640022      -425.5866
   1   2.0000     -15.639549      -425.5738
   2   2.0000     -15.627627      -425.2494
   3   2.0000     -15.626845      -425.2281
   4   2.0000     -15.516209      -422.2175
   5   2.0000     -15.515828      -422.2071
   6   2.0000     -15.445149      -420.2839
   7   2.0000     -15.440458      -420.1562
   8   2.0000     -11.303003      -307.5703
   9   2.0000     -11.302998      -307.5702
  10   2.0000     -11.295534      -307.3671
  11   2.0000     -11.295223      -307.3586
  12   2.0000     -11.295212      -307.3584
  13   2.0000     -11.294970      -307.3518
  14   2.0000     -11.294374      -307.3355
  15   2.0000     -11.294140      -307.3292
  16   2.0000     -11.285646      -307.0980
  17   2.0000     -11.285221      -307.0865
  18   2.0000     -11.283832      -307.0487
  19   2.0000     -11.282661      -307.0168
  20   2.0000     -11.243300      -305.9457
  21   2.0000     -11.243205      -305.9432
  22   2.0000     -11.234847      -305.7157
  23   2.0000     -11.234308      -305.7010
  24   2.0000     -11.234147      -305.6967
  25   2.0000     -11.233831      -305.6881
  26   2.0000     -11.231855      -305.6343
  27   2.0000     -11.231777      -305.6322
  28   2.0000     -11.225525      -305.4621
  29   2.0000     -11.225426      -305.4594
  30   2.0000     -11.225366      -305.4577
  31   2.0000     -11.224517      -305.4346
  32   2.0000     -11.196767      -304.6795
  33   2.0000     -11.196483      -304.6718
  34   2.0000     -11.196363      -304.6685
  35   2.0000     -11.196094      -304.6612
  36   2.0000     -11.174449      -304.0722
  37   2.0000     -11.174397      -304.0708
  38   2.0000     -11.171244      -303.9850
  39   2.0000     -11.170601      -303.9675
  40   2.0000     -11.166120      -303.8456
  41   2.0000     -11.165968      -303.8414
  42   2.0000     -11.164873      -303.8116
  43   2.0000     -11.164853      -303.8111
  44   2.0000     -11.156652      -303.5879
  45   2.0000     -11.156017      -303.5707
  46   2.0000     -11.153924      -303.5137
  47   2.0000     -11.153827      -303.5111
  48   2.0000     -11.146049      -303.2994
  49   2.0000     -11.144584      -303.2595
  50   2.0000     -11.137053      -303.0546
  51   2.0000     -11.135597      -303.0150
  52   2.0000      -1.326338       -36.0915
  53   2.0000      -1.326128       -36.0858
  54   2.0000      -1.315522       -35.7972
  55   2.0000      -1.315113       -35.7860
  56   2.0000      -1.215233       -33.0682
  57   2.0000      -1.213214       -33.0132
  58   2.0000      -1.162434       -31.6314
  59   2.0000      -1.154092       -31.4045
  60   2.0000      -1.115969       -30.3671
  61   2.0000      -1.111728       -30.2517
  62   2.0000      -1.106233       -30.1021
  63   2.0000      -1.102357       -29.9966
  64   2.0000      -1.050067       -28.5738
  65   2.0000      -1.049951       -28.5706
  66   2.0000      -1.040057       -28.3014
  67   2.0000      -1.039813       -28.2947
  68   2.0000      -1.026023       -27.9195
  69   2.0000      -1.010732       -27.5034
  70   2.0000      -1.007291       -27.4098
  71   2.0000      -0.998444       -27.1690
  72   2.0000      -0.979007       -26.6401
  73   2.0000      -0.977347       -26.5950
  74   2.0000      -0.967348       -26.3229
  75   2.0000      -0.962118       -26.1806
  76   2.0000      -0.951321       -25.8868
  77   2.0000      -0.944541       -25.7023
  78   2.0000      -0.936862       -25.4933
  79   2.0000      -0.923118       -25.1193
  80   2.0000      -0.891653       -24.2631
  81   2.0000      -0.877732       -23.8843
  82   2.0000      -0.875690       -23.8287
  83   2.0000      -0.868208       -23.6251
  84   2.0000      -0.865720       -23.5574
  85   2.0000      -0.856419       -23.3044
  86   2.0000      -0.850484       -23.1428
  87   2.0000      -0.842008       -22.9122
  88   2.0000      -0.821961       -22.3667
  89   2.0000      -0.797773       -21.7085
  90   2.0000      -0.797588       -21.7035
  91   2.0000      -0.738887       -20.1061
  92   2.0000      -0.727732       -19.8026
  93   2.0000      -0.727340       -19.7919
  94   2.0000      -0.722959       -19.6727
  95   2.0000      -0.717552       -19.5256
  96   2.0000      -0.711262       -19.3544
  97   2.0000      -0.710645       -19.3376
  98   2.0000      -0.697592       -18.9824
  99   2.0000      -0.690645       -18.7934
 100   2.0000      -0.683433       -18.5972
 101   2.0000      -0.681174       -18.5357
 102   2.0000      -0.679777       -18.4977
 103   2.0000      -0.672724       -18.3057
 104   2.0000      -0.668890       -18.2014
 105   2.0000      -0.668047       -18.1785
 106   2.0000      -0.661220       -17.9927
 107   2.0000      -0.659705       -17.9515
 108   2.0000      -0.657281       -17.8855
 109   2.0000      -0.654681       -17.8148
 110   2.0000      -0.651335       -17.7237
 111   2.0000      -0.650701       -17.7065
 112   2.0000      -0.648074       -17.6350
 113   2.0000      -0.646483       -17.5917
 114   2.0000      -0.633791       -17.2463
 115   2.0000      -0.623214       -16.9585
 116   2.0000      -0.616948       -16.7880
 117   2.0000      -0.616590       -16.7783
 118   2.0000      -0.610362       -16.6088
 119   2.0000      -0.607955       -16.5433
 120   2.0000      -0.607467       -16.5300
 121   2.0000      -0.606734       -16.5101
 122   2.0000      -0.602057       -16.3828
 123   2.0000      -0.594647       -16.1812
 124   2.0000      -0.585523       -15.9329
 125   2.0000      -0.584797       -15.9131
 126   2.0000      -0.577462       -15.7135
 127   2.0000      -0.577064       -15.7027
 128   2.0000      -0.568048       -15.4574
 129   2.0000      -0.564720       -15.3668
 130   2.0000      -0.553221       -15.0539
 131   2.0000      -0.541568       -14.7368
 132   2.0000      -0.541187       -14.7264
 133   2.0000      -0.534639       -14.5483
 134   2.0000      -0.533858       -14.5270
 135   2.0000      -0.529926       -14.4200
 136   2.0000      -0.524467       -14.2715
 137   2.0000      -0.522602       -14.2207
 138   2.0000      -0.517957       -14.0943
 139   2.0000      -0.514501       -14.0003
 140   2.0000      -0.509776       -13.8717
 141   2.0000      -0.507346       -13.8056
 142   2.0000      -0.503196       -13.6927
 143   2.0000      -0.501813       -13.6550
 144   2.0000      -0.497638       -13.5414
 145   2.0000      -0.497194       -13.5293
 146   2.0000      -0.496029       -13.4976
 147   2.0000      -0.494512       -13.4564
 148   2.0000      -0.490494       -13.3470
 149   2.0000      -0.467756       -12.7283
 150   2.0000      -0.459723       -12.5097
 151   2.0000      -0.451102       -12.2751
 152   2.0000      -0.445937       -12.1346
 153   2.0000      -0.445861       -12.1325
 154   2.0000      -0.444313       -12.0904
 155   2.0000      -0.439501       -11.9594
 156   2.0000      -0.434938       -11.8353
 157   2.0000      -0.429645       -11.6912
 158   2.0000      -0.388915       -10.5829
 159   2.0000      -0.383294       -10.4300
 160   2.0000      -0.375269       -10.2116
 161   2.0000      -0.373780       -10.1711
 162   2.0000      -0.360329        -9.8050
 163   2.0000      -0.360162        -9.8005
 164   2.0000      -0.351859        -9.5746
 165   2.0000      -0.351647        -9.5688
 166   2.0000      -0.337588        -9.1862
 167   2.0000      -0.332732        -9.0541
 168   2.0000      -0.326583        -8.8868
 169   2.0000      -0.300176        -8.1682
 170   2.0000      -0.291791        -7.9400
 171   2.0000      -0.291079        -7.9207
 172   2.0000      -0.287013        -7.8100
 173   2.0000      -0.255439        -6.9508
 174   2.0000      -0.245798        -6.6885
 175   2.0000      -0.187150        -5.0926
 176   2.0000      -0.176842        -4.8121
 177   2.0000      -0.064358        -1.7513
 178   2.0000      -0.053571        -1.4578
 179   0.0000       0.031992         0.8706
 180   0.0000       0.070134         1.9084
 181   0.0000       0.092748         2.5238
 182   0.0000       0.095573         2.6007
 183   0.0000       0.133571         3.6347

MULLIKEN ATOMIC CHARGES
-----------------------
   0 C :    0.209488
   1 N :   -0.437513
   2 C :   -0.066047
   3 N :   -0.339123
   4 C :   -0.081660
   5 N :   -0.562922
   6 C :   -0.052483
   7 N :   -0.337944
   8 C :    0.207621
   9 N :   -0.563465
  10 C :    0.112673
  11 N :   -0.437206
  12 C :   -0.065819
  13 N :   -0.441499
  14 C :    0.232237
  15 N :   -0.440707
  16 C :    0.238989
  17 C :   -0.054155
  18 C :   -0.190965
  19 C :    0.225981
  20 C :    0.206088
  21 C :   -0.072115
  22 C :   -0.085288
  23 C :   -0.051787
  24 C :    0.209239
  25 C :    0.113632
  26 C :   -0.072903
  27 C :    0.226952
  28 C :   -0.049840
  29 C :   -0.187006
  30 C :    0.233086
  31 C :    0.207578
  32 C :   -0.065026
  33 C :   -0.084709
  34 C :   -0.049741
  35 C :    0.199841
  36 C :    0.115194
  37 C :   -0.067108
  38 C :    0.238618
  39 C :   -0.062380
  40 C :   -0.191342
  41 C :    0.219333
  42 C :    0.204846
  43 C :   -0.074384
  44 C :   -0.088821
  45 C :   -0.050484
  46 C :    0.200703
  47 C :    0.115715
  48 C :   -0.076460
  49 C :    0.222891
  50 C :   -0.054846
  51 C :   -0.190324
  52 H :    0.058060
  53 H :   -0.013385
  54 H :    0.048721
  55 H :    0.056846
  56 H :    0.063093
  57 H :    0.059432
  58 H :    0.058576
  59 H :   -0.015913
  60 H :    0.046398
  61 H :    0.173318
  62 H :    0.172227
  63 H :    0.057058
  64 H :   -0.023092
  65 H :    0.046213
  66 H :    0.058018
  67 H :    0.063021
  68 H :    0.058312
  69 H :    0.059503
  70 H :   -0.023312
  71 H :    0.048764
  72 H :    0.053386
  73 H :   -0.015223
  74 H :    0.043973
  75 H :    0.052333
  76 H :    0.059475
  77 H :    0.056199
  78 H :    0.055367
  79 H :   -0.013285
  80 H :    0.044114
  81 H :    0.053290
  82 H :   -0.023819
  83 H :    0.043067
  84 H :    0.052644
  85 H :    0.058368
  86 H :    0.056380
  87 H :    0.056471
  88 H :   -0.023684
  89 H :    0.044453
Sum of atomic charges:    0.0000000

LOEWDIN ATOMIC CHARGES
----------------------
   0 C :    0.001454
   1 N :    0.144845
   2 C :   -0.100824
   3 N :    0.176711
   4 C :    0.044375
   5 N :   -0.139424
   6 C :   -0.020366
   7 N :    0.177371
   8 C :   -0.000514
   9 N :   -0.138710
  10 C :    0.030333
  11 N :    0.145382
  12 C :   -0.100883
  13 N :    0.137385
  14 C :   -0.047662
  15 N :    0.138261
  16 C :   -0.041681
  17 C :   -0.022703
  18 C :   -0.110266
  19 C :   -0.087749
  20 C :   -0.000901
  21 C :   -0.103525
  22 C :    0.044674
  23 C :   -0.022209
  24 C :    0.002016
  25 C :    0.030593
  26 C :   -0.102852
  27 C :   -0.088740
  28 C :   -0.019403
  29 C :   -0.108588
  30 C :   -0.049276
  31 C :   -0.002742
  32 C :   -0.099081
  33 C :    0.033262
  34 C :   -0.020605
  35 C :   -0.009443
  36 C :    0.028658
  37 C :   -0.102078
  38 C :   -0.038988
  39 C :   -0.026884
  40 C :   -0.109466
  41 C :   -0.094731
  42 C :   -0.004212
  43 C :   -0.106549
  44 C :    0.033984
  45 C :   -0.021162
  46 C :   -0.007804
  47 C :    0.029156
  48 C :   -0.107188
  49 C :   -0.094008
  50 C :   -0.024382
  51 C :   -0.109105
  52 H :    0.031076
  53 H :    0.004641
  54 H :    0.045632
  55 H :    0.031049
  56 H :    0.028490
  57 H :    0.031709
  58 H :    0.032349
  59 H :    0.003578
  60 H :    0.044897
  61 H :    0.060792
  62 H :    0.060141
  63 H :    0.031184
  64 H :   -0.001371
  65 H :    0.044918
  66 H :    0.030855
  67 H :    0.028651
  68 H :    0.032114
  69 H :    0.031658
  70 H :   -0.001617
  71 H :    0.045828
  72 H :    0.029349
  73 H :    0.003659
  74 H :    0.043821
  75 H :    0.028549
  76 H :    0.026809
  77 H :    0.030641
  78 H :    0.030289
  79 H :    0.004669
  80 H :    0.043208
  81 H :    0.028909
  82 H :   -0.001972
  83 H :    0.043626
  84 H :    0.028806
  85 H :    0.026239
  86 H :    0.030469
  87 H :    0.031043
  88 H :   -0.001995
  89 H :    0.043549

  Mayer bond orders larger than 0.100000
B(  0-C ,  1-N ) :   1.1278 B(  0-C , 17-C ) :   1.6205 B(  0-C , 52-H ) :   0.9690
B(  1-N ,  8-C ) :   1.1219 B(  1-N , 10-C ) :   0.9579 B(  2-C , 12-C ) :   1.5413
B(  2-C , 16-C ) :   1.3163 B(  2-C , 53-H ) :   0.9781 B(  3-N , 14-C ) :   1.1982
B(  3-N , 16-C ) :   1.1965 B(  3-N , 61-H ) :   0.8981 B(  4-C ,  6-C ) :   1.2748
B(  4-C , 17-C ) :   1.2788 B(  4-C , 18-C ) :   1.2385 B(  5-N , 19-C ) :   1.4113
B(  5-N , 27-C ) :   1.4117 B(  6-C ,  8-C ) :   1.6248 B(  6-C , 54-H ) :   0.9712
B(  7-N , 30-C ) :   1.1908 B(  7-N , 38-C ) :   1.2042 B(  7-N , 62-H ) :   0.8987
B(  8-C , 55-H ) :   0.9701 B(  9-N , 41-C ) :   1.4112 B(  9-N , 49-C ) :   1.4139
B( 10-C , 56-H ) :   0.9763 B( 10-C , 57-H ) :   0.9822 B( 10-C , 58-H ) :   0.9829
B( 11-N , 20-C ) :   1.1228 B( 11-N , 24-C ) :   1.1276 B( 11-N , 25-C ) :   0.9576
B( 12-C , 14-C ) :   1.3175 B( 12-C , 59-H ) :   0.9777 B( 13-N , 31-C ) :   1.1180
B( 13-N , 35-C ) :   1.1095 B( 13-N , 36-C ) :   0.9631 B( 14-C , 18-C ) :   1.2066
B( 15-N , 42-C ) :   1.1177 B( 15-N , 46-C ) :   1.1114 B( 15-N , 47-C ) :   0.9627
B( 16-C , 51-C ) :   1.2073 B( 17-C , 60-H ) :   0.9711 B( 18-C , 19-C ) :   1.2264
B( 19-C , 21-C ) :   1.2070 B( 20-C , 28-C ) :   1.6213 B( 20-C , 63-H ) :   0.9703
B( 21-C , 26-C ) :   1.6455 B( 21-C , 64-H ) :   0.9737 B( 22-C , 23-C ) :   1.2811
B( 22-C , 28-C ) :   1.2779 B( 22-C , 29-C ) :   1.2303 B( 23-C , 24-C ) :   1.6182
B( 23-C , 65-H ) :   0.9711 B( 24-C , 66-H ) :   0.9690 B( 25-C , 67-H ) :   0.9762
B( 25-C , 68-H ) :   0.9830 B( 25-C , 69-H ) :   0.9820 B( 26-C , 27-C ) :   1.2054
B( 26-C , 70-H ) :   0.9735 B( 27-C , 29-C ) :   1.2297 B( 28-C , 71-H ) :   0.9713
B( 29-C , 30-C ) :   1.2090 B( 30-C , 32-C ) :   1.3158 B( 31-C , 39-C ) :   1.6384
B( 31-C , 72-H ) :   0.9698 B( 32-C , 37-C ) :   1.5426 B( 32-C , 73-H ) :   0.9776
B( 33-C , 34-C ) :   1.2692 B( 33-C , 39-C ) :   1.2614 B( 33-C , 40-C ) :   1.2640
B( 34-C , 35-C ) :   1.6355 B( 34-C , 74-H ) :   0.9705 B( 35-C , 75-H ) :   0.9699
B( 36-C , 76-H ) :   0.9762 B( 36-C , 77-H ) :   0.9822 B( 36-C , 78-H ) :   0.9832
B( 37-C , 38-C ) :   1.3163 B( 37-C , 79-H ) :   0.9780 B( 38-C , 40-C ) :   1.2054
B( 39-C , 80-H ) :   0.9716 B( 40-C , 41-C ) :   1.2099 B( 41-C , 43-C ) :   1.2222
B( 42-C , 50-C ) :   1.6344 B( 42-C , 81-H ) :   0.9696 B( 43-C , 48-C ) :   1.6291
B( 43-C , 82-H ) :   0.9739 B( 44-C , 45-C ) :   1.2723 B( 44-C , 50-C ) :   1.2648
B( 44-C , 51-C ) :   1.2553 B( 45-C , 46-C ) :   1.6322 B( 45-C , 83-H ) :   0.9710
B( 46-C , 84-H ) :   0.9703 B( 47-C , 85-H ) :   0.9761 B( 47-C , 86-H ) :   0.9828
B( 47-C , 87-H ) :   0.9826 B( 48-C , 49-C ) :   1.2210 B( 48-C , 88-H ) :   0.9736
B( 49-C , 51-C ) :   1.2123 B( 50-C , 89-H ) :   0.9714

MP2 TOTAL ENERGY:    -2130.911901102 Eh
FINAL SINGLE POINT ENERGY     -2130.911901102355

DIPOLE MOMENT
-------------
                                X             Y             Z
Electronic contribution:     -0.92808       0.00870      -0.19694
Nuclear contribution   :     -0.00205       0.18407       0.22445
                        -----------------------------------------
Total Dipole Moment    :     -0.93013       0.19277       0.02752
                        -----------------------------------------
Magnitude (a.u.)       :      0.95029
Magnitude (Debye)      :      2.41545

Rotational constants in cm-1:     0.001498     0.001474     0.000762
Rotational constants in MHz :    44.909423    44.185413    22.853964

                             ****ORCA TERMINATED NORMALLY****
TOTAL RUN TIME: 0 days 1 hours 35 minutes 9 seconds 266 msec
