                         Program Version 5.0.4 -  RELEASE  -
|  1> ! PAL2
|  2> ! mp2 cc-pvdz TightSCF  NoKeepInts
|  3>
|  4> %scf
|  5>   MaxCore 2000
|  6> end
|  7> %mp2
|  8>   MaxCore 2000
|  9> end
| 10> * xyz 0 1
| 11>    C       -3.28000         6.34200        -0.68400
| 12>    C        1.47400         4.04100         0.05700
| 13>    C       -2.80200         4.09300         0.04900
| 14>    C       -3.93900         4.17300         0.86800
| 15>    C       -4.70300         5.32200         0.88300
| 16>    C       -5.23000         7.59000         0.12700
| 17>    C        0.13200         4.30700         0.06100
| 18>    C       -0.56900         3.05600         0.04700
| 19>    C        1.64900         2.61800         0.02300
| 20>    C       -2.48700         5.21200        -0.73700
| 21>    N       -4.36900         6.38700         0.11700
| 22>    N        0.38800         2.06700         0.02500
| 23>    N       -2.01000         0.39500        -0.07500
| 24>    N       -0.38800        -2.07400        -0.02700
| 25>    N        2.01000        -0.40100         0.06500
| 26>    C       -1.96000         2.86100         0.02400
| 27>    C       -2.62300         1.61500        -0.01800
| 28>    C       -5.57300        -4.32900         1.06600
| 29>    C       -4.07300         1.47100         0.05600
| 30>    C       -4.10600        -2.75600        -0.02600
| 31>    C       -4.99500        -2.75700        -1.11100
| 32>    C       -6.13200        -3.54200        -1.07600
| 33>    C       -7.65100        -5.11300         0.04000
| 34>    C       -4.32400         0.14100         0.03700
| 35>    C       -3.02500        -0.52000        -0.04800
| 36>    C       -4.42200        -3.56600         1.07500
| 37>    N       -6.40700        -4.31300         0.00100
| 38>    C       -2.86700        -1.92200        -0.04000
| 39>    C       -1.65000        -2.62400        -0.02700
| 40>    C        3.56800        -6.14200        -1.04000
| 41>    C       -1.47600        -4.04900        -0.03400
| 42>    C        2.80300        -4.09900        -0.00800
| 43>    C        3.65700        -4.38400         1.06900
| 44>    C        4.42700        -5.53000         1.05900
| 45>    C        5.24500        -7.58800         0.01400
| 46>    C       -0.13400        -4.31500        -0.02200
| 47>    C        0.56800        -3.06400        -0.02700
| 48>    C        2.77500        -5.01200        -1.07400
| 49>    N        4.37600        -6.39100         0.01700
| 50>    C        1.95900        -2.86900        -0.00900
| 51>    C        2.62100        -1.62200         0.00900
| 52>    C        5.54300         4.33900        -1.13000
| 53>    C        4.07000        -1.47900        -0.09400
| 54>    C        4.10400         2.75100        -0.02100
| 55>    C        5.02700         2.72900         1.03600
| 56>    C        6.16600         3.50900         0.97800
| 57>    C        7.61900         5.15300        -0.11500
| 58>    C        4.32100        -0.14800        -0.09200
| 59>    C        3.02500         0.51400         0.01500
| 60>    C        4.38700         3.58200        -1.11500
| 61>    C        2.86600         1.91600         0.01300
| 62>    N        6.41300         4.29600        -0.09500
| 63>    H       -3.06800         7.23300        -1.26300
| 64>    H        2.27400         4.76600         0.08100
| 65>    H       -4.23900         3.33900         1.49000
| 66>    H       -5.59300         5.42700         1.49100
| 67>    H       -6.03700         7.45500        -0.59700
| 68>    H       -5.64200         7.71900         1.12800
| 69>    H       -4.62600         8.45600        -0.14300
| 70>    H       -0.33200         5.28200         0.06900
| 71>    H       -1.61400         5.21800        -1.37900
| 72>    H        0.18200         1.07200         0.00500
| 73>    H       -0.18300        -1.08000        -0.02100
| 74>    H       -5.86400        -4.96200         1.89500
| 75>    H       -4.79400         2.27200         0.13900
| 76>    H       -4.80000        -2.16000        -1.99400
| 77>    H       -6.84100        -3.58200        -1.89300
| 78>    H       -8.42800        -4.53600         0.54600
| 79>    H       -7.95600        -5.33700        -0.98100
| 80>    H       -7.45600        -6.03700         0.58400
| 81>    H       -5.28700        -0.34400         0.10000
| 82>    H       -3.78000        -3.60100         1.94700
| 83>    H        3.58700        -6.86800        -1.84300
| 84>    H       -2.27600        -4.77400        -0.05000
| 85>    H        3.71400        -3.72400         1.92600
| 86>    H        5.09200        -5.79500         1.87100
| 87>    H        6.20500        -7.32900        -0.43900
| 88>    H        5.39300        -7.91700         1.04200
| 89>    H        4.75900        -8.37300        -0.56400
| 90>    H        0.32900        -5.29000        -0.00800
| 91>    H        2.14600        -4.84200        -1.94000
| 92>    H        5.80800         4.98600        -1.95600
| 93>    H        4.78800        -2.28100        -0.18500
| 94>    H        4.86000         2.11400         1.91200
| 95>    H        6.90100         3.53100         1.77200
| 96>    H        7.38300         6.10900         0.35600
| 97>    H        8.41400         4.65200         0.43500
| 98>    H        7.92100         5.31000        -1.15000
| 99>    H        5.28300         0.33600        -0.17900
|100>    H        3.72000         3.63200        -1.96700
|101> *
|102>
|103>                          ****END OF INPUT****

CARTESIAN COORDINATES (ANGSTROEM)
---------------------------------
  C     -3.280000    6.342000   -0.684000
  C      1.474000    4.041000    0.057000
  C     -2.802000    4.093000    0.049000
  C     -3.939000    4.173000    0.868000
  C     -4.703000    5.322000    0.883000
  C     -5.230000    7.590000    0.127000
  C      0.132000    4.307000    0.061000
  C     -0.569000    3.056000    0.047000
  C      1.649000    2.618000    0.023000
  C     -2.487000    5.212000   -0.737000
  N     -4.369000    6.387000    0.117000
  N      0.388000    2.067000    0.025000
  N     -2.010000    0.395000   -0.075000
  N     -0.388000   -2.074000   -0.027000
  N      2.010000   -0.401000    0.065000
  C     -1.960000    2.861000    0.024000
  C     -2.623000    1.615000   -0.018000
  C     -5.573000   -4.329000    1.066000
  C     -4.073000    1.471000    0.056000
  C     -4.106000   -2.756000   -0.026000
  C     -4.995000   -2.757000   -1.111000
  C     -6.132000   -3.542000   -1.076000
  C     -7.651000   -5.113000    0.040000
  C     -4.324000    0.141000    0.037000
  C     -3.025000   -0.520000   -0.048000
  C     -4.422000   -3.566000    1.075000
  N     -6.407000   -4.313000    0.001000
  C     -2.867000   -1.922000   -0.040000
  C     -1.650000   -2.624000   -0.027000
  C      3.568000   -6.142000   -1.040000
  C     -1.476000   -4.049000   -0.034000
  C      2.803000   -4.099000   -0.008000
  C      3.657000   -4.384000    1.069000
  C      4.427000   -5.530000    1.059000
  C      5.245000   -7.588000    0.014000
  C     -0.134000   -4.315000   -0.022000
  C      0.568000   -3.064000   -0.027000
  C      2.775000   -5.012000   -1.074000
  N      4.376000   -6.391000    0.017000
  C      1.959000   -2.869000   -0.009000
  C      2.621000   -1.622000    0.009000
  C      5.543000    4.339000   -1.130000
  C      4.070000   -1.479000   -0.094000
  C      4.104000    2.751000   -0.021000
  C      5.027000    2.729000    1.036000
  C      6.166000    3.509000    0.978000
  C      7.619000    5.153000   -0.115000
  C      4.321000   -0.148000   -0.092000
  C      3.025000    0.514000    0.015000
  C      4.387000    3.582000   -1.115000
  C      2.866000    1.916000    0.013000
  N      6.413000    4.296000   -0.095000
  H     -3.068000    7.233000   -1.263000
  H      2.274000    4.766000    0.081000
  H     -4.239000    3.339000    1.490000
  H     -5.593000    5.427000    1.491000
  H     -6.037000    7.455000   -0.597000
  H     -5.642000    7.719000    1.128000
  H     -4.626000    8.456000   -0.143000
  H     -0.332000    5.282000    0.069000
  H     -1.614000    5.218000   -1.379000
  H      0.182000    1.072000    0.005000
  H     -0.183000   -1.080000   -0.021000
  H     -5.864000   -4.962000    1.895000
  H     -4.794000    2.272000    0.139000
  H     -4.800000   -2.160000   -1.994000
  H     -6.841000   -3.582000   -1.893000
  H     -8.428000   -4.536000    0.546000
  H     -7.956000   -5.337000   -0.981000
  H     -7.456000   -6.037000    0.584000
  H     -5.287000   -0.344000    0.100000
  H     -3.780000   -3.601000    1.947000
  H      3.587000   -6.868000   -1.843000
  H     -2.276000   -4.774000   -0.050000
  H      3.714000   -3.724000    1.926000
  H      5.092000   -5.795000    1.871000
  H      6.205000   -7.329000   -0.439000
  H      5.393000   -7.917000    1.042000
  H      4.759000   -8.373000   -0.564000
  H      0.329000   -5.290000   -0.008000
  H      2.146000   -4.842000   -1.940000
  H      5.808000    4.986000   -1.956000
  H      4.788000   -2.281000   -0.185000
  H      4.860000    2.114000    1.912000
  H      6.901000    3.531000    1.772000
  H      7.383000    6.109000    0.356000
  H      8.414000    4.652000    0.435000
  H      7.921000    5.310000   -1.150000
  H      5.283000    0.336000   -0.179000
  H      3.720000    3.632000   -1.967000

 Total Charge           Charge          ....    0
 Multiplicity           Mult            ....    1
 Number of Electrons    NEL             ....  358
 Basis Dimension        Dim             ....  918

ORBITAL ENERGIES
----------------

  NO   OCC          E(Eh)            E(eV)
   0   2.0000     -15.661758      -426.1781
   1   2.0000     -15.636120      -425.4805
   2   2.0000     -15.630375      -425.3241
   3   2.0000     -15.600988      -424.5245
   4   2.0000     -15.522899      -422.3995
   5   2.0000     -15.516417      -422.2232
   6   2.0000     -15.449832      -420.4113
   7   2.0000     -15.442605      -420.2146
   8   2.0000     -11.316782      -307.9453
   9   2.0000     -11.314668      -307.8878
  10   2.0000     -11.312871      -307.8389
  11   2.0000     -11.300639      -307.5060
  12   2.0000     -11.297302      -307.4152
  13   2.0000     -11.293790      -307.3196
  14   2.0000     -11.289433      -307.2011
  15   2.0000     -11.288822      -307.1845
  16   2.0000     -11.286099      -307.1104
  17   2.0000     -11.279710      -306.9365
  18   2.0000     -11.265222      -306.5423
  19   2.0000     -11.265078      -306.5384
  20   2.0000     -11.263473      -306.4947
  21   2.0000     -11.250650      -306.1457
  22   2.0000     -11.249727      -306.1206
  23   2.0000     -11.239637      -305.8461
  24   2.0000     -11.235036      -305.7209
  25   2.0000     -11.232647      -305.6559
  26   2.0000     -11.231850      -305.6342
  27   2.0000     -11.228491      -305.5428
  28   2.0000     -11.228379      -305.5397
  29   2.0000     -11.210310      -305.0480
  30   2.0000     -11.206549      -304.9457
  31   2.0000     -11.205656      -304.9214
  32   2.0000     -11.205268      -304.9109
  33   2.0000     -11.203970      -304.8755
  34   2.0000     -11.191546      -304.5375
  35   2.0000     -11.190902      -304.5199
  36   2.0000     -11.183250      -304.3117
  37   2.0000     -11.181215      -304.2563
  38   2.0000     -11.180489      -304.2366
  39   2.0000     -11.172474      -304.0185
  40   2.0000     -11.169337      -303.9331
  41   2.0000     -11.167961      -303.8957
  42   2.0000     -11.164499      -303.8015
  43   2.0000     -11.164437      -303.7998
  44   2.0000     -11.162874      -303.7572
  45   2.0000     -11.161311      -303.7147
  46   2.0000     -11.153938      -303.5141
  47   2.0000     -11.150312      -303.4154
  48   2.0000     -11.150137      -303.4106
  49   2.0000     -11.145051      -303.2723
  50   2.0000     -11.136387      -303.0365
  51   2.0000     -11.130127      -302.8662
  52   2.0000      -1.345031       -36.6001
  53   2.0000      -1.323052       -36.0021
  54   2.0000      -1.318250       -35.8714
  55   2.0000      -1.293799       -35.2061
  56   2.0000      -1.222680       -33.2708
  57   2.0000      -1.211502       -32.9667
  58   2.0000      -1.167831       -31.7783
  59   2.0000      -1.154457       -31.4144
  60   2.0000      -1.130680       -30.7674
  61   2.0000      -1.111604       -30.2483
  62   2.0000      -1.107688       -30.1417
  63   2.0000      -1.088146       -29.6100
  64   2.0000      -1.067808       -29.0565
  65   2.0000      -1.047105       -28.4932
  66   2.0000      -1.042939       -28.3798
  67   2.0000      -1.032928       -28.1074
  68   2.0000      -1.021267       -27.7901
  69   2.0000      -1.013128       -27.5686
  70   2.0000      -1.009841       -27.4792
  71   2.0000      -0.993103       -27.0237
  72   2.0000      -0.986821       -26.8528
  73   2.0000      -0.976006       -26.5585
  74   2.0000      -0.973238       -26.4832
  75   2.0000      -0.959671       -26.1140
  76   2.0000      -0.950846       -25.8738
  77   2.0000      -0.948202       -25.8019
  78   2.0000      -0.936673       -25.4882
  79   2.0000      -0.921757       -25.0823
  80   2.0000      -0.899066       -24.4648
  81   2.0000      -0.889947       -24.2167
  82   2.0000      -0.874572       -23.7983
  83   2.0000      -0.870568       -23.6894
  84   2.0000      -0.864934       -23.5360
  85   2.0000      -0.855640       -23.2831
  86   2.0000      -0.845723       -23.0133
  87   2.0000      -0.838527       -22.8175
  88   2.0000      -0.822622       -22.3847
  89   2.0000      -0.798675       -21.7330
  90   2.0000      -0.795142       -21.6369
  91   2.0000      -0.744092       -20.2478
  92   2.0000      -0.737206       -20.0604
  93   2.0000      -0.731213       -19.8973
  94   2.0000      -0.722354       -19.6562
  95   2.0000      -0.720829       -19.6148
  96   2.0000      -0.713699       -19.4207
  97   2.0000      -0.706520       -19.2254
  98   2.0000      -0.702424       -19.1139
  99   2.0000      -0.695563       -18.9272
 100   2.0000      -0.693291       -18.8654
 101   2.0000      -0.681801       -18.5528
 102   2.0000      -0.678609       -18.4659
 103   2.0000      -0.675689       -18.3864
 104   2.0000      -0.672611       -18.3027
 105   2.0000      -0.671634       -18.2761
 106   2.0000      -0.664225       -18.0745
 107   2.0000      -0.662710       -18.0332
 108   2.0000      -0.655319       -17.8321
 109   2.0000      -0.654240       -17.8028
 110   2.0000      -0.650626       -17.7044
 111   2.0000      -0.647649       -17.6234
 112   2.0000      -0.643115       -17.5001
 113   2.0000      -0.637677       -17.3521
 114   2.0000      -0.632998       -17.2248
 115   2.0000      -0.631198       -17.1758
 116   2.0000      -0.625304       -17.0154
 117   2.0000      -0.615382       -16.7454
 118   2.0000      -0.613937       -16.7061
 119   2.0000      -0.611111       -16.6292
 120   2.0000      -0.610125       -16.6023
 121   2.0000      -0.601985       -16.3808
 122   2.0000      -0.599646       -16.3172
 123   2.0000      -0.589538       -16.0421
 124   2.0000      -0.587294       -15.9811
 125   2.0000      -0.582724       -15.8567
 126   2.0000      -0.579573       -15.7710
 127   2.0000      -0.576415       -15.6850
 128   2.0000      -0.563669       -15.3382
 129   2.0000      -0.558512       -15.1979
 130   2.0000      -0.554552       -15.0901
 131   2.0000      -0.549199       -14.9445
 132   2.0000      -0.541289       -14.7292
 133   2.0000      -0.537685       -14.6312
 134   2.0000      -0.535194       -14.5634
 135   2.0000      -0.533752       -14.5241
 136   2.0000      -0.525841       -14.3089
 137   2.0000      -0.524300       -14.2669
 138   2.0000      -0.516789       -14.0625
 139   2.0000      -0.516351       -14.0506
 140   2.0000      -0.511240       -13.9116
 141   2.0000      -0.509555       -13.8657
 142   2.0000      -0.507881       -13.8202
 143   2.0000      -0.502278       -13.6677
 144   2.0000      -0.501095       -13.6355
 145   2.0000      -0.498059       -13.5529
 146   2.0000      -0.494342       -13.4517
 147   2.0000      -0.487147       -13.2559
 148   2.0000      -0.485611       -13.2141
 149   2.0000      -0.468805       -12.7568
 150   2.0000      -0.463616       -12.6156
 151   2.0000      -0.455755       -12.4017
 152   2.0000      -0.448574       -12.2063
 153   2.0000      -0.446514       -12.1503
 154   2.0000      -0.445177       -12.1139
 155   2.0000      -0.440880       -11.9969
 156   2.0000      -0.432535       -11.7699
 157   2.0000      -0.426986       -11.6189
 158   2.0000      -0.399159       -10.8617
 159   2.0000      -0.387077       -10.5329
 160   2.0000      -0.378447       -10.2981
 161   2.0000      -0.375392       -10.2149
 162   2.0000      -0.370407       -10.0793
 163   2.0000      -0.357960        -9.7406
 164   2.0000      -0.354614        -9.6495
 165   2.0000      -0.337850        -9.1934
 166   2.0000      -0.336813        -9.1652
 167   2.0000      -0.333576        -9.0771
 168   2.0000      -0.327647        -8.9157
 169   2.0000      -0.301093        -8.1932
 170   2.0000      -0.299916        -8.1611
 171   2.0000      -0.287437        -7.8216
 172   2.0000      -0.285047        -7.7565
 173   2.0000      -0.259943        -7.0734
 174   2.0000      -0.245660        -6.6848
 175   2.0000      -0.189347        -5.1524
 176   2.0000      -0.179521        -4.8850
 177   2.0000      -0.071542        -1.9468
 178   2.0000      -0.056770        -1.5448
 179   0.0000       0.029306         0.7975
 180   0.0000       0.068423         1.8619
 181   0.0000       0.092185         2.5085
 182   0.0000       0.104145         2.8339
 183   0.0000       0.118280         3.2186

MULLIKEN ATOMIC CHARGES
-----------------------
   0 C :    0.206382
   1 N :   -0.451774
   2 C :   -0.062569
   3 N :   -0.335968
   4 C :   -0.050822
   5 N :   -0.562840
   6 C :   -0.097311
   7 N :   -0.339313
   8 C :    0.204881
   9 N :   -0.562648
  10 C :    0.117630
  11 N :   -0.437960
  12 C :   -0.082164
  13 N :   -0.433717
  14 C :    0.242267
  15 N :   -0.440966
  16 C :    0.228394
  17 C :   -0.105537
  18 C :   -0.209578
  19 C :    0.235522
  20 C :    0.211536
  21 C :   -0.095496
  22 C :   -0.089960
  23 C :   -0.042859
  24 C :    0.198083
  25 C :    0.114294
  26 C :   -0.074088
  27 C :    0.214875
  28 C :   -0.058340
  29 C :   -0.181281
  30 C :    0.242035
  31 C :    0.222565
  32 C :   -0.063221
  33 C :   -0.068901
  34 C :   -0.050592
  35 C :    0.218499
  36 C :    0.110607
  37 C :   -0.065370
  38 C :    0.233558
  39 C :   -0.059182
  40 C :   -0.184398
  41 C :    0.224089
  42 C :    0.199414
  43 C :   -0.072686
  44 C :   -0.089559
  45 C :   -0.057977
  46 C :    0.208386
  47 C :    0.115480
  48 C :   -0.069773
  49 C :    0.234017
  50 C :   -0.048934
  51 C :   -0.190196
  52 H :    0.044280
  53 H :   -0.015517
  54 H :    0.051945
  55 H :    0.043509
  56 H :    0.052082
  57 H :    0.050754
  58 H :    0.049842
  59 H :   -0.001868
  60 H :    0.047156
  61 H :    0.171721
  62 H :    0.174440
  63 H :    0.055820
  64 H :   -0.009652
  65 H :    0.047475
  66 H :    0.056610
  67 H :    0.062531
  68 H :    0.057705
  69 H :    0.057334
  70 H :   -0.027358
  71 H :    0.045862
  72 H :    0.065414
  73 H :   -0.010302
  74 H :    0.054929
  75 H :    0.064657
  76 H :    0.069730
  77 H :    0.064049
  78 H :    0.063314
  79 H :   -0.015449
  80 H :    0.055645
  81 H :    0.053788
  82 H :   -0.024191
  83 H :    0.042418
  84 H :    0.053831
  85 H :    0.060182
  86 H :    0.055826
  87 H :    0.056883
  88 H :   -0.017107
  89 H :    0.045177
Sum of atomic charges:    0.0000000

LOEWDIN ATOMIC CHARGES
----------------------
   0 C :   -0.016895
   1 N :    0.120932
   2 C :   -0.100700
   3 N :    0.182324
   4 C :    0.005796
   5 N :   -0.134057
   6 C :   -0.032840
   7 N :    0.176560
   8 C :   -0.018275
   9 N :   -0.140014
  10 C :    0.025112
  11 N :    0.143089
  12 C :   -0.107754
  13 N :    0.156315
  14 C :   -0.034798
  15 N :    0.138553
  16 C :   -0.055386
  17 C :   -0.038132
  18 C :   -0.103309
  19 C :   -0.084325
  20 C :    0.003189
  21 C :   -0.114462
  22 C :    0.038597
  23 C :   -0.016397
  24 C :   -0.008337
  25 C :    0.030072
  26 C :   -0.105314
  27 C :   -0.109031
  28 C :   -0.025209
  29 C :   -0.102565
  30 C :   -0.035959
  31 C :    0.015273
  32 C :   -0.096430
  33 C :    0.065105
  34 C :   -0.016875
  35 C :    0.011933
  36 C :    0.033010
  37 C :   -0.097071
  38 C :   -0.047939
  39 C :   -0.020607
  40 C :   -0.108393
  41 C :   -0.092141
  42 C :   -0.008863
  43 C :   -0.101181
  44 C :    0.033150
  45 C :   -0.025886
  46 C :   -0.000908
  47 C :    0.029398
  48 C :   -0.098306
  49 C :   -0.077172
  50 C :   -0.020722
  51 C :   -0.108385
  52 H :    0.025419
  53 H :    0.003607
  54 H :    0.042793
  55 H :    0.025435
  56 H :    0.023008
  57 H :    0.027762
  58 H :    0.028140
  59 H :    0.007921
  60 H :    0.040333
  61 H :    0.060212
  62 H :    0.061328
  63 H :    0.030870
  64 H :    0.003160
  65 H :    0.045854
  66 H :    0.029819
  67 H :    0.028314
  68 H :    0.031839
  69 H :    0.030714
  70 H :   -0.003381
  71 H :    0.044095
  72 H :    0.034947
  73 H :    0.006007
  74 H :    0.048385
  75 H :    0.034435
  76 H :    0.032107
  77 H :    0.034326
  78 H :    0.034003
  79 H :    0.003530
  80 H :    0.048252
  81 H :    0.028906
  82 H :   -0.002340
  83 H :    0.042912
  84 H :    0.029614
  85 H :    0.027058
  86 H :    0.030283
  87 H :    0.031248
  88 H :    0.001133
  89 H :    0.044186

  Mayer bond orders larger than 0.100000
B(  0-C ,  1-N ) :   1.0977 B(  0-C , 17-C ) :   1.6818 B(  0-C , 52-H ) :   0.9687
B(  1-N ,  8-C ) :   1.0920 B(  1-N , 10-C ) :   0.9735 B(  2-C , 12-C ) :   1.5194
B(  2-C , 16-C ) :   1.3447 B(  2-C , 53-H ) :   0.9765 B(  3-N , 14-C ) :   1.2145
B(  3-N , 16-C ) :   1.1927 B(  3-N , 61-H ) :   0.8989 B(  4-C ,  6-C ) :   1.2244
B(  4-C , 17-C ) :   1.2267 B(  4-C , 18-C ) :   1.3854 B(  5-N , 19-C ) :   1.4426
B(  5-N , 27-C ) :   1.3869 B(  6-C ,  8-C ) :   1.6875 B(  6-C , 54-H ) :   0.9651
B(  7-N , 30-C ) :   1.1953 B(  7-N , 38-C ) :   1.1947 B(  7-N , 62-H ) :   0.8974
B(  8-C , 55-H ) :   0.9687 B(  9-N , 41-C ) :   1.3991 B(  9-N , 49-C ) :   1.4220
B( 10-C , 56-H ) :   0.9767 B( 10-C , 57-H ) :   0.9820 B( 10-C , 58-H ) :   0.9841
B( 11-N , 20-C ) :   1.1289 B( 11-N , 24-C ) :   1.1127 B( 11-N , 25-C ) :   0.9594
B( 12-C , 14-C ) :   1.3461 B( 12-C , 59-H ) :   0.9745 B( 13-N , 31-C ) :   1.1461
B( 13-N , 35-C ) :   1.1420 B( 13-N , 36-C ) :   0.9488 B( 14-C , 18-C ) :   1.1511
B( 15-N , 42-C ) :   1.1104 B( 15-N , 46-C ) :   1.1201 B( 15-N , 47-C ) :   0.9618
B( 16-C , 51-C ) :   1.1806 B( 17-C , 60-H ) :   0.9667 B( 18-C , 19-C ) :   1.1598
B( 19-C , 21-C ) :   1.2323 B( 20-C , 28-C ) :   1.6264 B( 20-C , 63-H ) :   0.9703
B( 21-C , 26-C ) :   1.6242 B( 21-C , 64-H ) :   0.9699 B( 22-C , 23-C ) :   1.2880
B( 22-C , 28-C ) :   1.2680 B( 22-C , 29-C ) :   1.2239 B( 23-C , 24-C ) :   1.6189
B( 23-C , 65-H ) :   0.9705 B( 24-C , 66-H ) :   0.9694 B( 25-C , 67-H ) :   0.9761
B( 25-C , 68-H ) :   0.9828 B( 25-C , 69-H ) :   0.9822 B( 26-C , 27-C ) :   1.2289
B( 26-C , 70-H ) :   0.9719 B( 27-C , 29-C ) :   1.2215 B( 28-C , 71-H ) :   0.9718
B( 29-C , 30-C ) :   1.2294 B( 30-C , 32-C ) :   1.2941 B( 31-C , 39-C ) :   1.6053
B( 31-C , 72-H ) :   0.9687 B( 32-C , 37-C ) :   1.5645 B( 32-C , 73-H ) :   0.9783
B( 33-C , 34-C ) :   1.2945 B( 33-C , 39-C ) :   1.2892 B( 33-C , 40-C ) :   1.2050
B( 34-C , 35-C ) :   1.6023 B( 34-C , 74-H ) :   0.9700 B( 35-C , 75-H ) :   0.9688
B( 36-C , 76-H ) :   0.9766 B( 36-C , 77-H ) :   0.9818 B( 36-C , 78-H ) :   0.9826
B( 37-C , 38-C ) :   1.2976 B( 37-C , 79-H ) :   0.9770 B( 38-C , 40-C ) :   1.2222
B( 39-C , 80-H ) :   0.9709 B( 40-C , 41-C ) :   1.2388 B( 41-C , 43-C ) :   1.1956
B( 42-C , 50-C ) :   1.6334 B( 42-C , 81-H ) :   0.9697 B( 43-C , 48-C ) :   1.6566
B( 43-C , 82-H ) :   0.9728 B( 44-C , 45-C ) :   1.2661 B( 44-C , 50-C ) :   1.2702
B( 44-C , 51-C ) :   1.2586 B( 45-C , 46-C ) :   1.6342 B( 45-C , 83-H ) :   0.9716
B( 46-C , 84-H ) :   0.9701 B( 47-C , 85-H ) :   0.9761 B( 47-C , 86-H ) :   0.9829
B( 47-C , 87-H ) :   0.9825 B( 48-C , 49-C ) :   1.1979 B( 48-C , 88-H ) :   0.9745
B( 49-C , 51-C ) :   1.2338 B( 50-C , 89-H ) :   0.9711

MP2 TOTAL ENERGY:    -2130.907634178 Eh
FINAL SINGLE POINT ENERGY     -2130.907634178494

DIPOLE MOMENT
-------------
                                X             Y             Z
Electronic contribution:      1.64825      -2.90423      -0.12499
Nuclear contribution   :     -0.05048       0.15301       0.15269
                        -----------------------------------------
Total Dipole Moment    :      1.59777      -2.75122       0.02770
                        -----------------------------------------
Magnitude (a.u.)       :      3.18164
Magnitude (Debye)      :      8.08709

Rotational constants in cm-1:     0.001501     0.001476     0.000761
Rotational constants in MHz :    44.989246    44.237152    22.819589

                             ****ORCA TERMINATED NORMALLY****
TOTAL RUN TIME: 0 days 1 hours 10 minutes 57 seconds 214 msec
