                         Program Version 5.0.4 -  RELEASE  -
|  1> ! PAL2
|  2> ! mp2 cc-pvdz TightSCF  NoKeepInts
|  3>
|  4> %scf
|  5>   MaxCore 2000
|  6> end
|  7> %mp2
|  8>   MaxCore 2000
|  9> end
| 10> * xyz 0 1
| 11>    C       -4.23200         5.65300         1.20900
| 12>    C        1.47400         4.04100         0.05700
| 13>    C       -2.80200         4.09300         0.04900
| 14>    C       -2.97700         4.87100        -1.10600
| 15>    C       -3.76300         6.00500        -1.06600
| 16>    C       -5.18600         7.62100         0.09700
| 17>    C        0.13200         4.30700         0.06100
| 18>    C       -0.56900         3.05600         0.04700
| 19>    C        1.64900         2.61800         0.02300
| 20>    C       -3.45100         4.51400         1.22000
| 21>    N       -4.38000         6.38000         0.07800
| 22>    N        0.38800         2.06700         0.02500
| 23>    N       -2.01000         0.39500        -0.07500
| 24>    N       -0.38800        -2.07400        -0.02700
| 25>    N        2.01000        -0.40100         0.06500
| 26>    C       -1.96000         2.86100         0.02400
| 27>    C       -2.62300         1.61500        -0.01800
| 28>    C       -5.57300        -4.32900         1.06600
| 29>    C       -4.07300         1.47100         0.05600
| 30>    C       -4.10600        -2.75600        -0.02600
| 31>    C       -4.99500        -2.75700        -1.11100
| 32>    C       -6.13200        -3.54200        -1.07600
| 33>    C       -7.65100        -5.11300         0.04000
| 34>    C       -4.32400         0.14100         0.03700
| 35>    C       -3.02500        -0.52000        -0.04800
| 36>    C       -4.42200        -3.56600         1.07500
| 37>    N       -6.40700        -4.31300         0.00100
| 38>    C       -2.86700        -1.92200        -0.04000
| 39>    C       -1.65000        -2.62400        -0.02700
| 40>    C        3.56800        -6.14200        -1.04000
| 41>    C       -1.47600        -4.04900        -0.03400
| 42>    C        2.80300        -4.09900        -0.00800
| 43>    C        3.65700        -4.38400         1.06900
| 44>    C        4.42700        -5.53000         1.05900
| 45>    C        5.24500        -7.58800         0.01400
| 46>    C       -0.13400        -4.31500        -0.02200
| 47>    C        0.56800        -3.06400        -0.02700
| 48>    C        2.77500        -5.01200        -1.07400
| 49>    N        4.37600        -6.39100         0.01700
| 50>    C        1.95900        -2.86900        -0.00900
| 51>    C        2.62100        -1.62200         0.00900
| 52>    C        5.54300         4.33900        -1.13000
| 53>    C        4.07000        -1.47900        -0.09400
| 54>    C        4.10400         2.75100        -0.02100
| 55>    C        5.02700         2.72900         1.03600
| 56>    C        6.16600         3.50900         0.97800
| 57>    C        7.61900         5.15300        -0.11500
| 58>    C        4.32100        -0.14800        -0.09200
| 59>    C        3.02500         0.51400         0.01500
| 60>    C        4.38700         3.58200        -1.11500
| 61>    C        2.86600         1.91600         0.01300
| 62>    N        6.41300         4.29600        -0.09500
| 63>    H       -4.76100         6.00800         2.08500
| 64>    H        2.27400         4.76600         0.08100
| 65>    H       -2.49400         4.60300        -2.03800
| 66>    H       -3.92000         6.64000        -1.92800
| 67>    H       -4.52700         8.46900         0.29700
| 68>    H       -5.66800         7.74100        -0.87200
| 69>    H       -5.93800         7.53800         0.88100
| 70>    H       -0.33200         5.28200         0.06900
| 71>    H       -3.36700         3.94800         2.14100
| 72>    H        0.18200         1.07200         0.00500
| 73>    H       -0.18300        -1.08000        -0.02100
| 74>    H       -5.86400        -4.96200         1.89500
| 75>    H       -4.79400         2.27200         0.13900
| 76>    H       -4.80000        -2.16000        -1.99400
| 77>    H       -6.84100        -3.58200        -1.89300
| 78>    H       -8.42800        -4.53600         0.54600
| 79>    H       -7.95600        -5.33700        -0.98100
| 80>    H       -7.45600        -6.03700         0.58400
| 81>    H       -5.28700        -0.34400         0.10000
| 82>    H       -3.78000        -3.60100         1.94700
| 83>    H        3.58700        -6.86800        -1.84300
| 84>    H       -2.27600        -4.77400        -0.05000
| 85>    H        3.71400        -3.72400         1.92600
| 86>    H        5.09200        -5.79500         1.87100
| 87>    H        6.20500        -7.32900        -0.43900
| 88>    H        5.39300        -7.91700         1.04200
| 89>    H        4.75900        -8.37300        -0.56400
| 90>    H        0.32900        -5.29000        -0.00800
| 91>    H        2.14600        -4.84200        -1.94000
| 92>    H        5.80800         4.98600        -1.95600
| 93>    H        4.78800        -2.28100        -0.18500
| 94>    H        4.86000         2.11400         1.91200
| 95>    H        6.90100         3.53100         1.77200
| 96>    H        7.38300         6.10900         0.35600
| 97>    H        8.41400         4.65200         0.43500
| 98>    H        7.92100         5.31000        -1.15000
| 99>    H        5.28300         0.33600        -0.17900
|100>    H        3.72000         3.63200        -1.96700
|101> *
|102>
|103>                          ****END OF INPUT****

CARTESIAN COORDINATES (ANGSTROEM)
---------------------------------
  C     -4.232000    5.653000    1.209000
  C      1.474000    4.041000    0.057000
  C     -2.802000    4.093000    0.049000
  C     -2.977000    4.871000   -1.106000
  C     -3.763000    6.005000   -1.066000
  C     -5.186000    7.621000    0.097000
  C      0.132000    4.307000    0.061000
  C     -0.569000    3.056000    0.047000
  C      1.649000    2.618000    0.023000
  C     -3.451000    4.514000    1.220000
  N     -4.380000    6.380000    0.078000
  N      0.388000    2.067000    0.025000
  N     -2.010000    0.395000   -0.075000
  N     -0.388000   -2.074000   -0.027000
  N      2.010000   -0.401000    0.065000
  C     -1.960000    2.861000    0.024000
  C     -2.623000    1.615000   -0.018000
  C     -5.573000   -4.329000    1.066000
  C     -4.073000    1.471000    0.056000
  C     -4.106000   -2.756000   -0.026000
  C     -4.995000   -2.757000   -1.111000
  C     -6.132000   -3.542000   -1.076000
  C     -7.651000   -5.113000    0.040000
  C     -4.324000    0.141000    0.037000
  C     -3.025000   -0.520000   -0.048000
  C     -4.422000   -3.566000    1.075000
  N     -6.407000   -4.313000    0.001000
  C     -2.867000   -1.922000   -0.040000
  C     -1.650000   -2.624000   -0.027000
  C      3.568000   -6.142000   -1.040000
  C     -1.476000   -4.049000   -0.034000
  C      2.803000   -4.099000   -0.008000
  C      3.657000   -4.384000    1.069000
  C      4.427000   -5.530000    1.059000
  C      5.245000   -7.588000    0.014000
  C     -0.134000   -4.315000   -0.022000
  C      0.568000   -3.064000   -0.027000
  C      2.775000   -5.012000   -1.074000
  N      4.376000   -6.391000    0.017000
  C      1.959000   -2.869000   -0.009000
  C      2.621000   -1.622000    0.009000
  C      5.543000    4.339000   -1.130000
  C      4.070000   -1.479000   -0.094000
  C      4.104000    2.751000   -0.021000
  C      5.027000    2.729000    1.036000
  C      6.166000    3.509000    0.978000
  C      7.619000    5.153000   -0.115000
  C      4.321000   -0.148000   -0.092000
  C      3.025000    0.514000    0.015000
  C      4.387000    3.582000   -1.115000
  C      2.866000    1.916000    0.013000
  N      6.413000    4.296000   -0.095000
  H     -4.761000    6.008000    2.085000
  H      2.274000    4.766000    0.081000
  H     -2.494000    4.603000   -2.038000
  H     -3.920000    6.640000   -1.928000
  H     -4.527000    8.469000    0.297000
  H     -5.668000    7.741000   -0.872000
  H     -5.938000    7.538000    0.881000
  H     -0.332000    5.282000    0.069000
  H     -3.367000    3.948000    2.141000
  H      0.182000    1.072000    0.005000
  H     -0.183000   -1.080000   -0.021000
  H     -5.864000   -4.962000    1.895000
  H     -4.794000    2.272000    0.139000
  H     -4.800000   -2.160000   -1.994000
  H     -6.841000   -3.582000   -1.893000
  H     -8.428000   -4.536000    0.546000
  H     -7.956000   -5.337000   -0.981000
  H     -7.456000   -6.037000    0.584000
  H     -5.287000   -0.344000    0.100000
  H     -3.780000   -3.601000    1.947000
  H      3.587000   -6.868000   -1.843000
  H     -2.276000   -4.774000   -0.050000
  H      3.714000   -3.724000    1.926000
  H      5.092000   -5.795000    1.871000
  H      6.205000   -7.329000   -0.439000
  H      5.393000   -7.917000    1.042000
  H      4.759000   -8.373000   -0.564000
  H      0.329000   -5.290000   -0.008000
  H      2.146000   -4.842000   -1.940000
  H      5.808000    4.986000   -1.956000
  H      4.788000   -2.281000   -0.185000
  H      4.860000    2.114000    1.912000
  H      6.901000    3.531000    1.772000
  H      7.383000    6.109000    0.356000
  H      8.414000    4.652000    0.435000
  H      7.921000    5.310000   -1.150000
  H      5.283000    0.336000   -0.179000
  H      3.720000    3.632000   -1.967000

 Total Charge           Charge          ....    0
 Multiplicity           Mult            ....    1
 Number of Electrons    NEL             ....  358
 Basis Dimension        Dim             ....  918

ORBITAL ENERGIES
----------------

  NO   OCC          E(Eh)            E(eV)
   0   2.0000     -15.693040      -427.0293
   1   2.0000     -15.633879      -425.4195
   2   2.0000     -15.621647      -425.0866
   3   2.0000     -15.590823      -424.2479
   4   2.0000     -15.519510      -422.3073
   5   2.0000     -15.507746      -421.9872
   6   2.0000     -15.449285      -420.3964
   7   2.0000     -15.430889      -419.8958
   8   2.0000     -11.337427      -308.5071
   9   2.0000     -11.336792      -308.4898
  10   2.0000     -11.334738      -308.4339
  11   2.0000     -11.299508      -307.4753
  12   2.0000     -11.293630      -307.3153
  13   2.0000     -11.291486      -307.2570
  14   2.0000     -11.290411      -307.2277
  15   2.0000     -11.286273      -307.1151
  16   2.0000     -11.282963      -307.0250
  17   2.0000     -11.275313      -306.8169
  18   2.0000     -11.272241      -306.7333
  19   2.0000     -11.270582      -306.6881
  20   2.0000     -11.270144      -306.6762
  21   2.0000     -11.255101      -306.2669
  22   2.0000     -11.251844      -306.1783
  23   2.0000     -11.237321      -305.7830
  24   2.0000     -11.230362      -305.5937
  25   2.0000     -11.229480      -305.5697
  26   2.0000     -11.225913      -305.4726
  27   2.0000     -11.221226      -305.3451
  28   2.0000     -11.220931      -305.3371
  29   2.0000     -11.206042      -304.9319
  30   2.0000     -11.205379      -304.9139
  31   2.0000     -11.199012      -304.7406
  32   2.0000     -11.198214      -304.7189
  33   2.0000     -11.196704      -304.6778
  34   2.0000     -11.188594      -304.4571
  35   2.0000     -11.187404      -304.4247
  36   2.0000     -11.187309      -304.4222
  37   2.0000     -11.184627      -304.3492
  38   2.0000     -11.184372      -304.3422
  39   2.0000     -11.170844      -303.9741
  40   2.0000     -11.166451      -303.8546
  41   2.0000     -11.162624      -303.7505
  42   2.0000     -11.162133      -303.7371
  43   2.0000     -11.161453      -303.7186
  44   2.0000     -11.156949      -303.5960
  45   2.0000     -11.151261      -303.4412
  46   2.0000     -11.150916      -303.4319
  47   2.0000     -11.145363      -303.2808
  48   2.0000     -11.144929      -303.2689
  49   2.0000     -11.137288      -303.0610
  50   2.0000     -11.123092      -302.6747
  51   2.0000     -11.118885      -302.5602
  52   2.0000      -1.370294       -37.2876
  53   2.0000      -1.321219       -35.9522
  54   2.0000      -1.310266       -35.6542
  55   2.0000      -1.284147       -34.9434
  56   2.0000      -1.221186       -33.2302
  57   2.0000      -1.204033       -32.7634
  58   2.0000      -1.172105       -31.8946
  59   2.0000      -1.149755       -31.2864
  60   2.0000      -1.142263       -31.0825
  61   2.0000      -1.109591       -30.1935
  62   2.0000      -1.099869       -29.9290
  63   2.0000      -1.090453       -29.6727
  64   2.0000      -1.076790       -29.3009
  65   2.0000      -1.045283       -28.4436
  66   2.0000      -1.044081       -28.4109
  67   2.0000      -1.035078       -28.1659
  68   2.0000      -1.013863       -27.5886
  69   2.0000      -1.010727       -27.5033
  70   2.0000      -1.005039       -27.3485
  71   2.0000      -0.989564       -26.9274
  72   2.0000      -0.984472       -26.7888
  73   2.0000      -0.979321       -26.6487
  74   2.0000      -0.966472       -26.2990
  75   2.0000      -0.960483       -26.1361
  76   2.0000      -0.951761       -25.8987
  77   2.0000      -0.943369       -25.6704
  78   2.0000      -0.924744       -25.1636
  79   2.0000      -0.916880       -24.9496
  80   2.0000      -0.916726       -24.9454
  81   2.0000      -0.889040       -24.1920
  82   2.0000      -0.878061       -23.8932
  83   2.0000      -0.871391       -23.7118
  84   2.0000      -0.862385       -23.4667
  85   2.0000      -0.850158       -23.1340
  86   2.0000      -0.838010       -22.8034
  87   2.0000      -0.829697       -22.5772
  88   2.0000      -0.822169       -22.3724
  89   2.0000      -0.795665       -21.6511
  90   2.0000      -0.789977       -21.4964
  91   2.0000      -0.758615       -20.6430
  92   2.0000      -0.733975       -19.9725
  93   2.0000      -0.727608       -19.7992
  94   2.0000      -0.722510       -19.6605
  95   2.0000      -0.720761       -19.6129
  96   2.0000      -0.716410       -19.4945
  97   2.0000      -0.707560       -19.2537
  98   2.0000      -0.700104       -19.0508
  99   2.0000      -0.695845       -18.9349
 100   2.0000      -0.693342       -18.8668
 101   2.0000      -0.691531       -18.8175
 102   2.0000      -0.683028       -18.5861
 103   2.0000      -0.676173       -18.3996
 104   2.0000      -0.671986       -18.2857
 105   2.0000      -0.669926       -18.2296
 106   2.0000      -0.665349       -18.1051
 107   2.0000      -0.654675       -17.8146
 108   2.0000      -0.653809       -17.7910
 109   2.0000      -0.652381       -17.7522
 110   2.0000      -0.649479       -17.6732
 111   2.0000      -0.644547       -17.5390
 112   2.0000      -0.643090       -17.4994
 113   2.0000      -0.638561       -17.3761
 114   2.0000      -0.633234       -17.2312
 115   2.0000      -0.624180       -16.9848
 116   2.0000      -0.623533       -16.9672
 117   2.0000      -0.619108       -16.8468
 118   2.0000      -0.614663       -16.7258
 119   2.0000      -0.612311       -16.6618
 120   2.0000      -0.609592       -16.5878
 121   2.0000      -0.603056       -16.4100
 122   2.0000      -0.592802       -16.1310
 123   2.0000      -0.587186       -15.9781
 124   2.0000      -0.581190       -15.8150
 125   2.0000      -0.580425       -15.7942
 126   2.0000      -0.577468       -15.7137
 127   2.0000      -0.575963       -15.6727
 128   2.0000      -0.572784       -15.5862
 129   2.0000      -0.557978       -15.1833
 130   2.0000      -0.553777       -15.0690
 131   2.0000      -0.551977       -15.0201
 132   2.0000      -0.544185       -14.8080
 133   2.0000      -0.539005       -14.6671
 134   2.0000      -0.534933       -14.5563
 135   2.0000      -0.530780       -14.4433
 136   2.0000      -0.519288       -14.1305
 137   2.0000      -0.516423       -14.0526
 138   2.0000      -0.514664       -14.0047
 139   2.0000      -0.513269       -13.9668
 140   2.0000      -0.510013       -13.8782
 141   2.0000      -0.505783       -13.7631
 142   2.0000      -0.502161       -13.6645
 143   2.0000      -0.500428       -13.6173
 144   2.0000      -0.495915       -13.4945
 145   2.0000      -0.493778       -13.4364
 146   2.0000      -0.492261       -13.3951
 147   2.0000      -0.479327       -13.0432
 148   2.0000      -0.478455       -13.0194
 149   2.0000      -0.464734       -12.6461
 150   2.0000      -0.462950       -12.5975
 151   2.0000      -0.457911       -12.4604
 152   2.0000      -0.450857       -12.2685
 153   2.0000      -0.441821       -12.0226
 154   2.0000      -0.437297       -11.8995
 155   2.0000      -0.435562       -11.8522
 156   2.0000      -0.423716       -11.5299
 157   2.0000      -0.417421       -11.3586
 158   2.0000      -0.407327       -11.0839
 159   2.0000      -0.394149       -10.7253
 160   2.0000      -0.382622       -10.4117
 161   2.0000      -0.371663       -10.1135
 162   2.0000      -0.356895        -9.7116
 163   2.0000      -0.356368        -9.6973
 164   2.0000      -0.347781        -9.4636
 165   2.0000      -0.339225        -9.2308
 166   2.0000      -0.338679        -9.2159
 167   2.0000      -0.326848        -8.8940
 168   2.0000      -0.316483        -8.6119
 169   2.0000      -0.300629        -8.1805
 170   2.0000      -0.298771        -8.1300
 171   2.0000      -0.284424        -7.7396
 172   2.0000      -0.279529        -7.6064
 173   2.0000      -0.263743        -7.1768
 174   2.0000      -0.234566        -6.3829
 175   2.0000      -0.184463        -5.0195
 176   2.0000      -0.174469        -4.7475
 177   2.0000      -0.062625        -1.7041
 178   2.0000      -0.051079        -1.3899
 179   0.0000       0.034317         0.9338
 180   0.0000       0.059905         1.6301
 181   0.0000       0.088594         2.4108
 182   0.0000       0.097288         2.6473
 183   0.0000       0.103554         2.8178

MULLIKEN ATOMIC CHARGES
-----------------------
   0 C :    0.229006
   1 N :   -0.421040
   2 C :   -0.066494
   3 N :   -0.341827
   4 C :   -0.071450
   5 N :   -0.565512
   6 C :   -0.032737
   7 N :   -0.336835
   8 C :    0.227313
   9 N :   -0.565834
  10 C :    0.106784
  11 N :   -0.438815
  12 C :   -0.060592
  13 N :   -0.449096
  14 C :    0.225555
  15 N :   -0.441438
  16 C :    0.251637
  17 C :   -0.037685
  18 C :   -0.187397
  19 C :    0.234878
  20 C :    0.193250
  21 C :   -0.071569
  22 C :   -0.088666
  23 C :   -0.063454
  24 C :    0.216205
  25 C :    0.114427
  26 C :   -0.067461
  27 C :    0.243103
  28 C :   -0.041983
  29 C :   -0.195190
  30 C :    0.223506
  31 C :    0.191560
  32 C :   -0.065858
  33 C :   -0.099101
  34 C :   -0.050756
  35 C :    0.183138
  36 C :    0.119823
  37 C :   -0.069937
  38 C :    0.242730
  39 C :   -0.064363
  40 C :   -0.201797
  41 C :    0.217689
  42 C :    0.210578
  43 C :   -0.076297
  44 C :   -0.091356
  45 C :   -0.040836
  46 C :    0.187828
  47 C :    0.116507
  48 C :   -0.080359
  49 C :    0.211667
  50 C :   -0.064601
  51 C :   -0.189093
  52 H :    0.076314
  53 H :   -0.008559
  54 H :    0.061805
  55 H :    0.074194
  56 H :    0.078892
  57 H :    0.071561
  58 H :    0.070314
  59 H :   -0.025847
  60 H :    0.062805
  61 H :    0.176355
  62 H :    0.168729
  63 H :    0.054099
  64 H :   -0.030958
  65 H :    0.042857
  66 H :    0.056150
  67 H :    0.059608
  68 H :    0.056845
  69 H :    0.059372
  70 H :   -0.016173
  71 H :    0.047474
  72 H :    0.040720
  73 H :   -0.019163
  74 H :    0.032377
  75 H :    0.039538
  76 H :    0.048896
  77 H :    0.048127
  78 H :    0.047373
  79 H :   -0.012199
  80 H :    0.032262
  81 H :    0.050854
  82 H :   -0.022762
  83 H :    0.042915
  84 H :    0.050099
  85 H :    0.055222
  86 H :    0.056392
  87 H :    0.054817
  88 H :   -0.028717
  89 H :    0.039658
Sum of atomic charges:   -0.0000000

LOEWDIN ATOMIC CHARGES
----------------------
   0 C :    0.029224
   1 N :    0.178716
   2 C :   -0.099859
   3 N :    0.173206
   4 C :    0.097473
   5 N :   -0.146234
   6 C :   -0.010983
   7 N :    0.177769
   8 C :    0.028088
   9 N :   -0.138939
  10 C :    0.037734
  11 N :    0.141487
  12 C :   -0.097815
  13 N :    0.118329
  14 C :   -0.059189
  15 N :    0.135456
  16 C :   -0.022529
  17 C :   -0.012440
  18 C :   -0.117098
  19 C :   -0.089111
  20 C :   -0.013308
  21 C :   -0.100008
  22 C :    0.037831
  23 C :   -0.030752
  24 C :    0.007148
  25 C :    0.029732
  26 C :   -0.094578
  27 C :   -0.062563
  28 C :   -0.015723
  29 C :   -0.117232
  30 C :   -0.061759
  31 C :   -0.021968
  32 C :   -0.101887
  33 C :    0.001696
  34 C :   -0.025783
  35 C :   -0.029426
  36 C :    0.024247
  37 C :   -0.108735
  38 C :   -0.031874
  39 C :   -0.032714
  40 C :   -0.112834
  41 C :   -0.092803
  42 C :   -0.000354
  43 C :   -0.111853
  44 C :    0.028617
  45 C :   -0.015636
  46 C :   -0.020071
  47 C :    0.028404
  48 C :   -0.112279
  49 C :   -0.112086
  50 C :   -0.031667
  51 C :   -0.108299
  52 H :    0.039512
  53 H :    0.006960
  54 H :    0.052943
  55 H :    0.038903
  56 H :    0.036874
  57 H :    0.037465
  58 H :    0.037603
  59 H :    0.000220
  60 H :    0.053309
  61 H :    0.062285
  62 H :    0.058240
  63 H :    0.029439
  64 H :   -0.004466
  65 H :    0.042816
  66 H :    0.030376
  67 H :    0.027038
  68 H :    0.031418
  69 H :    0.031481
  70 H :    0.001842
  71 H :    0.045691
  72 H :    0.023506
  73 H :    0.001797
  74 H :    0.038946
  75 H :    0.022614
  76 H :    0.021391
  77 H :    0.026870
  78 H :    0.026559
  79 H :    0.005302
  80 H :    0.038160
  81 H :    0.028117
  82 H :   -0.001288
  83 H :    0.044082
  84 H :    0.027235
  85 H :    0.024731
  86 H :    0.030383
  87 H :    0.030256
  88 H :   -0.004405
  89 H :    0.041029

  Mayer bond orders larger than 0.100000
B(  0-C ,  1-N ) :   1.1788 B(  0-C , 17-C ) :   1.5493 B(  0-C , 52-H ) :   0.9676
B(  1-N ,  8-C ) :   1.1762 B(  1-N , 10-C ) :   0.9351 B(  2-C , 12-C ) :   1.5669
B(  2-C , 16-C ) :   1.2882 B(  2-C , 53-H ) :   0.9789 B(  3-N , 14-C ) :   1.1807
B(  3-N , 16-C ) :   1.2027 B(  3-N , 61-H ) :   0.8959 B(  4-C ,  6-C ) :   1.3315
B(  4-C , 17-C ) :   1.3379 B(  4-C , 18-C ) :   1.1051 B(  5-N , 19-C ) :   1.3761
B(  5-N , 27-C ) :   1.4395 B(  6-C ,  8-C ) :   1.5544 B(  6-C , 54-H ) :   0.9711
B(  7-N , 30-C ) :   1.1869 B(  7-N , 38-C ) :   1.2124 B(  7-N , 62-H ) :   0.9007
B(  8-C , 55-H ) :   0.9683 B(  9-N , 41-C ) :   1.4298 B(  9-N , 49-C ) :   1.3968
B( 10-C , 56-H ) :   0.9765 B( 10-C , 57-H ) :   0.9810 B( 10-C , 58-H ) :   0.9822
B( 11-N , 20-C ) :   1.1056 B( 11-N , 24-C ) :   1.1342 B( 11-N , 25-C ) :   0.9603
B( 12-C , 14-C ) :   1.2883 B( 12-C , 59-H ) :   0.9770 B( 13-N , 31-C ) :   1.0902
B( 13-N , 35-C ) :   1.0811 B( 13-N , 36-C ) :   0.9777 B( 14-C , 18-C ) :   1.2445
B( 15-N , 42-C ) :   1.1242 B( 15-N , 46-C ) :   1.0950 B( 15-N , 47-C ) :   0.9653
B( 16-C , 51-C ) :   1.2319 B( 17-C , 60-H ) :   0.9710 B( 18-C , 19-C ) :   1.2899
B( 19-C , 21-C ) :   1.1729 B( 20-C , 28-C ) :   1.6255 B( 20-C , 63-H ) :   0.9707
B( 21-C , 26-C ) :   1.6738 B( 21-C , 64-H ) :   0.9721 B( 22-C , 23-C ) :   1.2639
B( 22-C , 28-C ) :   1.2803 B( 22-C , 29-C ) :   1.2494 B( 23-C , 24-C ) :   1.6288
B( 23-C , 65-H ) :   0.9719 B( 24-C , 66-H ) :   0.9690 B( 25-C , 67-H ) :   0.9763
B( 25-C , 68-H ) :   0.9832 B( 25-C , 69-H ) :   0.9819 B( 26-C , 27-C ) :   1.1803
B( 26-C , 70-H ) :   0.9751 B( 27-C , 29-C ) :   1.2404 B( 28-C , 71-H ) :   0.9710
B( 29-C , 30-C ) :   1.1812 B( 30-C , 32-C ) :   1.3445 B( 31-C , 39-C ) :   1.6732
B( 31-C , 72-H ) :   0.9707 B( 32-C , 37-C ) :   1.5146 B( 32-C , 73-H ) :   0.9772
B( 33-C , 34-C ) :   1.2413 B( 33-C , 39-C ) :   1.2341 B( 33-C , 40-C ) :   1.3340
B( 34-C , 35-C ) :   1.6714 B( 34-C , 74-H ) :   0.9709 B( 35-C , 75-H ) :   0.9707
B( 36-C , 76-H ) :   0.9757 B( 36-C , 77-H ) :   0.9825 B( 36-C , 78-H ) :   0.9837
B( 37-C , 38-C ) :   1.3406 B( 37-C , 79-H ) :   0.9789 B( 38-C , 40-C ) :   1.1831
B( 39-C , 80-H ) :   0.9720 B( 40-C , 41-C ) :   1.1803 B( 41-C , 43-C ) :   1.2452
B( 42-C , 50-C ) :   1.6400 B( 42-C , 81-H ) :   0.9696 B( 43-C , 48-C ) :   1.6059
B( 43-C , 82-H ) :   0.9753 B( 44-C , 45-C ) :   1.2792 B( 44-C , 50-C ) :   1.2532
B( 44-C , 51-C ) :   1.2493 B( 45-C , 46-C ) :   1.6325 B( 45-C , 83-H ) :   0.9704
B( 46-C , 84-H ) :   0.9707 B( 47-C , 85-H ) :   0.9760 B( 47-C , 86-H ) :   0.9826
B( 47-C , 87-H ) :   0.9829 B( 48-C , 49-C ) :   1.2406 B( 48-C , 88-H ) :   0.9729
B( 49-C , 51-C ) :   1.1995 B( 50-C , 89-H ) :   0.9720

MP2 TOTAL ENERGY:    -2130.886532105 Eh
FINAL SINGLE POINT ENERGY     -2130.886532105024

DIPOLE MOMENT
-------------
                                X             Y             Z
Electronic contribution:     -3.67784       3.75344      -0.08339
Nuclear contribution   :      0.06607       0.23086       0.10373
                        -----------------------------------------
Total Dipole Moment    :     -3.61177       3.98430       0.02034
                        -----------------------------------------
Magnitude (a.u.)       :      5.37772
Magnitude (Debye)      :     13.66908

Rotational constants in cm-1:     0.001498     0.001473     0.000763
Rotational constants in MHz :    44.912089    44.147644    22.862677

                             ****ORCA TERMINATED NORMALLY****
TOTAL RUN TIME: 0 days 1 hours 26 minutes 6 seconds 835 msec
