                         Program Version 5.0.4 -  RELEASE  -
|  1> ! PAL2
|  2> ! mp2 cc-pvdz TightSCF  NoKeepInts
|  3>
|  4> %scf
|  5>   MaxCore 2000
|  6> end
|  7> %mp2
|  8>   MaxCore 2000
|  9> end
| 10> * xyz 0 1
| 11>    C       -3.68800         6.07000        -1.01400
| 12>    C        1.47400         4.04100         0.05700
| 13>    C       -2.80200         4.09300         0.04900
| 14>    C       -3.51300         4.45700         1.20300
| 15>    C       -4.28400         5.60300         1.21000
| 16>    C       -5.22400         7.59400         0.14200
| 17>    C        0.13200         4.30700         0.06100
| 18>    C       -0.56900         3.05600         0.04700
| 19>    C        1.64900         2.61800         0.02300
| 20>    C       -2.90900         4.93100        -1.07200
| 21>    N       -4.36000         6.39300         0.11400
| 22>    N        0.38800         2.06700         0.02500
| 23>    N       -2.01000         0.39500        -0.07500
| 24>    N       -0.38800        -2.07400        -0.02700
| 25>    N        2.01000        -0.40100         0.06500
| 26>    C       -1.96000         2.86100         0.02400
| 27>    C       -2.62300         1.61500        -0.01800
| 28>    C       -5.57300        -4.32900         1.06600
| 29>    C       -4.07300         1.47100         0.05600
| 30>    C       -4.10600        -2.75600        -0.02600
| 31>    C       -4.99500        -2.75700        -1.11100
| 32>    C       -6.13200        -3.54200        -1.07600
| 33>    C       -7.65100        -5.11300         0.04000
| 34>    C       -4.32400         0.14100         0.03700
| 35>    C       -3.02500        -0.52000        -0.04800
| 36>    C       -4.42200        -3.56600         1.07500
| 37>    N       -6.40700        -4.31300         0.00100
| 38>    C       -2.86700        -1.92200        -0.04000
| 39>    C       -1.65000        -2.62400        -0.02700
| 40>    C        3.56800        -6.14200        -1.04000
| 41>    C       -1.47600        -4.04900        -0.03400
| 42>    C        2.80300        -4.09900        -0.00800
| 43>    C        3.65700        -4.38400         1.06900
| 44>    C        4.42700        -5.53000         1.05900
| 45>    C        5.24500        -7.58800         0.01400
| 46>    C       -0.13400        -4.31500        -0.02200
| 47>    C        0.56800        -3.06400        -0.02700
| 48>    C        2.77500        -5.01200        -1.07400
| 49>    N        4.37600        -6.39100         0.01700
| 50>    C        1.95900        -2.86900        -0.00900
| 51>    C        2.62100        -1.62200         0.00900
| 52>    C        5.54300         4.33900        -1.13000
| 53>    C        4.07000        -1.47900        -0.09400
| 54>    C        4.10400         2.75100        -0.02100
| 55>    C        5.02700         2.72900         1.03600
| 56>    C        6.16600         3.50900         0.97800
| 57>    C        7.61900         5.15300        -0.11500
| 58>    C        4.32100        -0.14800        -0.09200
| 59>    C        3.02500         0.51400         0.01500
| 60>    C        4.38700         3.58200        -1.11500
| 61>    C        2.86600         1.91600         0.01300
| 62>    N        6.41300         4.29600        -0.09500
| 63>    H       -3.78900         6.75200        -1.85000
| 64>    H        2.27400         4.76600         0.08100
| 65>    H       -3.47900         3.84600         2.09700
| 66>    H       -4.85600         5.91900         2.07200
| 67>    H       -6.24400         7.30500        -0.12400
| 68>    H       -5.20400         8.01800         1.14500
| 69>    H       -4.84100         8.31800        -0.57700
| 70>    H       -0.33200         5.28200         0.06900
| 71>    H       -2.37200         4.71200        -1.98800
| 72>    H        0.18200         1.07200         0.00500
| 73>    H       -0.18300        -1.08000        -0.02100
| 74>    H       -5.86400        -4.96200         1.89500
| 75>    H       -4.79400         2.27200         0.13900
| 76>    H       -4.80000        -2.16000        -1.99400
| 77>    H       -6.84100        -3.58200        -1.89300
| 78>    H       -8.42800        -4.53600         0.54600
| 79>    H       -7.95600        -5.33700        -0.98100
| 80>    H       -7.45600        -6.03700         0.58400
| 81>    H       -5.28700        -0.34400         0.10000
| 82>    H       -3.78000        -3.60100         1.94700
| 83>    H        3.58700        -6.86800        -1.84300
| 84>    H       -2.27600        -4.77400        -0.05000
| 85>    H        3.71400        -3.72400         1.92600
| 86>    H        5.09200        -5.79500         1.87100
| 87>    H        6.20500        -7.32900        -0.43900
| 88>    H        5.39300        -7.91700         1.04200
| 89>    H        4.75900        -8.37300        -0.56400
| 90>    H        0.32900        -5.29000        -0.00800
| 91>    H        2.14600        -4.84200        -1.94000
| 92>    H        5.80800         4.98600        -1.95600
| 93>    H        4.78800        -2.28100        -0.18500
| 94>    H        4.86000         2.11400         1.91200
| 95>    H        6.90100         3.53100         1.77200
| 96>    H        7.38300         6.10900         0.35600
| 97>    H        8.41400         4.65200         0.43500
| 98>    H        7.92100         5.31000        -1.15000
| 99>    H        5.28300         0.33600        -0.17900
|100>    H        3.72000         3.63200        -1.96700
|101> *
|102>
|103>                          ****END OF INPUT****

CARTESIAN COORDINATES (ANGSTROEM)
---------------------------------
  C     -3.688000    6.070000   -1.014000
  C      1.474000    4.041000    0.057000
  C     -2.802000    4.093000    0.049000
  C     -3.513000    4.457000    1.203000
  C     -4.284000    5.603000    1.210000
  C     -5.224000    7.594000    0.142000
  C      0.132000    4.307000    0.061000
  C     -0.569000    3.056000    0.047000
  C      1.649000    2.618000    0.023000
  C     -2.909000    4.931000   -1.072000
  N     -4.360000    6.393000    0.114000
  N      0.388000    2.067000    0.025000
  N     -2.010000    0.395000   -0.075000
  N     -0.388000   -2.074000   -0.027000
  N      2.010000   -0.401000    0.065000
  C     -1.960000    2.861000    0.024000
  C     -2.623000    1.615000   -0.018000
  C     -5.573000   -4.329000    1.066000
  C     -4.073000    1.471000    0.056000
  C     -4.106000   -2.756000   -0.026000
  C     -4.995000   -2.757000   -1.111000
  C     -6.132000   -3.542000   -1.076000
  C     -7.651000   -5.113000    0.040000
  C     -4.324000    0.141000    0.037000
  C     -3.025000   -0.520000   -0.048000
  C     -4.422000   -3.566000    1.075000
  N     -6.407000   -4.313000    0.001000
  C     -2.867000   -1.922000   -0.040000
  C     -1.650000   -2.624000   -0.027000
  C      3.568000   -6.142000   -1.040000
  C     -1.476000   -4.049000   -0.034000
  C      2.803000   -4.099000   -0.008000
  C      3.657000   -4.384000    1.069000
  C      4.427000   -5.530000    1.059000
  C      5.245000   -7.588000    0.014000
  C     -0.134000   -4.315000   -0.022000
  C      0.568000   -3.064000   -0.027000
  C      2.775000   -5.012000   -1.074000
  N      4.376000   -6.391000    0.017000
  C      1.959000   -2.869000   -0.009000
  C      2.621000   -1.622000    0.009000
  C      5.543000    4.339000   -1.130000
  C      4.070000   -1.479000   -0.094000
  C      4.104000    2.751000   -0.021000
  C      5.027000    2.729000    1.036000
  C      6.166000    3.509000    0.978000
  C      7.619000    5.153000   -0.115000
  C      4.321000   -0.148000   -0.092000
  C      3.025000    0.514000    0.015000
  C      4.387000    3.582000   -1.115000
  C      2.866000    1.916000    0.013000
  N      6.413000    4.296000   -0.095000
  H     -3.789000    6.752000   -1.850000
  H      2.274000    4.766000    0.081000
  H     -3.479000    3.846000    2.097000
  H     -4.856000    5.919000    2.072000
  H     -6.244000    7.305000   -0.124000
  H     -5.204000    8.018000    1.145000
  H     -4.841000    8.318000   -0.577000
  H     -0.332000    5.282000    0.069000
  H     -2.372000    4.712000   -1.988000
  H      0.182000    1.072000    0.005000
  H     -0.183000   -1.080000   -0.021000
  H     -5.864000   -4.962000    1.895000
  H     -4.794000    2.272000    0.139000
  H     -4.800000   -2.160000   -1.994000
  H     -6.841000   -3.582000   -1.893000
  H     -8.428000   -4.536000    0.546000
  H     -7.956000   -5.337000   -0.981000
  H     -7.456000   -6.037000    0.584000
  H     -5.287000   -0.344000    0.100000
  H     -3.780000   -3.601000    1.947000
  H      3.587000   -6.868000   -1.843000
  H     -2.276000   -4.774000   -0.050000
  H      3.714000   -3.724000    1.926000
  H      5.092000   -5.795000    1.871000
  H      6.205000   -7.329000   -0.439000
  H      5.393000   -7.917000    1.042000
  H      4.759000   -8.373000   -0.564000
  H      0.329000   -5.290000   -0.008000
  H      2.146000   -4.842000   -1.940000
  H      5.808000    4.986000   -1.956000
  H      4.788000   -2.281000   -0.185000
  H      4.860000    2.114000    1.912000
  H      6.901000    3.531000    1.772000
  H      7.383000    6.109000    0.356000
  H      8.414000    4.652000    0.435000
  H      7.921000    5.310000   -1.150000
  H      5.283000    0.336000   -0.179000
  H      3.720000    3.632000   -1.967000

 Total Charge           Charge          ....    0
 Multiplicity           Mult            ....    1
 Number of Electrons    NEL             ....  358
 Basis Dimension        Dim             ....  918

ORBITAL ENERGIES
----------------

  NO   OCC          E(Eh)            E(eV)
   0   2.0000     -15.674678      -426.5297
   1   2.0000     -15.635699      -425.4690
   2   2.0000     -15.625211      -425.1836
   3   2.0000     -15.601900      -424.5493
   4   2.0000     -15.518705      -422.2854
   5   2.0000     -15.510279      -422.0561
   6   2.0000     -15.447544      -420.3490
   7   2.0000     -15.434335      -419.9896
   8   2.0000     -11.323919      -308.1395
   9   2.0000     -11.323495      -308.1280
  10   2.0000     -11.321955      -308.0861
  11   2.0000     -11.300505      -307.5024
  12   2.0000     -11.294029      -307.3261
  13   2.0000     -11.293687      -307.3168
  14   2.0000     -11.288786      -307.1835
  15   2.0000     -11.285101      -307.0832
  16   2.0000     -11.279422      -306.9287
  17   2.0000     -11.279283      -306.9249
  18   2.0000     -11.274156      -306.7854
  19   2.0000     -11.264372      -306.5192
  20   2.0000     -11.261534      -306.4419
  21   2.0000     -11.258551      -306.3608
  22   2.0000     -11.258126      -306.3492
  23   2.0000     -11.239045      -305.8300
  24   2.0000     -11.231562      -305.6263
  25   2.0000     -11.230692      -305.6027
  26   2.0000     -11.229398      -305.5675
  27   2.0000     -11.223847      -305.4164
  28   2.0000     -11.223591      -305.4094
  29   2.0000     -11.208185      -304.9902
  30   2.0000     -11.206863      -304.9542
  31   2.0000     -11.206051      -304.9321
  32   2.0000     -11.203098      -304.8518
  33   2.0000     -11.202655      -304.8397
  34   2.0000     -11.188072      -304.4429
  35   2.0000     -11.187693      -304.4326
  36   2.0000     -11.183504      -304.3186
  37   2.0000     -11.182878      -304.3016
  38   2.0000     -11.181865      -304.2740
  39   2.0000     -11.167207      -303.8752
  40   2.0000     -11.166027      -303.8430
  41   2.0000     -11.164107      -303.7908
  42   2.0000     -11.159432      -303.6636
  43   2.0000     -11.156830      -303.5928
  44   2.0000     -11.156618      -303.5870
  45   2.0000     -11.156441      -303.5822
  46   2.0000     -11.152813      -303.4835
  47   2.0000     -11.151590      -303.4502
  48   2.0000     -11.147849      -303.3484
  49   2.0000     -11.142084      -303.1915
  50   2.0000     -11.128359      -302.8180
  51   2.0000     -11.125089      -302.7291
  52   2.0000      -1.355179       -36.8763
  53   2.0000      -1.322710       -35.9928
  54   2.0000      -1.313356       -35.7382
  55   2.0000      -1.293699       -35.2033
  56   2.0000      -1.219178       -33.1755
  57   2.0000      -1.206853       -32.8401
  58   2.0000      -1.168349       -31.7924
  59   2.0000      -1.146762       -31.2050
  60   2.0000      -1.137576       -30.9550
  61   2.0000      -1.110712       -30.2240
  62   2.0000      -1.102710       -30.0063
  63   2.0000      -1.085175       -29.5291
  64   2.0000      -1.076621       -29.2963
  65   2.0000      -1.046628       -28.4802
  66   2.0000      -1.038014       -28.2458
  67   2.0000      -1.035485       -28.1770
  68   2.0000      -1.019712       -27.7478
  69   2.0000      -1.013171       -27.5698
  70   2.0000      -1.006178       -27.3795
  71   2.0000      -0.990045       -26.9405
  72   2.0000      -0.984401       -26.7869
  73   2.0000      -0.976409       -26.5694
  74   2.0000      -0.969563       -26.3831
  75   2.0000      -0.959421       -26.1072
  76   2.0000      -0.950607       -25.8673
  77   2.0000      -0.946368       -25.7520
  78   2.0000      -0.929068       -25.2812
  79   2.0000      -0.919738       -25.0273
  80   2.0000      -0.903932       -24.5972
  81   2.0000      -0.888716       -24.1832
  82   2.0000      -0.874319       -23.7914
  83   2.0000      -0.867974       -23.6188
  84   2.0000      -0.865009       -23.5381
  85   2.0000      -0.852665       -23.2022
  86   2.0000      -0.845833       -23.0163
  87   2.0000      -0.833278       -22.6746
  88   2.0000      -0.822338       -22.3769
  89   2.0000      -0.796480       -21.6733
  90   2.0000      -0.793383       -21.5890
  91   2.0000      -0.748567       -20.3695
  92   2.0000      -0.734132       -19.9768
  93   2.0000      -0.727069       -19.7846
  94   2.0000      -0.721540       -19.6341
  95   2.0000      -0.716750       -19.5037
  96   2.0000      -0.710936       -19.3456
  97   2.0000      -0.706625       -19.2283
  98   2.0000      -0.700718       -19.0675
  99   2.0000      -0.694351       -18.8943
 100   2.0000      -0.693832       -18.8801
 101   2.0000      -0.682327       -18.5671
 102   2.0000      -0.679795       -18.4982
 103   2.0000      -0.677489       -18.4354
 104   2.0000      -0.672570       -18.3016
 105   2.0000      -0.668825       -18.1997
 106   2.0000      -0.666031       -18.1236
 107   2.0000      -0.656972       -17.8771
 108   2.0000      -0.654550       -17.8112
 109   2.0000      -0.652649       -17.7595
 110   2.0000      -0.648417       -17.6443
 111   2.0000      -0.646986       -17.6054
 112   2.0000      -0.641121       -17.4458
 113   2.0000      -0.640449       -17.4275
 114   2.0000      -0.634519       -17.2661
 115   2.0000      -0.630481       -17.1563
 116   2.0000      -0.622321       -16.9342
 117   2.0000      -0.615816       -16.7572
 118   2.0000      -0.613280       -16.6882
 119   2.0000      -0.609958       -16.5978
 120   2.0000      -0.606695       -16.5090
 121   2.0000      -0.605718       -16.4824
 122   2.0000      -0.596397       -16.2288
 123   2.0000      -0.589949       -16.0533
 124   2.0000      -0.588608       -16.0168
 125   2.0000      -0.582450       -15.8493
 126   2.0000      -0.576152       -15.6779
 127   2.0000      -0.573608       -15.6087
 128   2.0000      -0.566668       -15.4198
 129   2.0000      -0.560901       -15.2629
 130   2.0000      -0.557238       -15.1632
 131   2.0000      -0.547542       -14.8994
 132   2.0000      -0.541485       -14.7345
 133   2.0000      -0.538753       -14.6602
 134   2.0000      -0.534738       -14.5510
 135   2.0000      -0.532118       -14.4797
 136   2.0000      -0.521846       -14.2001
 137   2.0000      -0.519224       -14.1288
 138   2.0000      -0.514774       -14.0077
 139   2.0000      -0.512383       -13.9427
 140   2.0000      -0.511125       -13.9084
 141   2.0000      -0.507729       -13.8160
 142   2.0000      -0.503321       -13.6961
 143   2.0000      -0.499698       -13.5975
 144   2.0000      -0.496612       -13.5135
 145   2.0000      -0.495263       -13.4768
 146   2.0000      -0.493403       -13.4262
 147   2.0000      -0.486410       -13.2359
 148   2.0000      -0.482969       -13.1422
 149   2.0000      -0.465208       -12.6590
 150   2.0000      -0.462459       -12.5841
 151   2.0000      -0.455085       -12.3835
 152   2.0000      -0.449041       -12.2190
 153   2.0000      -0.442383       -12.0379
 154   2.0000      -0.440115       -11.9761
 155   2.0000      -0.438928       -11.9438
 156   2.0000      -0.428519       -11.6606
 157   2.0000      -0.422104       -11.4860
 158   2.0000      -0.399920       -10.8824
 159   2.0000      -0.382608       -10.4113
 160   2.0000      -0.382515       -10.4088
 161   2.0000      -0.373706       -10.1691
 162   2.0000      -0.362303        -9.8588
 163   2.0000      -0.357462        -9.7270
 164   2.0000      -0.350116        -9.5272
 165   2.0000      -0.338919        -9.2225
 166   2.0000      -0.336380        -9.1534
 167   2.0000      -0.334510        -9.1025
 168   2.0000      -0.320224        -8.7137
 169   2.0000      -0.299426        -8.1478
 170   2.0000      -0.297664        -8.0999
 171   2.0000      -0.285852        -7.7784
 172   2.0000      -0.282687        -7.6923
 173   2.0000      -0.260932        -7.1003
 174   2.0000      -0.238979        -6.5029
 175   2.0000      -0.185482        -5.0472
 176   2.0000      -0.175355        -4.7716
 177   2.0000      -0.062906        -1.7118
 178   2.0000      -0.051643        -1.4053
 179   0.0000       0.033643         0.9155
 180   0.0000       0.063971         1.7407
 181   0.0000       0.092126         2.5069
 182   0.0000       0.096230         2.6185
 183   0.0000       0.111239         3.0270

MULLIKEN ATOMIC CHARGES
-----------------------
   0 C :    0.222487
   1 N :   -0.426853
   2 C :   -0.066050
   3 N :   -0.340550
   4 C :   -0.073359
   5 N :   -0.565182
   6 C :   -0.038649
   7 N :   -0.336963
   8 C :    0.219928
   9 N :   -0.565058
  10 C :    0.108603
  11 N :   -0.438317
  12 C :   -0.062668
  13 N :   -0.446850
  14 C :    0.230701
  15 N :   -0.440848
  16 C :    0.246550
  17 C :   -0.044093
  18 C :   -0.194874
  19 C :    0.236497
  20 C :    0.197551
  21 C :   -0.074119
  22 C :   -0.087320
  23 C :   -0.059465
  24 C :    0.213942
  25 C :    0.114172
  26 C :   -0.069302
  27 C :    0.238136
  28 C :   -0.044586
  29 C :   -0.193461
  30 C :    0.226881
  31 C :    0.195876
  32 C :   -0.066515
  33 C :   -0.094863
  34 C :   -0.051063
  35 C :    0.188705
  36 C :    0.118405
  37 C :   -0.069076
  38 C :    0.240712
  39 C :   -0.063227
  40 C :   -0.198798
  41 C :    0.219125
  42 C :    0.209493
  43 C :   -0.075287
  44 C :   -0.089770
  45 C :   -0.043749
  46 C :    0.192786
  47 C :    0.116033
  48 C :   -0.078725
  49 C :    0.215523
  50 C :   -0.061292
  51 C :   -0.188604
  52 H :    0.070141
  53 H :   -0.010283
  54 H :    0.058147
  55 H :    0.068427
  56 H :    0.073385
  57 H :    0.067652
  58 H :    0.066049
  59 H :   -0.022145
  60 H :    0.056568
  61 H :    0.175511
  62 H :    0.169720
  63 H :    0.054983
  64 H :   -0.028180
  65 H :    0.044338
  66 H :    0.056829
  67 H :    0.060646
  68 H :    0.057364
  69 H :    0.059391
  70 H :   -0.018749
  71 H :    0.047778
  72 H :    0.044606
  73 H :   -0.018326
  74 H :    0.035870
  75 H :    0.043523
  76 H :    0.052089
  77 H :    0.050597
  78 H :    0.049883
  79 H :   -0.012767
  80 H :    0.035992
  81 H :    0.052141
  82 H :   -0.022587
  83 H :    0.043607
  84 H :    0.051566
  85 H :    0.056790
  86 H :    0.056769
  87 H :    0.055672
  88 H :   -0.027014
  89 H :    0.041452
Sum of atomic charges:   -0.0000000

LOEWDIN ATOMIC CHARGES
----------------------
   0 C :    0.019814
   1 N :    0.166725
   2 C :   -0.100162
   3 N :    0.174766
   4 C :    0.078796
   5 N :   -0.144500
   6 C :   -0.012736
   7 N :    0.177891
   8 C :    0.018294
   9 N :   -0.139003
  10 C :    0.034956
  11 N :    0.142723
  12 C :   -0.099130
  13 N :    0.124082
  14 C :   -0.054719
  15 N :    0.137269
  16 C :   -0.029413
  17 C :   -0.016018
  18 C :   -0.114416
  19 C :   -0.089061
  20 C :   -0.009144
  21 C :   -0.101239
  22 C :    0.040426
  23 C :   -0.027755
  24 C :    0.005551
  25 C :    0.029998
  26 C :   -0.097423
  27 C :   -0.070745
  28 C :   -0.016996
  29 C :   -0.115676
  30 C :   -0.057322
  31 C :   -0.016578
  32 C :   -0.102296
  33 C :    0.011166
  34 C :   -0.024586
  35 C :   -0.022882
  36 C :    0.025592
  37 C :   -0.106839
  38 C :   -0.035156
  39 C :   -0.030600
  40 C :   -0.111933
  41 C :   -0.091989
  42 C :   -0.000719
  43 C :   -0.109560
  44 C :    0.031870
  45 C :   -0.017044
  46 C :   -0.015147
  47 C :    0.028857
  48 C :   -0.109878
  49 C :   -0.106440
  50 C :   -0.029080
  51 C :   -0.107916
  52 H :    0.036738
  53 H :    0.006127
  54 H :    0.050715
  55 H :    0.036101
  56 H :    0.034013
  57 H :    0.035590
  58 H :    0.035639
  59 H :    0.001409
  60 H :    0.050147
  61 H :    0.061893
  62 H :    0.058793
  63 H :    0.029976
  64 H :   -0.003632
  65 H :    0.043668
  66 H :    0.030563
  67 H :    0.027533
  68 H :    0.031664
  69 H :    0.031526
  70 H :    0.000618
  71 H :    0.045693
  72 H :    0.025270
  73 H :    0.002182
  74 H :    0.040371
  75 H :    0.024470
  76 H :    0.023027
  77 H :    0.028022
  78 H :    0.027724
  79 H :    0.004993
  80 H :    0.039770
  81 H :    0.028609
  82 H :   -0.001264
  83 H :    0.044216
  84 H :    0.028041
  85 H :    0.025494
  86 H :    0.030591
  87 H :    0.030661
  88 H :   -0.003592
  89 H :    0.041965

  Mayer bond orders larger than 0.100000
B(  0-C ,  1-N ) :   1.1603 B(  0-C , 17-C ) :   1.5767 B(  0-C , 52-H ) :   0.9683
B(  1-N ,  8-C ) :   1.1554 B(  1-N , 10-C ) :   0.9432 B(  2-C , 12-C ) :   1.5579
B(  2-C , 16-C ) :   1.2987 B(  2-C , 53-H ) :   0.9786 B(  3-N , 14-C ) :   1.1868
B(  3-N , 16-C ) :   1.2009 B(  3-N , 61-H ) :   0.8965 B(  4-C ,  6-C ) :   1.3156
B(  4-C , 17-C ) :   1.3153 B(  4-C , 18-C ) :   1.1479 B(  5-N , 19-C ) :   1.3858
B(  5-N , 27-C ) :   1.4319 B(  6-C ,  8-C ) :   1.5759 B(  6-C , 54-H ) :   0.9710
B(  7-N , 30-C ) :   1.1895 B(  7-N , 38-C ) :   1.2092 B(  7-N , 62-H ) :   0.9002
B(  8-C , 55-H ) :   0.9689 B(  9-N , 41-C ) :   1.4255 B(  9-N , 49-C ) :   1.4003
B( 10-C , 56-H ) :   0.9763 B( 10-C , 57-H ) :   0.9812 B( 10-C , 58-H ) :   0.9827
B( 11-N , 20-C ) :   1.1113 B( 11-N , 24-C ) :   1.1320 B( 11-N , 25-C ) :   0.9594
B( 12-C , 14-C ) :   1.2985 B( 12-C , 59-H ) :   0.9774 B( 13-N , 31-C ) :   1.0978
B( 13-N , 35-C ) :   1.0901 B( 13-N , 36-C ) :   0.9732 B( 14-C , 18-C ) :   1.2310
B( 15-N , 42-C ) :   1.1235 B( 15-N , 46-C ) :   1.1016 B( 15-N , 47-C ) :   0.9638
B( 16-C , 51-C ) :   1.2222 B( 17-C , 60-H ) :   0.9715 B( 18-C , 19-C ) :   1.2709
B( 19-C , 21-C ) :   1.1831 B( 20-C , 28-C ) :   1.6244 B( 20-C , 63-H ) :   0.9706
B( 21-C , 26-C ) :   1.6647 B( 21-C , 64-H ) :   0.9723 B( 22-C , 23-C ) :   1.2695
B( 22-C , 28-C ) :   1.2792 B( 22-C , 29-C ) :   1.2453 B( 23-C , 24-C ) :   1.6256
B( 23-C , 65-H ) :   0.9716 B( 24-C , 66-H ) :   0.9690 B( 25-C , 67-H ) :   0.9763
B( 25-C , 68-H ) :   0.9832 B( 25-C , 69-H ) :   0.9820 B( 26-C , 27-C ) :   1.1886
B( 26-C , 70-H ) :   0.9746 B( 27-C , 29-C ) :   1.2369 B( 28-C , 71-H ) :   0.9711
B( 29-C , 30-C ) :   1.1874 B( 30-C , 32-C ) :   1.3379 B( 31-C , 39-C ) :   1.6625
B( 31-C , 72-H ) :   0.9705 B( 32-C , 37-C ) :   1.5205 B( 32-C , 73-H ) :   0.9773
B( 33-C , 34-C ) :   1.2493 B( 33-C , 39-C ) :   1.2427 B( 33-C , 40-C ) :   1.3127
B( 34-C , 35-C ) :   1.6605 B( 34-C , 74-H ) :   0.9709 B( 35-C , 75-H ) :   0.9704
B( 36-C , 76-H ) :   0.9758 B( 36-C , 77-H ) :   0.9824 B( 36-C , 78-H ) :   0.9835
B( 37-C , 38-C ) :   1.3359 B( 37-C , 79-H ) :   0.9786 B( 38-C , 40-C ) :   1.1880
B( 39-C , 80-H ) :   0.9719 B( 40-C , 41-C ) :   1.1906 B( 41-C , 43-C ) :   1.2359
B( 42-C , 50-C ) :   1.6365 B( 42-C , 81-H ) :   0.9696 B( 43-C , 48-C ) :   1.6155
B( 43-C , 82-H ) :   0.9749 B( 44-C , 45-C ) :   1.2785 B( 44-C , 50-C ) :   1.2582
B( 44-C , 51-C ) :   1.2483 B( 45-C , 46-C ) :   1.6308 B( 45-C , 83-H ) :   0.9706
B( 46-C , 84-H ) :   0.9705 B( 47-C , 85-H ) :   0.9760 B( 47-C , 86-H ) :   0.9826
B( 47-C , 87-H ) :   0.9828 B( 48-C , 49-C ) :   1.2321 B( 48-C , 88-H ) :   0.9731
B( 49-C , 51-C ) :   1.2072 B( 50-C , 89-H ) :   0.9718

MP2 TOTAL ENERGY:    -2130.897008509 Eh
FINAL SINGLE POINT ENERGY     -2130.897008509277

DIPOLE MOMENT
-------------
                                X             Y             Z
Electronic contribution:     -2.60540       2.64119      -0.14718
Nuclear contribution   :     -0.04023       0.15888       0.18979
                        -----------------------------------------
Total Dipole Moment    :     -2.64563       2.80007       0.04261
                        -----------------------------------------
Magnitude (a.u.)       :      3.85247
Magnitude (Debye)      :      9.79221

Rotational constants in cm-1:     0.001498     0.001473     0.000763
Rotational constants in MHz :    44.918813    44.153915    22.859525

                             ****ORCA TERMINATED NORMALLY****
TOTAL RUN TIME: 0 days 1 hours 32 minutes 52 seconds 412 msec
