                         Program Version 5.0.4 -  RELEASE  -
|  1> ! PAL2
|  2> ! mp2 cc-pvdz TightSCF  NoKeepInts
|  3>
|  4> %scf
|  5>   MaxCore 2000
|  6> end
|  7> %mp2
|  8>   MaxCore 2000
|  9> end
| 10> * xyz 0 1
| 11>    C       -4.94300         5.18600         0.25900
| 12>    C        1.47400         4.04100         0.05700
| 13>    C       -2.80200         4.09300         0.04900
| 14>    C       -2.23000         5.36100        -0.13600
| 15>    C       -3.02500         6.49000        -0.11500
| 16>    C       -5.17900         7.62500         0.13200
| 17>    C        0.13200         4.30700         0.06100
| 18>    C       -0.56900         3.05600         0.04700
| 19>    C        1.64900         2.61800         0.02300
| 20>    C       -4.18900         4.02900         0.25200
| 21>    N       -4.36100         6.39300         0.07700
| 22>    N        0.38800         2.06700         0.02500
| 23>    N       -2.01000         0.39500        -0.07500
| 24>    N       -0.38800        -2.07400        -0.02700
| 25>    N        2.01000        -0.40100         0.06500
| 26>    C       -1.96000         2.86100         0.02400
| 27>    C       -2.62300         1.61500        -0.01800
| 28>    C       -5.57300        -4.32900         1.06600
| 29>    C       -4.07300         1.47100         0.05600
| 30>    C       -4.10600        -2.75600        -0.02600
| 31>    C       -4.99500        -2.75700        -1.11100
| 32>    C       -6.13200        -3.54200        -1.07600
| 33>    C       -7.65100        -5.11300         0.04000
| 34>    C       -4.32400         0.14100         0.03700
| 35>    C       -3.02500        -0.52000        -0.04800
| 36>    C       -4.42200        -3.56600         1.07500
| 37>    N       -6.40700        -4.31300         0.00100
| 38>    C       -2.86700        -1.92200        -0.04000
| 39>    C       -1.65000        -2.62400        -0.02700
| 40>    C        3.56800        -6.14200        -1.04000
| 41>    C       -1.47600        -4.04900        -0.03400
| 42>    C        2.80300        -4.09900        -0.00800
| 43>    C        3.65700        -4.38400         1.06900
| 44>    C        4.42700        -5.53000         1.05900
| 45>    C        5.24500        -7.58800         0.01400
| 46>    C       -0.13400        -4.31500        -0.02200
| 47>    C        0.56800        -3.06400        -0.02700
| 48>    C        2.77500        -5.01200        -1.07400
| 49>    N        4.37600        -6.39100         0.01700
| 50>    C        1.95900        -2.86900        -0.00900
| 51>    C        2.62100        -1.62200         0.00900
| 52>    C        5.54300         4.33900        -1.13000
| 53>    C        4.07000        -1.47900        -0.09400
| 54>    C        4.10400         2.75100        -0.02100
| 55>    C        5.02700         2.72900         1.03600
| 56>    C        6.16600         3.50900         0.97800
| 57>    C        7.61900         5.15300        -0.11500
| 58>    C        4.32100        -0.14800        -0.09200
| 59>    C        3.02500         0.51400         0.01500
| 60>    C        4.38700         3.58200        -1.11500
| 61>    C        2.86600         1.91600         0.01300
| 62>    N        6.41300         4.29600        -0.09500
| 63>    H       -6.01700         5.18300         0.40000
| 64>    H        2.27400         4.76600         0.08100
| 65>    H       -1.16400         5.47700        -0.28800
| 66>    H       -2.62800         7.48900        -0.24500
| 67>    H       -5.16600         8.01500         1.15200
| 68>    H       -4.75700         8.35800        -0.55600
| 69>    H       -6.20000         7.38100        -0.16200
| 70>    H       -0.33200         5.28200         0.06900
| 71>    H       -4.69200         3.07800         0.38700
| 72>    H        0.18200         1.07200         0.00500
| 73>    H       -0.18300        -1.08000        -0.02100
| 74>    H       -5.86400        -4.96200         1.89500
| 75>    H       -4.79400         2.27200         0.13900
| 76>    H       -4.80000        -2.16000        -1.99400
| 77>    H       -6.84100        -3.58200        -1.89300
| 78>    H       -8.42800        -4.53600         0.54600
| 79>    H       -7.95600        -5.33700        -0.98100
| 80>    H       -7.45600        -6.03700         0.58400
| 81>    H       -5.28700        -0.34400         0.10000
| 82>    H       -3.78000        -3.60100         1.94700
| 83>    H        3.58700        -6.86800        -1.84300
| 84>    H       -2.27600        -4.77400        -0.05000
| 85>    H        3.71400        -3.72400         1.92600
| 86>    H        5.09200        -5.79500         1.87100
| 87>    H        6.20500        -7.32900        -0.43900
| 88>    H        5.39300        -7.91700         1.04200
| 89>    H        4.75900        -8.37300        -0.56400
| 90>    H        0.32900        -5.29000        -0.00800
| 91>    H        2.14600        -4.84200        -1.94000
| 92>    H        5.80800         4.98600        -1.95600
| 93>    H        4.78800        -2.28100        -0.18500
| 94>    H        4.86000         2.11400         1.91200
| 95>    H        6.90100         3.53100         1.77200
| 96>    H        7.38300         6.10900         0.35600
| 97>    H        8.41400         4.65200         0.43500
| 98>    H        7.92100         5.31000        -1.15000
| 99>    H        5.28300         0.33600        -0.17900
|100>    H        3.72000         3.63200        -1.96700
|101> *
|102>
|103>                          ****END OF INPUT****

CARTESIAN COORDINATES (ANGSTROEM)
---------------------------------
  C     -4.943000    5.186000    0.259000
  C      1.474000    4.041000    0.057000
  C     -2.802000    4.093000    0.049000
  C     -2.230000    5.361000   -0.136000
  C     -3.025000    6.490000   -0.115000
  C     -5.179000    7.625000    0.132000
  C      0.132000    4.307000    0.061000
  C     -0.569000    3.056000    0.047000
  C      1.649000    2.618000    0.023000
  C     -4.189000    4.029000    0.252000
  N     -4.361000    6.393000    0.077000
  N      0.388000    2.067000    0.025000
  N     -2.010000    0.395000   -0.075000
  N     -0.388000   -2.074000   -0.027000
  N      2.010000   -0.401000    0.065000
  C     -1.960000    2.861000    0.024000
  C     -2.623000    1.615000   -0.018000
  C     -5.573000   -4.329000    1.066000
  C     -4.073000    1.471000    0.056000
  C     -4.106000   -2.756000   -0.026000
  C     -4.995000   -2.757000   -1.111000
  C     -6.132000   -3.542000   -1.076000
  C     -7.651000   -5.113000    0.040000
  C     -4.324000    0.141000    0.037000
  C     -3.025000   -0.520000   -0.048000
  C     -4.422000   -3.566000    1.075000
  N     -6.407000   -4.313000    0.001000
  C     -2.867000   -1.922000   -0.040000
  C     -1.650000   -2.624000   -0.027000
  C      3.568000   -6.142000   -1.040000
  C     -1.476000   -4.049000   -0.034000
  C      2.803000   -4.099000   -0.008000
  C      3.657000   -4.384000    1.069000
  C      4.427000   -5.530000    1.059000
  C      5.245000   -7.588000    0.014000
  C     -0.134000   -4.315000   -0.022000
  C      0.568000   -3.064000   -0.027000
  C      2.775000   -5.012000   -1.074000
  N      4.376000   -6.391000    0.017000
  C      1.959000   -2.869000   -0.009000
  C      2.621000   -1.622000    0.009000
  C      5.543000    4.339000   -1.130000
  C      4.070000   -1.479000   -0.094000
  C      4.104000    2.751000   -0.021000
  C      5.027000    2.729000    1.036000
  C      6.166000    3.509000    0.978000
  C      7.619000    5.153000   -0.115000
  C      4.321000   -0.148000   -0.092000
  C      3.025000    0.514000    0.015000
  C      4.387000    3.582000   -1.115000
  C      2.866000    1.916000    0.013000
  N      6.413000    4.296000   -0.095000
  H     -6.017000    5.183000    0.400000
  H      2.274000    4.766000    0.081000
  H     -1.164000    5.477000   -0.288000
  H     -2.628000    7.489000   -0.245000
  H     -5.166000    8.015000    1.152000
  H     -4.757000    8.358000   -0.556000
  H     -6.200000    7.381000   -0.162000
  H     -0.332000    5.282000    0.069000
  H     -4.692000    3.078000    0.387000
  H      0.182000    1.072000    0.005000
  H     -0.183000   -1.080000   -0.021000
  H     -5.864000   -4.962000    1.895000
  H     -4.794000    2.272000    0.139000
  H     -4.800000   -2.160000   -1.994000
  H     -6.841000   -3.582000   -1.893000
  H     -8.428000   -4.536000    0.546000
  H     -7.956000   -5.337000   -0.981000
  H     -7.456000   -6.037000    0.584000
  H     -5.287000   -0.344000    0.100000
  H     -3.780000   -3.601000    1.947000
  H      3.587000   -6.868000   -1.843000
  H     -2.276000   -4.774000   -0.050000
  H      3.714000   -3.724000    1.926000
  H      5.092000   -5.795000    1.871000
  H      6.205000   -7.329000   -0.439000
  H      5.393000   -7.917000    1.042000
  H      4.759000   -8.373000   -0.564000
  H      0.329000   -5.290000   -0.008000
  H      2.146000   -4.842000   -1.940000
  H      5.808000    4.986000   -1.956000
  H      4.788000   -2.281000   -0.185000
  H      4.860000    2.114000    1.912000
  H      6.901000    3.531000    1.772000
  H      7.383000    6.109000    0.356000
  H      8.414000    4.652000    0.435000
  H      7.921000    5.310000   -1.150000
  H      5.283000    0.336000   -0.179000
  H      3.720000    3.632000   -1.967000

 Total Charge           Charge          ....    0
 Multiplicity           Mult            ....    1
 Number of Electrons    NEL             ....  358
 Basis Dimension        Dim             ....  918

ORBITAL ENERGIES
----------------

  NO   OCC          E(Eh)            E(eV)
   0   2.0000     -15.679776      -426.6684
   1   2.0000     -15.633621      -425.4125
   2   2.0000     -15.632159      -425.3727
   3   2.0000     -15.588397      -424.1818
   4   2.0000     -15.525009      -422.4570
   5   2.0000     -15.515535      -422.1992
   6   2.0000     -15.453804      -420.5194
   7   2.0000     -15.439480      -420.1296
   8   2.0000     -11.329370      -308.2878
   9   2.0000     -11.328371      -308.2606
  10   2.0000     -11.327912      -308.2482
  11   2.0000     -11.299109      -307.4644
  12   2.0000     -11.298572      -307.4498
  13   2.0000     -11.292735      -307.2910
  14   2.0000     -11.291480      -307.2568
  15   2.0000     -11.286825      -307.1301
  16   2.0000     -11.286195      -307.1130
  17   2.0000     -11.282015      -306.9992
  18   2.0000     -11.269924      -306.6702
  19   2.0000     -11.263319      -306.4905
  20   2.0000     -11.262324      -306.4634
  21   2.0000     -11.250960      -306.1542
  22   2.0000     -11.249185      -306.1059
  23   2.0000     -11.237397      -305.7851
  24   2.0000     -11.236919      -305.7721
  25   2.0000     -11.230872      -305.6076
  26   2.0000     -11.230131      -305.5874
  27   2.0000     -11.229972      -305.5831
  28   2.0000     -11.229809      -305.5786
  29   2.0000     -11.210948      -305.0654
  30   2.0000     -11.209497      -305.0259
  31   2.0000     -11.194196      -304.6096
  32   2.0000     -11.191937      -304.5481
  33   2.0000     -11.191337      -304.5318
  34   2.0000     -11.188458      -304.4534
  35   2.0000     -11.188200      -304.4464
  36   2.0000     -11.187026      -304.4145
  37   2.0000     -11.174571      -304.0755
  38   2.0000     -11.173848      -304.0559
  39   2.0000     -11.172066      -304.0074
  40   2.0000     -11.170868      -303.9748
  41   2.0000     -11.169360      -303.9337
  42   2.0000     -11.168263      -303.9039
  43   2.0000     -11.161905      -303.7309
  44   2.0000     -11.160840      -303.7019
  45   2.0000     -11.156727      -303.5900
  46   2.0000     -11.156487      -303.5834
  47   2.0000     -11.151556      -303.4493
  48   2.0000     -11.146957      -303.3241
  49   2.0000     -11.135297      -303.0068
  50   2.0000     -11.129610      -302.8521
  51   2.0000     -11.117608      -302.5255
  52   2.0000      -1.360359       -37.0173
  53   2.0000      -1.320914       -35.9439
  54   2.0000      -1.319898       -35.9162
  55   2.0000      -1.280595       -34.8468
  56   2.0000      -1.226086       -33.3635
  57   2.0000      -1.210410       -32.9369
  58   2.0000      -1.173479       -31.9320
  59   2.0000      -1.150684       -31.3117
  60   2.0000      -1.143616       -31.1194
  61   2.0000      -1.110229       -30.2109
  62   2.0000      -1.108965       -30.1765
  63   2.0000      -1.082043       -29.4439
  64   2.0000      -1.077563       -29.3220
  65   2.0000      -1.045108       -28.4388
  66   2.0000      -1.044535       -28.4232
  67   2.0000      -1.041085       -28.3294
  68   2.0000      -1.014892       -27.6166
  69   2.0000      -1.014374       -27.6025
  70   2.0000      -1.009134       -27.4599
  71   2.0000      -0.993476       -27.0338
  72   2.0000      -0.985618       -26.8200
  73   2.0000      -0.981760       -26.7150
  74   2.0000      -0.973710       -26.4960
  75   2.0000      -0.962225       -26.1835
  76   2.0000      -0.954767       -25.9805
  77   2.0000      -0.946429       -25.7536
  78   2.0000      -0.938760       -25.5450
  79   2.0000      -0.916900       -24.9501
  80   2.0000      -0.910550       -24.7773
  81   2.0000      -0.897800       -24.4304
  82   2.0000      -0.877002       -23.8644
  83   2.0000      -0.872061       -23.7300
  84   2.0000      -0.870916       -23.6988
  85   2.0000      -0.860950       -23.4276
  86   2.0000      -0.844721       -22.9860
  87   2.0000      -0.837380       -22.7863
  88   2.0000      -0.828735       -22.5510
  89   2.0000      -0.796476       -21.6732
  90   2.0000      -0.789178       -21.4746
  91   2.0000      -0.770960       -20.9789
  92   2.0000      -0.752993       -20.4900
  93   2.0000      -0.733867       -19.9695
  94   2.0000      -0.727680       -19.8012
  95   2.0000      -0.725755       -19.7488
  96   2.0000      -0.720068       -19.5940
  97   2.0000      -0.717610       -19.5272
  98   2.0000      -0.713762       -19.4225
  99   2.0000      -0.699087       -19.0231
 100   2.0000      -0.698290       -19.0014
 101   2.0000      -0.694252       -18.8915
 102   2.0000      -0.685360       -18.6496
 103   2.0000      -0.684300       -18.6208
 104   2.0000      -0.678854       -18.4726
 105   2.0000      -0.674490       -18.3538
 106   2.0000      -0.672745       -18.3063
 107   2.0000      -0.660860       -17.9829
 108   2.0000      -0.658198       -17.9105
 109   2.0000      -0.652761       -17.7625
 110   2.0000      -0.652164       -17.7463
 111   2.0000      -0.646168       -17.5831
 112   2.0000      -0.645642       -17.5688
 113   2.0000      -0.637953       -17.3596
 114   2.0000      -0.635904       -17.3038
 115   2.0000      -0.628575       -17.1044
 116   2.0000      -0.623105       -16.9555
 117   2.0000      -0.620969       -16.8974
 118   2.0000      -0.613012       -16.6809
 119   2.0000      -0.612074       -16.6554
 120   2.0000      -0.611813       -16.6483
 121   2.0000      -0.611396       -16.6369
 122   2.0000      -0.601472       -16.3669
 123   2.0000      -0.588914       -16.0252
 124   2.0000      -0.581454       -15.8222
 125   2.0000      -0.580916       -15.8075
 126   2.0000      -0.580310       -15.7910
 127   2.0000      -0.571118       -15.5409
 128   2.0000      -0.567068       -15.4307
 129   2.0000      -0.559915       -15.2361
 130   2.0000      -0.555193       -15.1076
 131   2.0000      -0.547854       -14.9079
 132   2.0000      -0.542734       -14.7685
 133   2.0000      -0.540559       -14.7094
 134   2.0000      -0.538690       -14.6585
 135   2.0000      -0.536220       -14.5913
 136   2.0000      -0.531786       -14.4706
 137   2.0000      -0.518641       -14.1129
 138   2.0000      -0.516716       -14.0606
 139   2.0000      -0.514636       -14.0040
 140   2.0000      -0.511957       -13.9311
 141   2.0000      -0.510129       -13.8813
 142   2.0000      -0.507923       -13.8213
 143   2.0000      -0.505222       -13.7478
 144   2.0000      -0.502507       -13.6739
 145   2.0000      -0.495870       -13.4933
 146   2.0000      -0.488489       -13.2925
 147   2.0000      -0.481468       -13.1014
 148   2.0000      -0.476970       -12.9790
 149   2.0000      -0.467685       -12.7263
 150   2.0000      -0.466308       -12.6889
 151   2.0000      -0.456455       -12.4208
 152   2.0000      -0.451514       -12.2863
 153   2.0000      -0.444989       -12.1088
 154   2.0000      -0.438307       -11.9269
 155   2.0000      -0.427655       -11.6371
 156   2.0000      -0.409392       -11.1401
 157   2.0000      -0.392863       -10.6904
 158   2.0000      -0.390069       -10.6143
 159   2.0000      -0.387578       -10.5465
 160   2.0000      -0.378428       -10.2976
 161   2.0000      -0.373790       -10.1713
 162   2.0000      -0.364373        -9.9151
 163   2.0000      -0.356504        -9.7010
 164   2.0000      -0.355993        -9.6871
 165   2.0000      -0.341854        -9.3023
 166   2.0000      -0.337626        -9.1873
 167   2.0000      -0.324581        -8.8323
 168   2.0000      -0.321576        -8.7505
 169   2.0000      -0.305279        -8.3071
 170   2.0000      -0.299346        -8.1456
 171   2.0000      -0.285799        -7.7770
 172   2.0000      -0.278514        -7.5787
 173   2.0000      -0.263572        -7.1722
 174   2.0000      -0.241944        -6.5836
 175   2.0000      -0.189995        -5.1700
 176   2.0000      -0.181235        -4.9316
 177   2.0000      -0.079844        -2.1727
 178   2.0000      -0.059675        -1.6238
 179   0.0000       0.028395         0.7727
 180   0.0000       0.065367         1.7787
 181   0.0000       0.090226         2.4552
 182   0.0000       0.106275         2.8919
 183   0.0000       0.116110         3.1595

MULLIKEN ATOMIC CHARGES
-----------------------
   0 C :    0.216663
   1 N :   -0.455224
   2 C :   -0.072872
   3 N :   -0.341673
   4 C :   -0.084999
   5 N :   -0.568405
   6 C :   -0.110965
   7 N :   -0.340967
   8 C :    0.219204
   9 N :   -0.562343
  10 C :    0.119049
  11 N :   -0.438503
  12 C :   -0.049167
  13 N :   -0.429345
  14 C :    0.217213
  15 N :   -0.440855
  16 C :    0.232676
  17 C :   -0.102180
  18 C :   -0.180023
  19 C :    0.214375
  20 C :    0.213625
  21 C :   -0.056631
  22 C :   -0.090949
  23 C :   -0.039467
  24 C :    0.193322
  25 C :    0.114649
  26 C :   -0.087002
  27 C :    0.217656
  28 C :   -0.061855
  29 C :   -0.181986
  30 C :    0.245595
  31 C :    0.230253
  32 C :   -0.061495
  33 C :   -0.060023
  34 C :   -0.051298
  35 C :    0.228741
  36 C :    0.108204
  37 C :   -0.064475
  38 C :    0.231078
  39 C :   -0.057560
  40 C :   -0.181665
  41 C :    0.226116
  42 C :    0.197387
  43 C :   -0.072532
  44 C :   -0.089278
  45 C :   -0.061577
  46 C :    0.211972
  47 C :    0.115295
  48 C :   -0.066632
  49 C :    0.238635
  50 C :   -0.046207
  51 C :   -0.193160
  52 H :    0.034334
  53 H :   -0.018103
  54 H :    0.042030
  55 H :    0.033765
  56 H :    0.049616
  57 H :    0.047047
  58 H :    0.047376
  59 H :   -0.016608
  60 H :    0.051657
  61 H :    0.171225
  62 H :    0.175472
  63 H :    0.055123
  64 H :   -0.038355
  65 H :    0.047078
  66 H :    0.055450
  67 H :    0.062290
  68 H :    0.057138
  69 H :    0.056242
  70 H :   -0.030775
  71 H :    0.044615
  72 H :    0.071459
  73 H :   -0.007934
  74 H :    0.060541
  75 H :    0.070915
  76 H :    0.075080
  77 H :    0.068106
  78 H :    0.067418
  79 H :   -0.016764
  80 H :    0.061488
  81 H :    0.054518
  82 H :   -0.024941
  83 H :    0.042116
  84 H :    0.054403
  85 H :    0.061062
  86 H :    0.055661
  87 H :    0.057341
  88 H :   -0.014420
  89 H :    0.046939
Sum of atomic charges:   -0.0000000

LOEWDIN ATOMIC CHARGES
----------------------
   0 C :   -0.020916
   1 N :    0.122019
   2 C :   -0.100606
   3 N :    0.182428
   4 C :   -0.011022
   5 N :   -0.134696
   6 C :   -0.027539
   7 N :    0.175058
   8 C :   -0.018472
   9 N :   -0.140687
  10 C :    0.022944
  11 N :    0.141694
  12 C :   -0.101000
  13 N :    0.166469
  14 C :   -0.015831
  15 N :    0.139084
  16 C :   -0.060769
  17 C :   -0.018165
  18 C :   -0.113290
  19 C :   -0.073367
  20 C :    0.004665
  21 C :   -0.098828
  22 C :    0.036897
  23 C :   -0.014472
  24 C :   -0.013095
  25 C :    0.029750
  26 C :   -0.107799
  27 C :   -0.117079
  28 C :   -0.027839
  29 C :   -0.099406
  30 C :   -0.029786
  31 C :    0.024443
  32 C :   -0.094291
  33 C :    0.082435
  34 C :   -0.015187
  35 C :    0.023449
  36 C :    0.035289
  37 C :   -0.094145
  38 C :   -0.052368
  39 C :   -0.017472
  40 C :   -0.108910
  41 C :   -0.091003
  42 C :   -0.010301
  43 C :   -0.099260
  44 C :    0.034222
  45 C :   -0.028176
  46 C :    0.002369
  47 C :    0.029574
  48 C :   -0.094639
  49 C :   -0.069357
  50 C :   -0.018580
  51 C :   -0.108541
  52 H :    0.022160
  53 H :    0.002502
  54 H :   -0.002033
  55 H :    0.022076
  56 H :    0.021937
  57 H :    0.026051
  58 H :    0.027069
  59 H :    0.004232
  60 H :   -0.011871
  61 H :    0.060247
  62 H :    0.061891
  63 H :    0.030665
  64 H :   -0.003766
  65 H :    0.045891
  66 H :    0.029145
  67 H :    0.028153
  68 H :    0.031582
  69 H :    0.030236
  70 H :   -0.004993
  71 H :    0.043385
  72 H :    0.037778
  73 H :    0.007174
  74 H :    0.050737
  75 H :    0.037478
  76 H :    0.034888
  77 H :    0.036237
  78 H :    0.035927
  79 H :    0.002885
  80 H :    0.050836
  81 H :    0.029142
  82 H :   -0.002774
  83 H :    0.042585
  84 H :    0.029992
  85 H :    0.027480
  86 H :    0.030238
  87 H :    0.031464
  88 H :    0.002426
  89 H :    0.045056

  Mayer bond orders larger than 0.100000
B(  0-C ,  1-N ) :   1.0938 B(  0-C , 17-C ) :   1.7263 B(  0-C , 52-H ) :   0.9606
B(  1-N ,  8-C ) :   1.0987 B(  1-N , 10-C ) :   0.9770 B(  2-C , 12-C ) :   1.4863
B(  2-C , 16-C ) :   1.3745 B(  2-C , 53-H ) :   0.9716 B(  3-N , 14-C ) :   1.2227
B(  3-N , 16-C ) :   1.1789 B(  3-N , 61-H ) :   0.8984 B(  4-C ,  6-C ) :   1.2225
B(  4-C , 17-C ) :   1.2207 B(  4-C , 18-C ) :   1.4782 B(  5-N , 19-C ) :   1.4621
B(  5-N , 27-C ) :   1.3692 B(  6-C ,  8-C ) :   1.7180 B(  6-C , 54-H ) :   0.8837
B(  7-N , 30-C ) :   1.1952 B(  7-N , 38-C ) :   1.1896 B(  7-N , 62-H ) :   0.8968
B(  8-C , 55-H ) :   0.9620 B(  9-N , 41-C ) :   1.3947 B(  9-N , 49-C ) :   1.4247
B( 10-C , 56-H ) :   0.9777 B( 10-C , 57-H ) :   0.9823 B( 10-C , 58-H ) :   0.9839
B( 11-N , 20-C ) :   1.1311 B( 11-N , 24-C ) :   1.1064 B( 11-N , 25-C ) :   0.9604
B( 12-C , 14-C ) :   1.3588 B( 12-C , 59-H ) :   0.9216 B( 13-N , 31-C ) :   1.1617
B( 13-N , 35-C ) :   1.1608 B( 13-N , 36-C ) :   0.9412 B( 14-C , 18-C ) :   1.1179
B( 15-N , 42-C ) :   1.1080 B( 15-N , 46-C ) :   1.1249 B( 15-N , 47-C ) :   0.9611
B( 16-C , 51-C ) :   1.1676 B( 17-C , 60-H ) :   0.8641 B( 18-C , 19-C ) :   1.1164
B( 19-C , 21-C ) :   1.2538 B( 20-C , 28-C ) :   1.6290 B( 20-C , 63-H ) :   0.9703
B( 21-C , 26-C ) :   1.5787 B( 21-C , 64-H ) :   0.9004 B( 22-C , 23-C ) :   1.2892
B( 22-C , 28-C ) :   1.2633 B( 22-C , 29-C ) :   1.2260 B( 23-C , 24-C ) :   1.6205
B( 23-C , 65-H ) :   0.9703 B( 24-C , 66-H ) :   0.9695 B( 25-C , 67-H ) :   0.9761
B( 25-C , 68-H ) :   0.9828 B( 25-C , 69-H ) :   0.9823 B( 26-C , 27-C ) :   1.2644
B( 26-C , 70-H ) :   0.9666 B( 27-C , 29-C ) :   1.2061 B( 28-C , 71-H ) :   0.9720
B( 29-C , 30-C ) :   1.2472 B( 30-C , 32-C ) :   1.2787 B( 31-C , 39-C ) :   1.5874
B( 31-C , 72-H ) :   0.9681 B( 32-C , 37-C ) :   1.5800 B( 32-C , 73-H ) :   0.9786
B( 33-C , 34-C ) :   1.3070 B( 33-C , 39-C ) :   1.3044 B( 33-C , 40-C ) :   1.1759
B( 34-C , 35-C ) :   1.5851 B( 34-C , 74-H ) :   0.9696 B( 35-C , 75-H ) :   0.9681
B( 36-C , 76-H ) :   0.9768 B( 36-C , 77-H ) :   0.9816 B( 36-C , 78-H ) :   0.9823
B( 37-C , 38-C ) :   1.2848 B( 37-C , 79-H ) :   0.9764 B( 38-C , 40-C ) :   1.2341
B( 39-C , 80-H ) :   0.9705 B( 40-C , 41-C ) :   1.2505 B( 41-C , 43-C ) :   1.1841
B( 42-C , 50-C ) :   1.6325 B( 42-C , 81-H ) :   0.9696 B( 43-C , 48-C ) :   1.6689
B( 43-C , 82-H ) :   0.9721 B( 44-C , 45-C ) :   1.2638 B( 44-C , 50-C ) :   1.2730
B( 44-C , 51-C ) :   1.2602 B( 45-C , 46-C ) :   1.6341 B( 45-C , 83-H ) :   0.9718
B( 46-C , 84-H ) :   0.9700 B( 47-C , 85-H ) :   0.9762 B( 47-C , 86-H ) :   0.9829
B( 47-C , 87-H ) :   0.9824 B( 48-C , 49-C ) :   1.1875 B( 48-C , 88-H ) :   0.9748
B( 49-C , 51-C ) :   1.2454 B( 50-C , 89-H ) :   0.9708 B( 60-H , 64-H ) :   0.1169

MP2 TOTAL ENERGY:    -2130.763031743 Eh
FINAL SINGLE POINT ENERGY     -2130.763031743473

DIPOLE MOMENT
-------------
                                X             Y             Z
Electronic contribution:      2.76982      -4.34459      -0.18902
Nuclear contribution   :      0.07017       0.23440       0.18846
                        -----------------------------------------
Total Dipole Moment    :      2.84000      -4.11020      -0.00057
                        -----------------------------------------
Magnitude (a.u.)       :      4.99593
Magnitude (Debye)      :     12.69864

Rotational constants in cm-1:     0.001501     0.001480     0.000760
Rotational constants in MHz :    45.011074    44.355368    22.782366

                             ****ORCA TERMINATED NORMALLY****
TOTAL RUN TIME: 0 days 1 hours 11 minutes 26 seconds 239 msec
