                         Program Version 5.0.4 -  RELEASE  -
|  1> ! PAL2
|  2> ! mp2 cc-pvdz TightSCF  NoKeepInts
|  3>
|  4> %scf
|  5>   MaxCore 2000
|  6> end
|  7> %mp2
|  8>   MaxCore 2000
|  9> end
| 10> * xyz 0 1
| 11>    C       -3.08600         6.46700        -0.28100
| 12>    C        1.47400         4.04100         0.05700
| 13>    C       -2.80200         4.09300         0.04900
| 14>    C       -4.14500         4.04100         0.45400
| 15>    C       -4.90800         5.19100         0.47600
| 16>    C       -5.23100         7.59000         0.11400
| 17>    C        0.13200         4.30700         0.06100
| 18>    C       -0.56900         3.05600         0.04700
| 19>    C        1.64900         2.61800         0.02300
| 20>    C       -2.28400         5.34300        -0.32500
| 21>    N       -4.37600         6.38200         0.11600
| 22>    N        0.38800         2.06700         0.02500
| 23>    N       -2.01000         0.39500        -0.07500
| 24>    N       -0.38800        -2.07400        -0.02700
| 25>    N        2.01000        -0.40100         0.06500
| 26>    C       -1.96000         2.86100         0.02400
| 27>    C       -2.62300         1.61500        -0.01800
| 28>    C       -5.57300        -4.32900         1.06600
| 29>    C       -4.07300         1.47100         0.05600
| 30>    C       -4.10600        -2.75600        -0.02600
| 31>    C       -4.99500        -2.75700        -1.11100
| 32>    C       -6.13200        -3.54200        -1.07600
| 33>    C       -7.65100        -5.11300         0.04000
| 34>    C       -4.32400         0.14100         0.03700
| 35>    C       -3.02500        -0.52000        -0.04800
| 36>    C       -4.42200        -3.56600         1.07500
| 37>    N       -6.40700        -4.31300         0.00100
| 38>    C       -2.86700        -1.92200        -0.04000
| 39>    C       -1.65000        -2.62400        -0.02700
| 40>    C        3.56800        -6.14200        -1.04000
| 41>    C       -1.47600        -4.04900        -0.03400
| 42>    C        2.80300        -4.09900        -0.00800
| 43>    C        3.65700        -4.38400         1.06900
| 44>    C        4.42700        -5.53000         1.05900
| 45>    C        5.24500        -7.58800         0.01400
| 46>    C       -0.13400        -4.31500        -0.02200
| 47>    C        0.56800        -3.06400        -0.02700
| 48>    C        2.77500        -5.01200        -1.07400
| 49>    N        4.37600        -6.39100         0.01700
| 50>    C        1.95900        -2.86900        -0.00900
| 51>    C        2.62100        -1.62200         0.00900
| 52>    C        5.54300         4.33900        -1.13000
| 53>    C        4.07000        -1.47900        -0.09400
| 54>    C        4.10400         2.75100        -0.02100
| 55>    C        5.02700         2.72900         1.03600
| 56>    C        6.16600         3.50900         0.97800
| 57>    C        7.61900         5.15300        -0.11500
| 58>    C        4.32100        -0.14800        -0.09200
| 59>    C        3.02500         0.51400         0.01500
| 60>    C        4.38700         3.58200        -1.11500
| 61>    C        2.86600         1.91600         0.01300
| 62>    N        6.41300         4.29600        -0.09500
| 63>    H       -2.72500         7.45300        -0.54800
| 64>    H        2.27400         4.76600         0.08100
| 65>    H       -4.60400         3.10400         0.74500
| 66>    H       -5.94900         5.19900         0.77300
| 67>    H       -5.75500         7.65300        -0.84200
| 68>    H       -5.94800         7.51400         0.93100
| 69>    H       -4.59800         8.46700         0.25200
| 70>    H       -0.33200         5.28200         0.06900
| 71>    H       -1.25100         5.45100        -0.63400
| 72>    H        0.18200         1.07200         0.00500
| 73>    H       -0.18300        -1.08000        -0.02100
| 74>    H       -5.86400        -4.96200         1.89500
| 75>    H       -4.79400         2.27200         0.13900
| 76>    H       -4.80000        -2.16000        -1.99400
| 77>    H       -6.84100        -3.58200        -1.89300
| 78>    H       -8.42800        -4.53600         0.54600
| 79>    H       -7.95600        -5.33700        -0.98100
| 80>    H       -7.45600        -6.03700         0.58400
| 81>    H       -5.28700        -0.34400         0.10000
| 82>    H       -3.78000        -3.60100         1.94700
| 83>    H        3.58700        -6.86800        -1.84300
| 84>    H       -2.27600        -4.77400        -0.05000
| 85>    H        3.71400        -3.72400         1.92600
| 86>    H        5.09200        -5.79500         1.87100
| 87>    H        6.20500        -7.32900        -0.43900
| 88>    H        5.39300        -7.91700         1.04200
| 89>    H        4.75900        -8.37300        -0.56400
| 90>    H        0.32900        -5.29000        -0.00800
| 91>    H        2.14600        -4.84200        -1.94000
| 92>    H        5.80800         4.98600        -1.95600
| 93>    H        4.78800        -2.28100        -0.18500
| 94>    H        4.86000         2.11400         1.91200
| 95>    H        6.90100         3.53100         1.77200
| 96>    H        7.38300         6.10900         0.35600
| 97>    H        8.41400         4.65200         0.43500
| 98>    H        7.92100         5.31000        -1.15000
| 99>    H        5.28300         0.33600        -0.17900
|100>    H        3.72000         3.63200        -1.96700
|101> *
|102>
|103>                          ****END OF INPUT****

CARTESIAN COORDINATES (ANGSTROEM)
---------------------------------
  C     -3.086000    6.467000   -0.281000
  C      1.474000    4.041000    0.057000
  C     -2.802000    4.093000    0.049000
  C     -4.145000    4.041000    0.454000
  C     -4.908000    5.191000    0.476000
  C     -5.231000    7.590000    0.114000
  C      0.132000    4.307000    0.061000
  C     -0.569000    3.056000    0.047000
  C      1.649000    2.618000    0.023000
  C     -2.284000    5.343000   -0.325000
  N     -4.376000    6.382000    0.116000
  N      0.388000    2.067000    0.025000
  N     -2.010000    0.395000   -0.075000
  N     -0.388000   -2.074000   -0.027000
  N      2.010000   -0.401000    0.065000
  C     -1.960000    2.861000    0.024000
  C     -2.623000    1.615000   -0.018000
  C     -5.573000   -4.329000    1.066000
  C     -4.073000    1.471000    0.056000
  C     -4.106000   -2.756000   -0.026000
  C     -4.995000   -2.757000   -1.111000
  C     -6.132000   -3.542000   -1.076000
  C     -7.651000   -5.113000    0.040000
  C     -4.324000    0.141000    0.037000
  C     -3.025000   -0.520000   -0.048000
  C     -4.422000   -3.566000    1.075000
  N     -6.407000   -4.313000    0.001000
  C     -2.867000   -1.922000   -0.040000
  C     -1.650000   -2.624000   -0.027000
  C      3.568000   -6.142000   -1.040000
  C     -1.476000   -4.049000   -0.034000
  C      2.803000   -4.099000   -0.008000
  C      3.657000   -4.384000    1.069000
  C      4.427000   -5.530000    1.059000
  C      5.245000   -7.588000    0.014000
  C     -0.134000   -4.315000   -0.022000
  C      0.568000   -3.064000   -0.027000
  C      2.775000   -5.012000   -1.074000
  N      4.376000   -6.391000    0.017000
  C      1.959000   -2.869000   -0.009000
  C      2.621000   -1.622000    0.009000
  C      5.543000    4.339000   -1.130000
  C      4.070000   -1.479000   -0.094000
  C      4.104000    2.751000   -0.021000
  C      5.027000    2.729000    1.036000
  C      6.166000    3.509000    0.978000
  C      7.619000    5.153000   -0.115000
  C      4.321000   -0.148000   -0.092000
  C      3.025000    0.514000    0.015000
  C      4.387000    3.582000   -1.115000
  C      2.866000    1.916000    0.013000
  N      6.413000    4.296000   -0.095000
  H     -2.725000    7.453000   -0.548000
  H      2.274000    4.766000    0.081000
  H     -4.604000    3.104000    0.745000
  H     -5.949000    5.199000    0.773000
  H     -5.755000    7.653000   -0.842000
  H     -5.948000    7.514000    0.931000
  H     -4.598000    8.467000    0.252000
  H     -0.332000    5.282000    0.069000
  H     -1.251000    5.451000   -0.634000
  H      0.182000    1.072000    0.005000
  H     -0.183000   -1.080000   -0.021000
  H     -5.864000   -4.962000    1.895000
  H     -4.794000    2.272000    0.139000
  H     -4.800000   -2.160000   -1.994000
  H     -6.841000   -3.582000   -1.893000
  H     -8.428000   -4.536000    0.546000
  H     -7.956000   -5.337000   -0.981000
  H     -7.456000   -6.037000    0.584000
  H     -5.287000   -0.344000    0.100000
  H     -3.780000   -3.601000    1.947000
  H      3.587000   -6.868000   -1.843000
  H     -2.276000   -4.774000   -0.050000
  H      3.714000   -3.724000    1.926000
  H      5.092000   -5.795000    1.871000
  H      6.205000   -7.329000   -0.439000
  H      5.393000   -7.917000    1.042000
  H      4.759000   -8.373000   -0.564000
  H      0.329000   -5.290000   -0.008000
  H      2.146000   -4.842000   -1.940000
  H      5.808000    4.986000   -1.956000
  H      4.788000   -2.281000   -0.185000
  H      4.860000    2.114000    1.912000
  H      6.901000    3.531000    1.772000
  H      7.383000    6.109000    0.356000
  H      8.414000    4.652000    0.435000
  H      7.921000    5.310000   -1.150000
  H      5.283000    0.336000   -0.179000
  H      3.720000    3.632000   -1.967000

 Total Charge           Charge          ....    0
 Multiplicity           Mult            ....    1
 Number of Electrons    NEL             ....  358
 Basis Dimension        Dim             ....  918

ORBITAL ENERGIES
----------------

  NO   OCC          E(Eh)            E(eV)
   0   2.0000     -15.678361      -426.6299
   1   2.0000     -15.633222      -425.4016
   2   2.0000     -15.632354      -425.3780
   3   2.0000     -15.588829      -424.1936
   4   2.0000     -15.524869      -422.4532
   5   2.0000     -15.515838      -422.2074
   6   2.0000     -15.453780      -420.5187
   7   2.0000     -15.439938      -420.1421
   8   2.0000     -11.328177      -308.2554
   9   2.0000     -11.327233      -308.2297
  10   2.0000     -11.327052      -308.2248
  11   2.0000     -11.298856      -307.4575
  12   2.0000     -11.298684      -307.4528
  13   2.0000     -11.292312      -307.2794
  14   2.0000     -11.291565      -307.2591
  15   2.0000     -11.287079      -307.1370
  16   2.0000     -11.285972      -307.1069
  17   2.0000     -11.280707      -306.9636
  18   2.0000     -11.270884      -306.6964
  19   2.0000     -11.262389      -306.4652
  20   2.0000     -11.261397      -306.4382
  21   2.0000     -11.253451      -306.2220
  22   2.0000     -11.250363      -306.1379
  23   2.0000     -11.237101      -305.7771
  24   2.0000     -11.236991      -305.7741
  25   2.0000     -11.230595      -305.6000
  26   2.0000     -11.230144      -305.5878
  27   2.0000     -11.230009      -305.5841
  28   2.0000     -11.229797      -305.5783
  29   2.0000     -11.210481      -305.0527
  30   2.0000     -11.209216      -305.0183
  31   2.0000     -11.195796      -304.6531
  32   2.0000     -11.190977      -304.5220
  33   2.0000     -11.190851      -304.5185
  34   2.0000     -11.188612      -304.4576
  35   2.0000     -11.188232      -304.4473
  36   2.0000     -11.186894      -304.4109
  37   2.0000     -11.182938      -304.3032
  38   2.0000     -11.178300      -304.1770
  39   2.0000     -11.174059      -304.0616
  40   2.0000     -11.171678      -303.9968
  41   2.0000     -11.171097      -303.9810
  42   2.0000     -11.167751      -303.8899
  43   2.0000     -11.161610      -303.7229
  44   2.0000     -11.160159      -303.6834
  45   2.0000     -11.156858      -303.5936
  46   2.0000     -11.156589      -303.5862
  47   2.0000     -11.154188      -303.5209
  48   2.0000     -11.147417      -303.3366
  49   2.0000     -11.136363      -303.0359
  50   2.0000     -11.129678      -302.8539
  51   2.0000     -11.117658      -302.5268
  52   2.0000      -1.359169       -36.9849
  53   2.0000      -1.320576       -35.9347
  54   2.0000      -1.320065       -35.9208
  55   2.0000      -1.281931       -34.8831
  56   2.0000      -1.225798       -33.3557
  57   2.0000      -1.210403       -32.9367
  58   2.0000      -1.173310       -31.9274
  59   2.0000      -1.150712       -31.3125
  60   2.0000      -1.142670       -31.0936
  61   2.0000      -1.110159       -30.2090
  62   2.0000      -1.108884       -30.1743
  63   2.0000      -1.080956       -29.4143
  64   2.0000      -1.078141       -29.3377
  65   2.0000      -1.044790       -28.4302
  66   2.0000      -1.044706       -28.4279
  67   2.0000      -1.040462       -28.3124
  68   2.0000      -1.014817       -27.6146
  69   2.0000      -1.013041       -27.5663
  70   2.0000      -1.009203       -27.4618
  71   2.0000      -0.993164       -27.0254
  72   2.0000      -0.986026       -26.8311
  73   2.0000      -0.981194       -26.6997
  74   2.0000      -0.972578       -26.4652
  75   2.0000      -0.961953       -26.1761
  76   2.0000      -0.954423       -25.9712
  77   2.0000      -0.945760       -25.7354
  78   2.0000      -0.936235       -25.4763
  79   2.0000      -0.917713       -24.9722
  80   2.0000      -0.909481       -24.7482
  81   2.0000      -0.895768       -24.3751
  82   2.0000      -0.875951       -23.8359
  83   2.0000      -0.871664       -23.7192
  84   2.0000      -0.870499       -23.6875
  85   2.0000      -0.858646       -23.3649
  86   2.0000      -0.842294       -22.9200
  87   2.0000      -0.835424       -22.7331
  88   2.0000      -0.826223       -22.4827
  89   2.0000      -0.797027       -21.6882
  90   2.0000      -0.789822       -21.4922
  91   2.0000      -0.755756       -20.5652
  92   2.0000      -0.751104       -20.4386
  93   2.0000      -0.733272       -19.9533
  94   2.0000      -0.726025       -19.7561
  95   2.0000      -0.722685       -19.6652
  96   2.0000      -0.717911       -19.5353
  97   2.0000      -0.715086       -19.4585
  98   2.0000      -0.711044       -19.3485
  99   2.0000      -0.697777       -18.9875
 100   2.0000      -0.696677       -18.9576
 101   2.0000      -0.689634       -18.7659
 102   2.0000      -0.684421       -18.6240
 103   2.0000      -0.683399       -18.5962
 104   2.0000      -0.678395       -18.4601
 105   2.0000      -0.674287       -18.3483
 106   2.0000      -0.671771       -18.2798
 107   2.0000      -0.660232       -17.9658
 108   2.0000      -0.657818       -17.9001
 109   2.0000      -0.652610       -17.7584
 110   2.0000      -0.651981       -17.7413
 111   2.0000      -0.645140       -17.5551
 112   2.0000      -0.644706       -17.5433
 113   2.0000      -0.637358       -17.3434
 114   2.0000      -0.637320       -17.3424
 115   2.0000      -0.628215       -17.0946
 116   2.0000      -0.622725       -16.9452
 117   2.0000      -0.621281       -16.9059
 118   2.0000      -0.612805       -16.6753
 119   2.0000      -0.611900       -16.6506
 120   2.0000      -0.611778       -16.6473
 121   2.0000      -0.610339       -16.6082
 122   2.0000      -0.601025       -16.3547
 123   2.0000      -0.587275       -15.9806
 124   2.0000      -0.581260       -15.8169
 125   2.0000      -0.580925       -15.8078
 126   2.0000      -0.579779       -15.7766
 127   2.0000      -0.571366       -15.5477
 128   2.0000      -0.568880       -15.4800
 129   2.0000      -0.559695       -15.2301
 130   2.0000      -0.552767       -15.0416
 131   2.0000      -0.547654       -14.9024
 132   2.0000      -0.542368       -14.7586
 133   2.0000      -0.541530       -14.7358
 134   2.0000      -0.538181       -14.6447
 135   2.0000      -0.536217       -14.5912
 136   2.0000      -0.530347       -14.4315
 137   2.0000      -0.520057       -14.1515
 138   2.0000      -0.516618       -14.0579
 139   2.0000      -0.514756       -14.0072
 140   2.0000      -0.512478       -13.9452
 141   2.0000      -0.510763       -13.8986
 142   2.0000      -0.508678       -13.8418
 143   2.0000      -0.504622       -13.7315
 144   2.0000      -0.502276       -13.6676
 145   2.0000      -0.496207       -13.5025
 146   2.0000      -0.490001       -13.3336
 147   2.0000      -0.482166       -13.1204
 148   2.0000      -0.478404       -13.0180
 149   2.0000      -0.467326       -12.7166
 150   2.0000      -0.466397       -12.6913
 151   2.0000      -0.457121       -12.4389
 152   2.0000      -0.451533       -12.2868
 153   2.0000      -0.444754       -12.1024
 154   2.0000      -0.439427       -11.9574
 155   2.0000      -0.427665       -11.6374
 156   2.0000      -0.414657       -11.2834
 157   2.0000      -0.407467       -11.0877
 158   2.0000      -0.393185       -10.6991
 159   2.0000      -0.386819       -10.5259
 160   2.0000      -0.386507       -10.5174
 161   2.0000      -0.378535       -10.3005
 162   2.0000      -0.369830       -10.0636
 163   2.0000      -0.356433        -9.6990
 164   2.0000      -0.355932        -9.6854
 165   2.0000      -0.341804        -9.3010
 166   2.0000      -0.337648        -9.1879
 167   2.0000      -0.324827        -8.8390
 168   2.0000      -0.321976        -8.7614
 169   2.0000      -0.304882        -8.2963
 170   2.0000      -0.299579        -8.1520
 171   2.0000      -0.285461        -7.7678
 172   2.0000      -0.279761        -7.6127
 173   2.0000      -0.263751        -7.1770
 174   2.0000      -0.241515        -6.5720
 175   2.0000      -0.189946        -5.1687
 176   2.0000      -0.180693        -4.9169
 177   2.0000      -0.078296        -2.1305
 178   2.0000      -0.059334        -1.6145
 179   0.0000       0.028325         0.7708
 180   0.0000       0.065533         1.7833
 181   0.0000       0.090500         2.4626
 182   0.0000       0.107166         2.9161
 183   0.0000       0.113619         3.0917

MULLIKEN ATOMIC CHARGES
-----------------------
   0 C :    0.213841
   1 N :   -0.455738
   2 C :   -0.070647
   3 N :   -0.339624
   4 C :   -0.053810
   5 N :   -0.566846
   6 C :   -0.108689
   7 N :   -0.340716
   8 C :    0.209086
   9 N :   -0.562121
  10 C :    0.118993
  11 N :   -0.438617
  12 C :   -0.070847
  13 N :   -0.429714
  14 C :    0.226340
  15 N :   -0.440818
  16 C :    0.229456
  17 C :   -0.121735
  18 C :   -0.186541
  19 C :    0.218710
  20 C :    0.213094
  21 C :   -0.075810
  22 C :   -0.091247
  23 C :   -0.039691
  24 C :    0.193523
  25 C :    0.114700
  26 C :   -0.088819
  27 C :    0.214392
  28 C :   -0.061654
  29 C :   -0.181346
  30 C :    0.246118
  31 C :    0.229418
  32 C :   -0.061981
  33 C :   -0.060842
  34 C :   -0.051428
  35 C :    0.228076
  36 C :    0.108398
  37 C :   -0.064249
  38 C :    0.230915
  39 C :   -0.057504
  40 C :   -0.181555
  41 C :    0.226168
  42 C :    0.197708
  43 C :   -0.072260
  44 C :   -0.089147
  45 C :   -0.061273
  46 C :    0.211859
  47 C :    0.115268
  48 C :   -0.066887
  49 C :    0.238763
  50 C :   -0.046426
  51 C :   -0.192479
  52 H :    0.037303
  53 H :   -0.017589
  54 H :    0.048133
  55 H :    0.036052
  56 H :    0.049418
  57 H :    0.047793
  58 H :    0.047075
  59 H :   -0.003126
  60 H :    0.045340
  61 H :    0.171210
  62 H :    0.175375
  63 H :    0.054931
  64 H :   -0.018047
  65 H :    0.047042
  66 H :    0.055416
  67 H :    0.062135
  68 H :    0.057071
  69 H :    0.056169
  70 H :   -0.030330
  71 H :    0.044426
  72 H :    0.070979
  73 H :   -0.008052
  74 H :    0.060075
  75 H :    0.070435
  76 H :    0.074631
  77 H :    0.067780
  78 H :    0.067113
  79 H :   -0.016648
  80 H :    0.061047
  81 H :    0.054546
  82 H :   -0.024688
  83 H :    0.042246
  84 H :    0.054489
  85 H :    0.061126
  86 H :    0.055741
  87 H :    0.057353
  88 H :   -0.014503
  89 H :    0.046769
Sum of atomic charges:   -0.0000000

LOEWDIN ATOMIC CHARGES
----------------------
   0 C :   -0.019090
   1 N :    0.119236
   2 C :   -0.101230
   3 N :    0.183045
   4 C :   -0.011347
   5 N :   -0.133752
   6 C :   -0.029950
   7 N :    0.175243
   8 C :   -0.023088
   9 N :   -0.140492
  10 C :    0.023475
  11 N :    0.141462
  12 C :   -0.114909
  13 N :    0.165629
  14 C :   -0.021217
  15 N :    0.139201
  16 C :   -0.060337
  17 C :   -0.043894
  18 C :   -0.107598
  19 C :   -0.077598
  20 C :    0.004127
  21 C :   -0.117187
  22 C :    0.036326
  23 C :   -0.014677
  24 C :   -0.012856
  25 C :    0.029702
  26 C :   -0.108804
  27 C :   -0.116359
  28 C :   -0.027756
  29 C :   -0.100303
  30 C :   -0.029638
  31 C :    0.023514
  32 C :   -0.094779
  33 C :    0.080851
  34 C :   -0.015423
  35 C :    0.022663
  36 C :    0.035106
  37 C :   -0.094122
  38 C :   -0.052547
  39 C :   -0.017593
  40 C :   -0.108433
  41 C :   -0.090800
  42 C :   -0.010014
  43 C :   -0.099150
  44 C :    0.034178
  45 C :   -0.027923
  46 C :    0.002296
  47 C :    0.029602
  48 C :   -0.094735
  49 C :   -0.069730
  50 C :   -0.018751
  51 C :   -0.108431
  52 H :    0.022969
  53 H :    0.002658
  54 H :    0.020661
  55 H :    0.022695
  56 H :    0.021780
  57 H :    0.026325
  58 H :    0.026991
  59 H :    0.009910
  60 H :    0.028052
  61 H :    0.060124
  62 H :    0.061808
  63 H :    0.030562
  64 H :    0.002681
  65 H :    0.045860
  66 H :    0.029143
  67 H :    0.028076
  68 H :    0.031551
  69 H :    0.030198
  70 H :   -0.004823
  71 H :    0.043314
  72 H :    0.037544
  73 H :    0.007107
  74 H :    0.050526
  75 H :    0.037250
  76 H :    0.034654
  77 H :    0.036083
  78 H :    0.035782
  79 H :    0.002941
  80 H :    0.050646
  81 H :    0.029163
  82 H :   -0.002650
  83 H :    0.042651
  84 H :    0.030024
  85 H :    0.027511
  86 H :    0.030274
  87 H :    0.031470
  88 H :    0.002377
  89 H :    0.044970

  Mayer bond orders larger than 0.100000
B(  0-C ,  1-N ) :   1.0979 B(  0-C , 17-C ) :   1.7074 B(  0-C , 52-H ) :   0.9650
B(  1-N ,  8-C ) :   1.0881 B(  1-N , 10-C ) :   0.9774 B(  2-C , 12-C ) :   1.4976
B(  2-C , 16-C ) :   1.3648 B(  2-C , 53-H ) :   0.9737 B(  3-N , 14-C ) :   1.2207
B(  3-N , 16-C ) :   1.1844 B(  3-N , 61-H ) :   0.8989 B(  4-C ,  6-C ) :   1.2124
B(  4-C , 17-C ) :   1.2138 B(  4-C , 18-C ) :   1.4599 B(  5-N , 19-C ) :   1.4557
B(  5-N , 27-C ) :   1.3744 B(  6-C ,  8-C ) :   1.7169 B(  6-C , 54-H ) :   0.9142
B(  7-N , 30-C ) :   1.1960 B(  7-N , 38-C ) :   1.1894 B(  7-N , 62-H ) :   0.8969
B(  8-C , 55-H ) :   0.9646 B(  9-N , 41-C ) :   1.3949 B(  9-N , 49-C ) :   1.4247
B( 10-C , 56-H ) :   0.9774 B( 10-C , 57-H ) :   0.9822 B( 10-C , 58-H ) :   0.9843
B( 11-N , 20-C ) :   1.1303 B( 11-N , 24-C ) :   1.1065 B( 11-N , 25-C ) :   0.9605
B( 12-C , 14-C ) :   1.3566 B( 12-C , 59-H ) :   0.9581 B( 13-N , 31-C ) :   1.1601
B( 13-N , 35-C ) :   1.1594 B( 13-N , 36-C ) :   0.9418 B( 14-C , 18-C ) :   1.1235
B( 15-N , 42-C ) :   1.1084 B( 15-N , 46-C ) :   1.1247 B( 15-N , 47-C ) :   0.9610
B( 16-C , 51-C ) :   1.1693 B( 17-C , 60-H ) :   0.9314 B( 18-C , 19-C ) :   1.1239
B( 19-C , 21-C ) :   1.2514 B( 20-C , 28-C ) :   1.6294 B( 20-C , 63-H ) :   0.9703
B( 21-C , 26-C ) :   1.5879 B( 21-C , 64-H ) :   0.9418 B( 22-C , 23-C ) :   1.2884
B( 22-C , 28-C ) :   1.2632 B( 22-C , 29-C ) :   1.2267 B( 23-C , 24-C ) :   1.6211
B( 23-C , 65-H ) :   0.9703 B( 24-C , 66-H ) :   0.9695 B( 25-C , 67-H ) :   0.9760
B( 25-C , 68-H ) :   0.9828 B( 25-C , 69-H ) :   0.9823 B( 26-C , 27-C ) :   1.2557
B( 26-C , 70-H ) :   0.9689 B( 27-C , 29-C ) :   1.2067 B( 28-C , 71-H ) :   0.9720
B( 29-C , 30-C ) :   1.2451 B( 30-C , 32-C ) :   1.2803 B( 31-C , 39-C ) :   1.5888
B( 31-C , 72-H ) :   0.9682 B( 32-C , 37-C ) :   1.5783 B( 32-C , 73-H ) :   0.9786
B( 33-C , 34-C ) :   1.3059 B( 33-C , 39-C ) :   1.3034 B( 33-C , 40-C ) :   1.1782
B( 34-C , 35-C ) :   1.5866 B( 34-C , 74-H ) :   0.9697 B( 35-C , 75-H ) :   0.9681
B( 36-C , 76-H ) :   0.9768 B( 36-C , 77-H ) :   0.9816 B( 36-C , 78-H ) :   0.9823
B( 37-C , 38-C ) :   1.2863 B( 37-C , 79-H ) :   0.9765 B( 38-C , 40-C ) :   1.2328
B( 39-C , 80-H ) :   0.9705 B( 40-C , 41-C ) :   1.2502 B( 41-C , 43-C ) :   1.1844
B( 42-C , 50-C ) :   1.6324 B( 42-C , 81-H ) :   0.9696 B( 43-C , 48-C ) :   1.6685
B( 43-C , 82-H ) :   0.9722 B( 44-C , 45-C ) :   1.2642 B( 44-C , 50-C ) :   1.2730
B( 44-C , 51-C ) :   1.2591 B( 45-C , 46-C ) :   1.6339 B( 45-C , 83-H ) :   0.9718
B( 46-C , 84-H ) :   0.9700 B( 47-C , 85-H ) :   0.9762 B( 47-C , 86-H ) :   0.9829
B( 47-C , 87-H ) :   0.9824 B( 48-C , 49-C ) :   1.1879 B( 48-C , 88-H ) :   0.9748
B( 49-C , 51-C ) :   1.2444 B( 50-C , 89-H ) :   0.9709

MP2 TOTAL ENERGY:    -2130.831137101 Eh
FINAL SINGLE POINT ENERGY     -2130.831137100503

DIPOLE MOMENT
-------------
                                X             Y             Z
Electronic contribution:      2.83447      -4.13508      -0.10459
Nuclear contribution   :     -0.04563       0.15578       0.12116
                        -----------------------------------------
Total Dipole Moment    :      2.78884      -3.97930       0.01657
                        -----------------------------------------
Magnitude (a.u.)       :      4.85930
Magnitude (Debye)      :     12.35135

Rotational constants in cm-1:     0.001503     0.001477     0.000760
Rotational constants in MHz :    45.051831    44.288347    22.789137

                             ****ORCA TERMINATED NORMALLY****
TOTAL RUN TIME: 0 days 1 hours 30 minutes 45 seconds 269 msec
