                         Program Version 5.0.4 -  RELEASE  -
|  1> ! PAL2
|  2> ! mp2 cc-pvdz TightSCF  NoKeepInts
|  3>
|  4> %scf
|  5>   MaxCore 2000
|  6> end
|  7> %mp2
|  8>   MaxCore 2000
|  9> end
| 10> * xyz 0 1
| 11>    C       -3.89100         5.88500         1.24300
| 12>    C        1.47400         4.04100         0.05700
| 13>    C       -2.80200         4.09300         0.04900
| 14>    C       -3.32900         4.63000        -1.13500
| 15>    C       -4.11100         5.76800        -1.09300
| 16>    C       -5.19400         7.61600         0.09100
| 17>    C        0.13200         4.30700         0.06100
| 18>    C       -0.56900         3.05600         0.04700
| 19>    C        1.64900         2.61800         0.02300
| 20>    C       -3.10000         4.75300         1.25100
| 21>    N       -4.38500         6.37700         0.08400
| 22>    N        0.38800         2.06700         0.02500
| 23>    N       -2.01000         0.39500        -0.07500
| 24>    N       -0.38800        -2.07400        -0.02700
| 25>    N        2.01000        -0.40100         0.06500
| 26>    C       -1.96000         2.86100         0.02400
| 27>    C       -2.62300         1.61500        -0.01800
| 28>    C       -5.57300        -4.32900         1.06600
| 29>    C       -4.07300         1.47100         0.05600
| 30>    C       -4.10600        -2.75600        -0.02600
| 31>    C       -4.99500        -2.75700        -1.11100
| 32>    C       -6.13200        -3.54200        -1.07600
| 33>    C       -7.65100        -5.11300         0.04000
| 34>    C       -4.32400         0.14100         0.03700
| 35>    C       -3.02500        -0.52000        -0.04800
| 36>    C       -4.42200        -3.56600         1.07500
| 37>    N       -6.40700        -4.31300         0.00100
| 38>    C       -2.86700        -1.92200        -0.04000
| 39>    C       -1.65000        -2.62400        -0.02700
| 40>    C        3.56800        -6.14200        -1.04000
| 41>    C       -1.47600        -4.04900        -0.03400
| 42>    C        2.80300        -4.09900        -0.00800
| 43>    C        3.65700        -4.38400         1.06900
| 44>    C        4.42700        -5.53000         1.05900
| 45>    C        5.24500        -7.58800         0.01400
| 46>    C       -0.13400        -4.31500        -0.02200
| 47>    C        0.56800        -3.06400        -0.02700
| 48>    C        2.77500        -5.01200        -1.07400
| 49>    N        4.37600        -6.39100         0.01700
| 50>    C        1.95900        -2.86900        -0.00900
| 51>    C        2.62100        -1.62200         0.00900
| 52>    C        5.54300         4.33900        -1.13000
| 53>    C        4.07000        -1.47900        -0.09400
| 54>    C        4.10400         2.75100        -0.02100
| 55>    C        5.02700         2.72900         1.03600
| 56>    C        6.16600         3.50900         0.97800
| 57>    C        7.61900         5.15300        -0.11500
| 58>    C        4.32100        -0.14800        -0.09200
| 59>    C        3.02500         0.51400         0.01500
| 60>    C        4.38700         3.58200        -1.11500
| 61>    C        2.86600         1.91600         0.01300
| 62>    N        6.41300         4.29600        -0.09500
| 63>    H       -4.15700         6.41900         2.14700
| 64>    H        2.27400         4.76600         0.08100
| 65>    H       -3.12700         4.17200        -2.09600
| 66>    H       -4.53200         6.22300        -1.98100
| 67>    H       -4.53600         8.47100        -0.07900
| 68>    H       -5.93900         7.55300        -0.70200
| 69>    H       -5.68500         7.70800         1.05900
| 70>    H       -0.33200         5.28200         0.06900
| 71>    H       -2.73400         4.37900         2.20100
| 72>    H        0.18200         1.07200         0.00500
| 73>    H       -0.18300        -1.08000        -0.02100
| 74>    H       -5.86400        -4.96200         1.89500
| 75>    H       -4.79400         2.27200         0.13900
| 76>    H       -4.80000        -2.16000        -1.99400
| 77>    H       -6.84100        -3.58200        -1.89300
| 78>    H       -8.42800        -4.53600         0.54600
| 79>    H       -7.95600        -5.33700        -0.98100
| 80>    H       -7.45600        -6.03700         0.58400
| 81>    H       -5.28700        -0.34400         0.10000
| 82>    H       -3.78000        -3.60100         1.94700
| 83>    H        3.58700        -6.86800        -1.84300
| 84>    H       -2.27600        -4.77400        -0.05000
| 85>    H        3.71400        -3.72400         1.92600
| 86>    H        5.09200        -5.79500         1.87100
| 87>    H        6.20500        -7.32900        -0.43900
| 88>    H        5.39300        -7.91700         1.04200
| 89>    H        4.75900        -8.37300        -0.56400
| 90>    H        0.32900        -5.29000        -0.00800
| 91>    H        2.14600        -4.84200        -1.94000
| 92>    H        5.80800         4.98600        -1.95600
| 93>    H        4.78800        -2.28100        -0.18500
| 94>    H        4.86000         2.11400         1.91200
| 95>    H        6.90100         3.53100         1.77200
| 96>    H        7.38300         6.10900         0.35600
| 97>    H        8.41400         4.65200         0.43500
| 98>    H        7.92100         5.31000        -1.15000
| 99>    H        5.28300         0.33600        -0.17900
|100>    H        3.72000         3.63200        -1.96700
|101> *
|102>
|103>                          ****END OF INPUT****

CARTESIAN COORDINATES (ANGSTROEM)
---------------------------------
  C     -3.891000    5.885000    1.243000
  C      1.474000    4.041000    0.057000
  C     -2.802000    4.093000    0.049000
  C     -3.329000    4.630000   -1.135000
  C     -4.111000    5.768000   -1.093000
  C     -5.194000    7.616000    0.091000
  C      0.132000    4.307000    0.061000
  C     -0.569000    3.056000    0.047000
  C      1.649000    2.618000    0.023000
  C     -3.100000    4.753000    1.251000
  N     -4.385000    6.377000    0.084000
  N      0.388000    2.067000    0.025000
  N     -2.010000    0.395000   -0.075000
  N     -0.388000   -2.074000   -0.027000
  N      2.010000   -0.401000    0.065000
  C     -1.960000    2.861000    0.024000
  C     -2.623000    1.615000   -0.018000
  C     -5.573000   -4.329000    1.066000
  C     -4.073000    1.471000    0.056000
  C     -4.106000   -2.756000   -0.026000
  C     -4.995000   -2.757000   -1.111000
  C     -6.132000   -3.542000   -1.076000
  C     -7.651000   -5.113000    0.040000
  C     -4.324000    0.141000    0.037000
  C     -3.025000   -0.520000   -0.048000
  C     -4.422000   -3.566000    1.075000
  N     -6.407000   -4.313000    0.001000
  C     -2.867000   -1.922000   -0.040000
  C     -1.650000   -2.624000   -0.027000
  C      3.568000   -6.142000   -1.040000
  C     -1.476000   -4.049000   -0.034000
  C      2.803000   -4.099000   -0.008000
  C      3.657000   -4.384000    1.069000
  C      4.427000   -5.530000    1.059000
  C      5.245000   -7.588000    0.014000
  C     -0.134000   -4.315000   -0.022000
  C      0.568000   -3.064000   -0.027000
  C      2.775000   -5.012000   -1.074000
  N      4.376000   -6.391000    0.017000
  C      1.959000   -2.869000   -0.009000
  C      2.621000   -1.622000    0.009000
  C      5.543000    4.339000   -1.130000
  C      4.070000   -1.479000   -0.094000
  C      4.104000    2.751000   -0.021000
  C      5.027000    2.729000    1.036000
  C      6.166000    3.509000    0.978000
  C      7.619000    5.153000   -0.115000
  C      4.321000   -0.148000   -0.092000
  C      3.025000    0.514000    0.015000
  C      4.387000    3.582000   -1.115000
  C      2.866000    1.916000    0.013000
  N      6.413000    4.296000   -0.095000
  H     -4.157000    6.419000    2.147000
  H      2.274000    4.766000    0.081000
  H     -3.127000    4.172000   -2.096000
  H     -4.532000    6.223000   -1.981000
  H     -4.536000    8.471000   -0.079000
  H     -5.939000    7.553000   -0.702000
  H     -5.685000    7.708000    1.059000
  H     -0.332000    5.282000    0.069000
  H     -2.734000    4.379000    2.201000
  H      0.182000    1.072000    0.005000
  H     -0.183000   -1.080000   -0.021000
  H     -5.864000   -4.962000    1.895000
  H     -4.794000    2.272000    0.139000
  H     -4.800000   -2.160000   -1.994000
  H     -6.841000   -3.582000   -1.893000
  H     -8.428000   -4.536000    0.546000
  H     -7.956000   -5.337000   -0.981000
  H     -7.456000   -6.037000    0.584000
  H     -5.287000   -0.344000    0.100000
  H     -3.780000   -3.601000    1.947000
  H      3.587000   -6.868000   -1.843000
  H     -2.276000   -4.774000   -0.050000
  H      3.714000   -3.724000    1.926000
  H      5.092000   -5.795000    1.871000
  H      6.205000   -7.329000   -0.439000
  H      5.393000   -7.917000    1.042000
  H      4.759000   -8.373000   -0.564000
  H      0.329000   -5.290000   -0.008000
  H      2.146000   -4.842000   -1.940000
  H      5.808000    4.986000   -1.956000
  H      4.788000   -2.281000   -0.185000
  H      4.860000    2.114000    1.912000
  H      6.901000    3.531000    1.772000
  H      7.383000    6.109000    0.356000
  H      8.414000    4.652000    0.435000
  H      7.921000    5.310000   -1.150000
  H      5.283000    0.336000   -0.179000
  H      3.720000    3.632000   -1.967000

 Total Charge           Charge          ....    0
 Multiplicity           Mult            ....    1
 Number of Electrons    NEL             ....  358
 Basis Dimension        Dim             ....  918

ORBITAL ENERGIES
----------------

  NO   OCC          E(Eh)            E(eV)
   0   2.0000     -15.708576      -427.4521
   1   2.0000     -15.630606      -425.3304
   2   2.0000     -15.620129      -425.0453
   3   2.0000     -15.582564      -424.0231
   4   2.0000     -15.519709      -422.3127
   5   2.0000     -15.505624      -421.9295
   6   2.0000     -15.450429      -420.4275
   7   2.0000     -15.428318      -419.8259
   8   2.0000     -11.348718      -308.8143
   9   2.0000     -11.348510      -308.8087
  10   2.0000     -11.343664      -308.6768
  11   2.0000     -11.303432      -307.5820
  12   2.0000     -11.297605      -307.4235
  13   2.0000     -11.291893      -307.2680
  14   2.0000     -11.290527      -307.2308
  15   2.0000     -11.282688      -307.0175
  16   2.0000     -11.282219      -307.0048
  17   2.0000     -11.279868      -306.9408
  18   2.0000     -11.279631      -306.9344
  19   2.0000     -11.273230      -306.7602
  20   2.0000     -11.266971      -306.5899
  21   2.0000     -11.248226      -306.0798
  22   2.0000     -11.244546      -305.9797
  23   2.0000     -11.234270      -305.7000
  24   2.0000     -11.228221      -305.5354
  25   2.0000     -11.227352      -305.5118
  26   2.0000     -11.224362      -305.4304
  27   2.0000     -11.219937      -305.3100
  28   2.0000     -11.219674      -305.3028
  29   2.0000     -11.208660      -305.0032
  30   2.0000     -11.207455      -304.9704
  31   2.0000     -11.192727      -304.5696
  32   2.0000     -11.192229      -304.5560
  33   2.0000     -11.191957      -304.5486
  34   2.0000     -11.190976      -304.5219
  35   2.0000     -11.190632      -304.5126
  36   2.0000     -11.188881      -304.4649
  37   2.0000     -11.182016      -304.2781
  38   2.0000     -11.181885      -304.2746
  39   2.0000     -11.174713      -304.0794
  40   2.0000     -11.166811      -303.8644
  41   2.0000     -11.165644      -303.8326
  42   2.0000     -11.163426      -303.7723
  43   2.0000     -11.160890      -303.7033
  44   2.0000     -11.159464      -303.6644
  45   2.0000     -11.146999      -303.3253
  46   2.0000     -11.146345      -303.3075
  47   2.0000     -11.142808      -303.2112
  48   2.0000     -11.140682      -303.1534
  49   2.0000     -11.133784      -302.9657
  50   2.0000     -11.118820      -302.5585
  51   2.0000     -11.113848      -302.4232
  52   2.0000      -1.382534       -37.6207
  53   2.0000      -1.318499       -35.8782
  54   2.0000      -1.308906       -35.6171
  55   2.0000      -1.277013       -34.7493
  56   2.0000      -1.222717       -33.2718
  57   2.0000      -1.201871       -32.7046
  58   2.0000      -1.175181       -31.9783
  59   2.0000      -1.158864       -31.5343
  60   2.0000      -1.138780       -30.9878
  61   2.0000      -1.107467       -30.1357
  62   2.0000      -1.101167       -29.9643
  63   2.0000      -1.098461       -29.8906
  64   2.0000      -1.070514       -29.1302
  65   2.0000      -1.051571       -28.6147
  66   2.0000      -1.042813       -28.3764
  67   2.0000      -1.033741       -28.1295
  68   2.0000      -1.014328       -27.6013
  69   2.0000      -1.004612       -27.3369
  70   2.0000      -1.003708       -27.3123
  71   2.0000      -0.992452       -27.0060
  72   2.0000      -0.984356       -26.7857
  73   2.0000      -0.978252       -26.6196
  74   2.0000      -0.964272       -26.2392
  75   2.0000      -0.961805       -26.1720
  76   2.0000      -0.951273       -25.8854
  77   2.0000      -0.941525       -25.6202
  78   2.0000      -0.927272       -25.2324
  79   2.0000      -0.921439       -25.0736
  80   2.0000      -0.914064       -24.8730
  81   2.0000      -0.889487       -24.2042
  82   2.0000      -0.883605       -24.0441
  83   2.0000      -0.869655       -23.6645
  84   2.0000      -0.861138       -23.4328
  85   2.0000      -0.847930       -23.0733
  86   2.0000      -0.831921       -22.6377
  87   2.0000      -0.828265       -22.5382
  88   2.0000      -0.821186       -22.3456
  89   2.0000      -0.794774       -21.6269
  90   2.0000      -0.787303       -21.4236
  91   2.0000      -0.766619       -20.8608
  92   2.0000      -0.733514       -19.9599
  93   2.0000      -0.732431       -19.9305
  94   2.0000      -0.727850       -19.8058
  95   2.0000      -0.721925       -19.6446
  96   2.0000      -0.716573       -19.4989
  97   2.0000      -0.707321       -19.2472
  98   2.0000      -0.704450       -19.1690
  99   2.0000      -0.700895       -19.0723
 100   2.0000      -0.695657       -18.9298
 101   2.0000      -0.689495       -18.7621
 102   2.0000      -0.684052       -18.6140
 103   2.0000      -0.674378       -18.3508
 104   2.0000      -0.673420       -18.3247
 105   2.0000      -0.668347       -18.1867
 106   2.0000      -0.663715       -18.0606
 107   2.0000      -0.663430       -18.0528
 108   2.0000      -0.652856       -17.7651
 109   2.0000      -0.650315       -17.6960
 110   2.0000      -0.648478       -17.6460
 111   2.0000      -0.643138       -17.5007
 112   2.0000      -0.640311       -17.4238
 113   2.0000      -0.636863       -17.3299
 114   2.0000      -0.630930       -17.1685
 115   2.0000      -0.628083       -17.0910
 116   2.0000      -0.626065       -17.0361
 117   2.0000      -0.618417       -16.8280
 118   2.0000      -0.612086       -16.6557
 119   2.0000      -0.610354       -16.6086
 120   2.0000      -0.609391       -16.5824
 121   2.0000      -0.601815       -16.3762
 122   2.0000      -0.590254       -16.0616
 123   2.0000      -0.586236       -15.9523
 124   2.0000      -0.585132       -15.9222
 125   2.0000      -0.579227       -15.7616
 126   2.0000      -0.575842       -15.6694
 127   2.0000      -0.574264       -15.6265
 128   2.0000      -0.571770       -15.5587
 129   2.0000      -0.563662       -15.3380
 130   2.0000      -0.556596       -15.1457
 131   2.0000      -0.546827       -14.8799
 132   2.0000      -0.541735       -14.7414
 133   2.0000      -0.539473       -14.6798
 134   2.0000      -0.533924       -14.5288
 135   2.0000      -0.530046       -14.4233
 136   2.0000      -0.518502       -14.1092
 137   2.0000      -0.515978       -14.0405
 138   2.0000      -0.514059       -13.9883
 139   2.0000      -0.512497       -13.9458
 140   2.0000      -0.510271       -13.8852
 141   2.0000      -0.503001       -13.6874
 142   2.0000      -0.501783       -13.6542
 143   2.0000      -0.499321       -13.5872
 144   2.0000      -0.495232       -13.4760
 145   2.0000      -0.493719       -13.4348
 146   2.0000      -0.490026       -13.3343
 147   2.0000      -0.475519       -12.9395
 148   2.0000      -0.473530       -12.8854
 149   2.0000      -0.465245       -12.6600
 150   2.0000      -0.462011       -12.5719
 151   2.0000      -0.460117       -12.5204
 152   2.0000      -0.451470       -12.2851
 153   2.0000      -0.441293       -12.0082
 154   2.0000      -0.434434       -11.8216
 155   2.0000      -0.432715       -11.7748
 156   2.0000      -0.420062       -11.4305
 157   2.0000      -0.414077       -11.2676
 158   2.0000      -0.412535       -11.2257
 159   2.0000      -0.403236       -10.9726
 160   2.0000      -0.382205       -10.4003
 161   2.0000      -0.370195       -10.0735
 162   2.0000      -0.354546        -9.6477
 163   2.0000      -0.353308        -9.6140
 164   2.0000      -0.346673        -9.4334
 165   2.0000      -0.340448        -9.2641
 166   2.0000      -0.338699        -9.2165
 167   2.0000      -0.321089        -8.7373
 168   2.0000      -0.313555        -8.5323
 169   2.0000      -0.302869        -8.2415
 170   2.0000      -0.298292        -8.1170
 171   2.0000      -0.283152        -7.7050
 172   2.0000      -0.277216        -7.5434
 173   2.0000      -0.265320        -7.2197
 174   2.0000      -0.230947        -6.2844
 175   2.0000      -0.183530        -4.9941
 176   2.0000      -0.173586        -4.7235
 177   2.0000      -0.062319        -1.6958
 178   2.0000      -0.051004        -1.3879
 179   0.0000       0.035103         0.9552
 180   0.0000       0.056931         1.5492
 181   0.0000       0.080658         2.1948
 182   0.0000       0.098180         2.6716
 183   0.0000       0.102196         2.7809

MULLIKEN ATOMIC CHARGES
-----------------------
   0 C :    0.232651
   1 N :   -0.414791
   2 C :   -0.066995
   3 N :   -0.343708
   4 C :   -0.072815
   5 N :   -0.565473
   6 C :   -0.028503
   7 N :   -0.336967
   8 C :    0.231755
   9 N :   -0.565989
  10 C :    0.104574
  11 N :   -0.439650
  12 C :   -0.058392
  13 N :   -0.450718
  14 C :    0.219600
  15 N :   -0.441567
  16 C :    0.255886
  17 C :   -0.029734
  18 C :   -0.174463
  19 C :    0.227736
  20 C :    0.188728
  21 C :   -0.066436
  22 C :   -0.090759
  23 C :   -0.067040
  24 C :    0.217224
  25 C :    0.114879
  26 C :   -0.066578
  27 C :    0.246888
  28 C :   -0.039958
  29 C :   -0.196454
  30 C :    0.221175
  31 C :    0.188603
  32 C :   -0.064451
  33 C :   -0.102118
  34 C :   -0.050243
  35 C :    0.178846
  36 C :    0.120864
  37 C :   -0.070412
  38 C :    0.244555
  39 C :   -0.065449
  40 C :   -0.203804
  41 C :    0.215936
  42 C :    0.211898
  43 C :   -0.077342
  44 C :   -0.091851
  45 C :   -0.038703
  46 C :    0.184812
  47 C :    0.116698
  48 C :   -0.082340
  49 C :    0.208045
  50 C :   -0.066911
  51 C :   -0.189104
  52 H :    0.080828
  53 H :   -0.007399
  54 H :    0.065418
  55 H :    0.079609
  56 H :    0.083615
  57 H :    0.075171
  58 H :    0.073906
  59 H :   -0.028908
  60 H :    0.066961
  61 H :    0.176949
  62 H :    0.167987
  63 H :    0.052780
  64 H :   -0.034300
  65 H :    0.040592
  66 H :    0.054846
  67 H :    0.058292
  68 H :    0.055938
  69 H :    0.058915
  70 H :   -0.013867
  71 H :    0.046679
  72 H :    0.037858
  73 H :   -0.019156
  74 H :    0.029758
  75 H :    0.036521
  76 H :    0.046513
  77 H :    0.046303
  78 H :    0.045525
  79 H :   -0.011649
  80 H :    0.029492
  81 H :    0.050444
  82 H :   -0.023216
  83 H :    0.042704
  84 H :    0.049366
  85 H :    0.054355
  86 H :    0.056373
  87 H :    0.054526
  88 H :   -0.030598
  89 H :    0.039240
Sum of atomic charges:   -0.0000000

LOEWDIN ATOMIC CHARGES
----------------------
   0 C :    0.035753
   1 N :    0.189687
   2 C :   -0.098982
   3 N :    0.171153
   4 C :    0.112806
   5 N :   -0.147407
   6 C :   -0.010695
   7 N :    0.177401
   8 C :    0.036335
   9 N :   -0.138395
  10 C :    0.039740
  11 N :    0.139437
  12 C :   -0.096518
  13 N :    0.114105
  14 C :   -0.061705
  15 N :    0.134816
  16 C :   -0.017824
  17 C :   -0.010554
  18 C :   -0.120095
  19 C :   -0.089840
  20 C :   -0.017902
  21 C :   -0.099007
  22 C :    0.033575
  23 C :   -0.033782
  24 C :    0.007395
  25 C :    0.029282
  26 C :   -0.092960
  27 C :   -0.055849
  28 C :   -0.014944
  29 C :   -0.117541
  30 C :   -0.064917
  31 C :   -0.025744
  32 C :   -0.100397
  33 C :   -0.005212
  34 C :   -0.026504
  35 C :   -0.034448
  36 C :    0.023251
  37 C :   -0.109771
  38 C :   -0.029001
  39 C :   -0.034406
  40 C :   -0.113298
  41 C :   -0.094234
  42 C :    0.000606
  43 C :   -0.114178
  44 C :    0.027674
  45 C :   -0.014471
  46 C :   -0.022955
  47 C :    0.028218
  48 C :   -0.115191
  49 C :   -0.116992
  50 C :   -0.033184
  51 C :   -0.108563
  52 H :    0.041490
  53 H :    0.007518
  54 H :    0.054976
  55 H :    0.041414
  56 H :    0.039355
  57 H :    0.039261
  58 H :    0.039279
  59 H :   -0.000554
  60 H :    0.055703
  61 H :    0.062527
  62 H :    0.057814
  63 H :    0.028716
  64 H :   -0.005084
  65 H :    0.041664
  66 H :    0.029878
  67 H :    0.026383
  68 H :    0.030996
  69 H :    0.031235
  70 H :    0.002941
  71 H :    0.045449
  72 H :    0.022219
  73 H :    0.001824
  74 H :    0.037899
  75 H :    0.021210
  76 H :    0.020173
  77 H :    0.026020
  78 H :    0.025702
  79 H :    0.005600
  80 H :    0.036956
  81 H :    0.028000
  82 H :   -0.001450
  83 H :    0.044110
  84 H :    0.026807
  85 H :    0.024327
  86 H :    0.030351
  87 H :    0.030115
  88 H :   -0.005307
  89 H :    0.040712

  Mayer bond orders larger than 0.100000
B(  0-C ,  1-N ) :   1.1966 B(  0-C , 17-C ) :   1.5272 B(  0-C , 52-H ) :   0.9669
B(  1-N ,  8-C ) :   1.1964 B(  1-N , 10-C ) :   0.9284 B(  2-C , 12-C ) :   1.5765
B(  2-C , 16-C ) :   1.2764 B(  2-C , 53-H ) :   0.9792 B(  3-N , 14-C ) :   1.1764
B(  3-N , 16-C ) :   1.2021 B(  3-N , 61-H ) :   0.8955 B(  4-C ,  6-C ) :   1.3512
B(  4-C , 17-C ) :   1.3526 B(  4-C , 18-C ) :   1.0676 B(  5-N , 19-C ) :   1.3677
B(  5-N , 27-C ) :   1.4462 B(  6-C ,  8-C ) :   1.5266 B(  6-C , 54-H ) :   0.9707
B(  7-N , 30-C ) :   1.1841 B(  7-N , 38-C ) :   1.2150 B(  7-N , 62-H ) :   0.9012
B(  8-C , 55-H ) :   0.9679 B(  9-N , 41-C ) :   1.4325 B(  9-N , 49-C ) :   1.3951
B( 10-C , 56-H ) :   0.9766 B( 10-C , 57-H ) :   0.9810 B( 10-C , 58-H ) :   0.9816
B( 11-N , 20-C ) :   1.0991 B( 11-N , 24-C ) :   1.1345 B( 11-N , 25-C ) :   0.9618
B( 12-C , 14-C ) :   1.2772 B( 12-C , 59-H ) :   0.9771 B( 13-N , 31-C ) :   1.0850
B( 13-N , 35-C ) :   1.0744 B( 13-N , 36-C ) :   0.9809 B( 14-C , 18-C ) :   1.2593
B( 15-N , 42-C ) :   1.1258 B( 15-N , 46-C ) :   1.0915 B( 15-N , 47-C ) :   0.9660
B( 16-C , 51-C ) :   1.2445 B( 17-C , 60-H ) :   0.9708 B( 18-C , 19-C ) :   1.3046
B( 19-C , 21-C ) :   1.1669 B( 20-C , 28-C ) :   1.6281 B( 20-C , 63-H ) :   0.9709
B( 21-C , 26-C ) :   1.6787 B( 21-C , 64-H ) :   0.9722 B( 22-C , 23-C ) :   1.2576
B( 22-C , 28-C ) :   1.2801 B( 22-C , 29-C ) :   1.2543 B( 23-C , 24-C ) :   1.6332
B( 23-C , 65-H ) :   0.9722 B( 24-C , 66-H ) :   0.9690 B( 25-C , 67-H ) :   0.9762
B( 25-C , 68-H ) :   0.9833 B( 25-C , 69-H ) :   0.9819 B( 26-C , 27-C ) :   1.1751
B( 26-C , 70-H ) :   0.9755 B( 27-C , 29-C ) :   1.2402 B( 28-C , 71-H ) :   0.9709
B( 29-C , 30-C ) :   1.1791 B( 30-C , 32-C ) :   1.3473 B( 31-C , 39-C ) :   1.6811
B( 31-C , 72-H ) :   0.9708 B( 32-C , 37-C ) :   1.5125 B( 32-C , 73-H ) :   0.9772
B( 33-C , 34-C ) :   1.2355 B( 33-C , 39-C ) :   1.2276 B( 33-C , 40-C ) :   1.3500
B( 34-C , 35-C ) :   1.6795 B( 34-C , 74-H ) :   0.9709 B( 35-C , 75-H ) :   0.9708
B( 36-C , 76-H ) :   0.9755 B( 36-C , 77-H ) :   0.9825 B( 36-C , 78-H ) :   0.9838
B( 37-C , 38-C ) :   1.3417 B( 37-C , 79-H ) :   0.9792 B( 38-C , 40-C ) :   1.1812
B( 39-C , 80-H ) :   0.9721 B( 40-C , 41-C ) :   1.1712 B( 41-C , 43-C ) :   1.2544
B( 42-C , 50-C ) :   1.6412 B( 42-C , 81-H ) :   0.9696 B( 43-C , 48-C ) :   1.5966
B( 43-C , 82-H ) :   0.9755 B( 44-C , 45-C ) :   1.2804 B( 44-C , 50-C ) :   1.2506
B( 44-C , 51-C ) :   1.2482 B( 45-C , 46-C ) :   1.6326 B( 45-C , 83-H ) :   0.9703
B( 46-C , 84-H ) :   0.9708 B( 47-C , 85-H ) :   0.9760 B( 47-C , 86-H ) :   0.9826
B( 47-C , 87-H ) :   0.9830 B( 48-C , 49-C ) :   1.2490 B( 48-C , 88-H ) :   0.9726
B( 49-C , 51-C ) :   1.1904 B( 50-C , 89-H ) :   0.9721

MP2 TOTAL ENERGY:    -2130.877375893 Eh
FINAL SINGLE POINT ENERGY     -2130.877375893048

DIPOLE MOMENT
-------------
                                X             Y             Z
Electronic contribution:     -4.28984       4.76540      -0.05908
Nuclear contribution   :      0.04885       0.22115       0.08241
                        -----------------------------------------
Total Dipole Moment    :     -4.24098       4.98656       0.02332
                        -----------------------------------------
Magnitude (a.u.)       :      6.54616
Magnitude (Debye)      :     16.63902

Rotational constants in cm-1:     0.001498     0.001472     0.000763
Rotational constants in MHz :    44.918667    44.124103    22.867248

                             ****ORCA TERMINATED NORMALLY****
TOTAL RUN TIME: 0 days 1 hours 25 minutes 29 seconds 704 msec
