                         Program Version 5.0.4 -  RELEASE  -
|  1> ! PAL2
|  2> ! mp2 cc-pvdz TightSCF  NoKeepInts
|  3>
|  4> %scf
|  5>   MaxCore 2000
|  6> end
|  7> %mp2
|  8>   MaxCore 2000
|  9> end
| 10> * xyz 0 1
| 11>    C       -4.50000         5.47300         1.06800
| 12>    C        1.47400         4.04100         0.05700
| 13>    C       -2.80200         4.09300         0.04900
| 14>    C       -2.69800         5.05800        -0.96500
| 15>    C       -3.48900         6.18900        -0.92900
| 16>    C       -5.18100         7.62400         0.10500
| 17>    C        0.13200         4.30700         0.06100
| 18>    C       -0.56900         3.05600         0.04700
| 19>    C        1.64900         2.61800         0.02300
| 20>    C       -3.72700         4.32800         1.07800
| 21>    N       -4.37600         6.38300         0.07500
| 22>    N        0.38800         2.06700         0.02500
| 23>    N       -2.01000         0.39500        -0.07500
| 24>    N       -0.38800        -2.07400        -0.02700
| 25>    N        2.01000        -0.40100         0.06500
| 26>    C       -1.96000         2.86100         0.02400
| 27>    C       -2.62300         1.61500        -0.01800
| 28>    C       -5.57300        -4.32900         1.06600
| 29>    C       -4.07300         1.47100         0.05600
| 30>    C       -4.10600        -2.75600        -0.02600
| 31>    C       -4.99500        -2.75700        -1.11100
| 32>    C       -6.13200        -3.54200        -1.07600
| 33>    C       -7.65100        -5.11300         0.04000
| 34>    C       -4.32400         0.14100         0.03700
| 35>    C       -3.02500        -0.52000        -0.04800
| 36>    C       -4.42200        -3.56600         1.07500
| 37>    N       -6.40700        -4.31300         0.00100
| 38>    C       -2.86700        -1.92200        -0.04000
| 39>    C       -1.65000        -2.62400        -0.02700
| 40>    C        3.56800        -6.14200        -1.04000
| 41>    C       -1.47600        -4.04900        -0.03400
| 42>    C        2.80300        -4.09900        -0.00800
| 43>    C        3.65700        -4.38400         1.06900
| 44>    C        4.42700        -5.53000         1.05900
| 45>    C        5.24500        -7.58800         0.01400
| 46>    C       -0.13400        -4.31500        -0.02200
| 47>    C        0.56800        -3.06400        -0.02700
| 48>    C        2.77500        -5.01200        -1.07400
| 49>    N        4.37600        -6.39100         0.01700
| 50>    C        1.95900        -2.86900        -0.00900
| 51>    C        2.62100        -1.62200         0.00900
| 52>    C        5.54300         4.33900        -1.13000
| 53>    C        4.07000        -1.47900        -0.09400
| 54>    C        4.10400         2.75100        -0.02100
| 55>    C        5.02700         2.72900         1.03600
| 56>    C        6.16600         3.50900         0.97800
| 57>    C        7.61900         5.15300        -0.11500
| 58>    C        4.32100        -0.14800        -0.09200
| 59>    C        3.02500         0.51400         0.01500
| 60>    C        4.38700         3.58200        -1.11500
| 61>    C        2.86600         1.91600         0.01300
| 62>    N        6.41300         4.29600        -0.09500
| 63>    H       -5.23400         5.69000         1.83400
| 64>    H        2.27400         4.76600         0.08100
| 65>    H       -1.99600         4.93800        -1.78100
| 66>    H       -3.43800         6.96400        -1.68300
| 67>    H       -4.60600         8.40900         0.60200
| 68>    H       -5.41100         7.91800        -0.91900
| 69>    H       -6.10200         7.43100         0.65400
| 70>    H       -0.33200         5.28200         0.06900
| 71>    H       -3.86300         3.61400         1.88200
| 72>    H        0.18200         1.07200         0.00500
| 73>    H       -0.18300        -1.08000        -0.02100
| 74>    H       -5.86400        -4.96200         1.89500
| 75>    H       -4.79400         2.27200         0.13900
| 76>    H       -4.80000        -2.16000        -1.99400
| 77>    H       -6.84100        -3.58200        -1.89300
| 78>    H       -8.42800        -4.53600         0.54600
| 79>    H       -7.95600        -5.33700        -0.98100
| 80>    H       -7.45600        -6.03700         0.58400
| 81>    H       -5.28700        -0.34400         0.10000
| 82>    H       -3.78000        -3.60100         1.94700
| 83>    H        3.58700        -6.86800        -1.84300
| 84>    H       -2.27600        -4.77400        -0.05000
| 85>    H        3.71400        -3.72400         1.92600
| 86>    H        5.09200        -5.79500         1.87100
| 87>    H        6.20500        -7.32900        -0.43900
| 88>    H        5.39300        -7.91700         1.04200
| 89>    H        4.75900        -8.37300        -0.56400
| 90>    H        0.32900        -5.29000        -0.00800
| 91>    H        2.14600        -4.84200        -1.94000
| 92>    H        5.80800         4.98600        -1.95600
| 93>    H        4.78800        -2.28100        -0.18500
| 94>    H        4.86000         2.11400         1.91200
| 95>    H        6.90100         3.53100         1.77200
| 96>    H        7.38300         6.10900         0.35600
| 97>    H        8.41400         4.65200         0.43500
| 98>    H        7.92100         5.31000        -1.15000
| 99>    H        5.28300         0.33600        -0.17900
|100>    H        3.72000         3.63200        -1.96700
|101> *
|102>
|103>                          ****END OF INPUT****

CARTESIAN COORDINATES (ANGSTROEM)
---------------------------------
  C     -4.500000    5.473000    1.068000
  C      1.474000    4.041000    0.057000
  C     -2.802000    4.093000    0.049000
  C     -2.698000    5.058000   -0.965000
  C     -3.489000    6.189000   -0.929000
  C     -5.181000    7.624000    0.105000
  C      0.132000    4.307000    0.061000
  C     -0.569000    3.056000    0.047000
  C      1.649000    2.618000    0.023000
  C     -3.727000    4.328000    1.078000
  N     -4.376000    6.383000    0.075000
  N      0.388000    2.067000    0.025000
  N     -2.010000    0.395000   -0.075000
  N     -0.388000   -2.074000   -0.027000
  N      2.010000   -0.401000    0.065000
  C     -1.960000    2.861000    0.024000
  C     -2.623000    1.615000   -0.018000
  C     -5.573000   -4.329000    1.066000
  C     -4.073000    1.471000    0.056000
  C     -4.106000   -2.756000   -0.026000
  C     -4.995000   -2.757000   -1.111000
  C     -6.132000   -3.542000   -1.076000
  C     -7.651000   -5.113000    0.040000
  C     -4.324000    0.141000    0.037000
  C     -3.025000   -0.520000   -0.048000
  C     -4.422000   -3.566000    1.075000
  N     -6.407000   -4.313000    0.001000
  C     -2.867000   -1.922000   -0.040000
  C     -1.650000   -2.624000   -0.027000
  C      3.568000   -6.142000   -1.040000
  C     -1.476000   -4.049000   -0.034000
  C      2.803000   -4.099000   -0.008000
  C      3.657000   -4.384000    1.069000
  C      4.427000   -5.530000    1.059000
  C      5.245000   -7.588000    0.014000
  C     -0.134000   -4.315000   -0.022000
  C      0.568000   -3.064000   -0.027000
  C      2.775000   -5.012000   -1.074000
  N      4.376000   -6.391000    0.017000
  C      1.959000   -2.869000   -0.009000
  C      2.621000   -1.622000    0.009000
  C      5.543000    4.339000   -1.130000
  C      4.070000   -1.479000   -0.094000
  C      4.104000    2.751000   -0.021000
  C      5.027000    2.729000    1.036000
  C      6.166000    3.509000    0.978000
  C      7.619000    5.153000   -0.115000
  C      4.321000   -0.148000   -0.092000
  C      3.025000    0.514000    0.015000
  C      4.387000    3.582000   -1.115000
  C      2.866000    1.916000    0.013000
  N      6.413000    4.296000   -0.095000
  H     -5.234000    5.690000    1.834000
  H      2.274000    4.766000    0.081000
  H     -1.996000    4.938000   -1.781000
  H     -3.438000    6.964000   -1.683000
  H     -4.606000    8.409000    0.602000
  H     -5.411000    7.918000   -0.919000
  H     -6.102000    7.431000    0.654000
  H     -0.332000    5.282000    0.069000
  H     -3.863000    3.614000    1.882000
  H      0.182000    1.072000    0.005000
  H     -0.183000   -1.080000   -0.021000
  H     -5.864000   -4.962000    1.895000
  H     -4.794000    2.272000    0.139000
  H     -4.800000   -2.160000   -1.994000
  H     -6.841000   -3.582000   -1.893000
  H     -8.428000   -4.536000    0.546000
  H     -7.956000   -5.337000   -0.981000
  H     -7.456000   -6.037000    0.584000
  H     -5.287000   -0.344000    0.100000
  H     -3.780000   -3.601000    1.947000
  H      3.587000   -6.868000   -1.843000
  H     -2.276000   -4.774000   -0.050000
  H      3.714000   -3.724000    1.926000
  H      5.092000   -5.795000    1.871000
  H      6.205000   -7.329000   -0.439000
  H      5.393000   -7.917000    1.042000
  H      4.759000   -8.373000   -0.564000
  H      0.329000   -5.290000   -0.008000
  H      2.146000   -4.842000   -1.940000
  H      5.808000    4.986000   -1.956000
  H      4.788000   -2.281000   -0.185000
  H      4.860000    2.114000    1.912000
  H      6.901000    3.531000    1.772000
  H      7.383000    6.109000    0.356000
  H      8.414000    4.652000    0.435000
  H      7.921000    5.310000   -1.150000
  H      5.283000    0.336000   -0.179000
  H      3.720000    3.632000   -1.967000

 Total Charge           Charge          ....    0
 Multiplicity           Mult            ....    1
 Number of Electrons    NEL             ....  358
 Basis Dimension        Dim             ....  918

ORBITAL ENERGIES
----------------

  NO   OCC          E(Eh)            E(eV)
   0   2.0000     -15.638894      -425.5559
   1   2.0000     -15.634859      -425.4461
   2   2.0000     -15.629723      -425.3064
   3   2.0000     -15.628848      -425.2826
   4   2.0000     -15.517831      -422.2616
   5   2.0000     -15.516577      -422.2275
   6   2.0000     -15.444372      -420.2627
   7   2.0000     -15.443025      -420.2261
   8   2.0000     -11.302303      -307.5513
   9   2.0000     -11.300011      -307.4889
  10   2.0000     -11.297081      -307.4092
  11   2.0000     -11.296080      -307.3820
  12   2.0000     -11.294205      -307.3310
  13   2.0000     -11.293653      -307.3159
  14   2.0000     -11.292205      -307.2765
  15   2.0000     -11.289795      -307.2109
  16   2.0000     -11.287884      -307.1589
  17   2.0000     -11.286772      -307.1287
  18   2.0000     -11.286019      -307.1082
  19   2.0000     -11.285481      -307.0935
  20   2.0000     -11.242123      -305.9137
  21   2.0000     -11.239485      -305.8419
  22   2.0000     -11.235324      -305.7287
  23   2.0000     -11.234124      -305.6961
  24   2.0000     -11.233338      -305.6747
  25   2.0000     -11.233225      -305.6716
  26   2.0000     -11.231246      -305.6177
  27   2.0000     -11.230374      -305.5940
  28   2.0000     -11.227945      -305.5279
  29   2.0000     -11.226850      -305.4981
  30   2.0000     -11.226769      -305.4959
  31   2.0000     -11.226654      -305.4928
  32   2.0000     -11.198536      -304.7277
  33   2.0000     -11.198398      -304.7239
  34   2.0000     -11.195529      -304.6458
  35   2.0000     -11.195150      -304.6355
  36   2.0000     -11.172398      -304.0164
  37   2.0000     -11.171810      -304.0004
  38   2.0000     -11.170704      -303.9703
  39   2.0000     -11.170488      -303.9644
  40   2.0000     -11.170126      -303.9546
  41   2.0000     -11.169204      -303.9295
  42   2.0000     -11.168662      -303.9147
  43   2.0000     -11.166778      -303.8635
  44   2.0000     -11.158019      -303.6251
  45   2.0000     -11.156433      -303.5820
  46   2.0000     -11.154113      -303.5188
  47   2.0000     -11.152774      -303.4824
  48   2.0000     -11.143979      -303.2431
  49   2.0000     -11.141745      -303.1823
  50   2.0000     -11.141668      -303.1802
  51   2.0000     -11.140144      -303.1387
  52   2.0000      -1.325360       -36.0649
  53   2.0000      -1.322010       -35.9737
  54   2.0000      -1.317808       -35.8594
  55   2.0000      -1.316684       -35.8288
  56   2.0000      -1.216409       -33.1002
  57   2.0000      -1.213498       -33.0210
  58   2.0000      -1.161643       -31.6099
  59   2.0000      -1.156844       -31.4793
  60   2.0000      -1.114396       -30.3243
  61   2.0000      -1.110613       -30.2213
  62   2.0000      -1.107014       -30.1234
  63   2.0000      -1.104780       -30.0626
  64   2.0000      -1.049143       -28.5486
  65   2.0000      -1.046287       -28.4709
  66   2.0000      -1.042801       -28.3760
  67   2.0000      -1.041276       -28.3346
  68   2.0000      -1.026040       -27.9200
  69   2.0000      -1.009938       -27.4818
  70   2.0000      -1.008475       -27.4420
  71   2.0000      -0.999023       -27.1848
  72   2.0000      -0.980268       -26.6745
  73   2.0000      -0.976956       -26.5843
  74   2.0000      -0.967429       -26.3251
  75   2.0000      -0.961712       -26.1695
  76   2.0000      -0.952366       -25.9152
  77   2.0000      -0.942976       -25.6597
  78   2.0000      -0.940458       -25.5912
  79   2.0000      -0.923569       -25.1316
  80   2.0000      -0.892635       -24.2898
  81   2.0000      -0.876376       -23.8474
  82   2.0000      -0.873806       -23.7775
  83   2.0000      -0.870122       -23.6772
  84   2.0000      -0.867152       -23.5964
  85   2.0000      -0.856727       -23.3127
  86   2.0000      -0.847402       -23.0590
  87   2.0000      -0.845316       -23.0022
  88   2.0000      -0.821887       -22.3647
  89   2.0000      -0.798427       -21.7263
  90   2.0000      -0.798025       -21.7154
  91   2.0000      -0.739073       -20.1112
  92   2.0000      -0.728291       -19.8178
  93   2.0000      -0.727753       -19.8032
  94   2.0000      -0.721826       -19.6419
  95   2.0000      -0.719349       -19.5745
  96   2.0000      -0.711996       -19.3744
  97   2.0000      -0.710980       -19.3467
  98   2.0000      -0.698276       -19.0011
  99   2.0000      -0.691487       -18.8163
 100   2.0000      -0.683166       -18.5899
 101   2.0000      -0.680227       -18.5099
 102   2.0000      -0.677617       -18.4389
 103   2.0000      -0.674896       -18.3649
 104   2.0000      -0.669527       -18.2188
 105   2.0000      -0.667144       -18.1539
 106   2.0000      -0.663156       -18.0454
 107   2.0000      -0.657825       -17.9003
 108   2.0000      -0.655724       -17.8432
 109   2.0000      -0.653839       -17.7919
 110   2.0000      -0.652203       -17.7473
 111   2.0000      -0.651703       -17.7337
 112   2.0000      -0.649685       -17.6788
 113   2.0000      -0.647750       -17.6262
 114   2.0000      -0.634633       -17.2692
 115   2.0000      -0.623854       -16.9759
 116   2.0000      -0.616004       -16.7623
 117   2.0000      -0.613371       -16.6907
 118   2.0000      -0.611783       -16.6475
 119   2.0000      -0.609119       -16.5750
 120   2.0000      -0.607825       -16.5398
 121   2.0000      -0.607592       -16.5334
 122   2.0000      -0.603235       -16.4149
 123   2.0000      -0.594709       -16.1828
 124   2.0000      -0.584796       -15.9131
 125   2.0000      -0.582366       -15.8470
 126   2.0000      -0.579114       -15.7585
 127   2.0000      -0.578373       -15.7383
 128   2.0000      -0.569427       -15.4949
 129   2.0000      -0.563286       -15.3278
 130   2.0000      -0.553666       -15.0660
 131   2.0000      -0.541338       -14.7306
 132   2.0000      -0.538902       -14.6643
 133   2.0000      -0.535917       -14.5830
 134   2.0000      -0.535115       -14.5612
 135   2.0000      -0.531114       -14.4524
 136   2.0000      -0.524696       -14.2777
 137   2.0000      -0.523544       -14.2464
 138   2.0000      -0.516310       -14.0495
 139   2.0000      -0.513714       -13.9789
 140   2.0000      -0.511766       -13.9259
 141   2.0000      -0.507386       -13.8067
 142   2.0000      -0.503161       -13.6917
 143   2.0000      -0.502649       -13.6778
 144   2.0000      -0.498957       -13.5773
 145   2.0000      -0.498140       -13.5551
 146   2.0000      -0.496853       -13.5201
 147   2.0000      -0.494251       -13.4493
 148   2.0000      -0.491489       -13.3741
 149   2.0000      -0.468876       -12.7588
 150   2.0000      -0.460055       -12.5187
 151   2.0000      -0.451156       -12.2766
 152   2.0000      -0.447921       -12.1885
 153   2.0000      -0.446052       -12.1377
 154   2.0000      -0.444801       -12.1037
 155   2.0000      -0.440010       -11.9733
 156   2.0000      -0.435089       -11.8394
 157   2.0000      -0.432043       -11.7565
 158   2.0000      -0.391500       -10.6533
 159   2.0000      -0.380493       -10.3537
 160   2.0000      -0.377132       -10.2623
 161   2.0000      -0.375073       -10.2063
 162   2.0000      -0.359516        -9.7829
 163   2.0000      -0.357258        -9.7215
 164   2.0000      -0.353629        -9.6227
 165   2.0000      -0.352897        -9.6028
 166   2.0000      -0.337279        -9.1778
 167   2.0000      -0.331968        -9.0333
 168   2.0000      -0.329009        -8.9528
 169   2.0000      -0.300349        -8.1729
 170   2.0000      -0.293373        -7.9831
 171   2.0000      -0.290375        -7.9015
 172   2.0000      -0.287562        -7.8250
 173   2.0000      -0.255182        -6.9439
 174   2.0000      -0.248165        -6.7529
 175   2.0000      -0.187834        -5.1112
 176   2.0000      -0.177694        -4.8353
 177   2.0000      -0.065980        -1.7954
 178   2.0000      -0.053872        -1.4659
 179   0.0000       0.031360         0.8533
 180   0.0000       0.070807         1.9268
 181   0.0000       0.092636         2.5208
 182   0.0000       0.096213         2.6181
 183   0.0000       0.134411         3.6575

MULLIKEN ATOMIC CHARGES
-----------------------
   0 C :    0.211127
   1 N :   -0.442032
   2 C :   -0.064264
   3 N :   -0.337615
   4 C :   -0.065085
   5 N :   -0.563712
   6 C :   -0.064198
   7 N :   -0.337880
   8 C :    0.205420
   9 N :   -0.563501
  10 C :    0.114379
  11 N :   -0.437341
  12 C :   -0.071511
  13 N :   -0.439810
  14 C :    0.242141
  15 N :   -0.440704
  16 C :    0.234811
  17 C :   -0.071964
  18 C :   -0.213992
  19 C :    0.241449
  20 C :    0.207637
  21 C :   -0.084104
  22 C :   -0.086841
  23 C :   -0.049072
  24 C :    0.205941
  25 C :    0.113826
  26 C :   -0.071491
  27 C :    0.224098
  28 C :   -0.052299
  29 C :   -0.185887
  30 C :    0.235229
  31 C :    0.210505
  32 C :   -0.065441
  33 C :   -0.081184
  34 C :   -0.050531
  35 C :    0.204561
  36 C :    0.114144
  37 C :   -0.066966
  38 C :    0.236794
  39 C :   -0.061105
  40 C :   -0.190135
  41 C :    0.221565
  42 C :    0.203715
  43 C :   -0.073526
  44 C :   -0.088844
  45 C :   -0.052043
  46 C :    0.202796
  47 C :    0.115594
  48 C :   -0.074166
  49 C :    0.226086
  50 C :   -0.053475
  51 C :   -0.189198
  52 H :    0.055145
  53 H :   -0.013736
  54 H :    0.046998
  55 H :    0.053105
  56 H :    0.059948
  57 H :    0.057244
  58 H :    0.056272
  59 H :   -0.012378
  60 H :    0.049531
  61 H :    0.173082
  62 H :    0.172626
  63 H :    0.056613
  64 H :   -0.018782
  65 H :    0.047281
  66 H :    0.057789
  67 H :    0.062696
  68 H :    0.058262
  69 H :    0.058917
  70 H :   -0.024251
  71 H :    0.047813
  72 H :    0.056147
  73 H :   -0.014403
  74 H :    0.046459
  75 H :    0.055232
  76 H :    0.061786
  77 H :    0.057997
  78 H :    0.057239
  79 H :   -0.014063
  80 H :    0.046855
  81 H :    0.053335
  82 H :   -0.023354
  83 H :    0.043291
  84 H :    0.053234
  85 H :    0.059049
  86 H :    0.056396
  87 H :    0.056558
  88 H :   -0.021699
  89 H :    0.043863
Sum of atomic charges:    0.0000000

LOEWDIN ATOMIC CHARGES
----------------------
   0 C :   -0.001878
   1 N :    0.138032
   2 C :   -0.100814
   3 N :    0.178712
   4 C :    0.035765
   5 N :   -0.139002
   6 C :   -0.023345
   7 N :    0.177643
   8 C :   -0.005698
   9 N :   -0.139400
  10 C :    0.028946
  11 N :    0.144786
  12 C :   -0.102940
  13 N :    0.141628
  14 C :   -0.044092
  15 N :    0.138559
  16 C :   -0.045329
  17 C :   -0.025936
  18 C :   -0.108732
  19 C :   -0.085510
  20 C :    0.000281
  21 C :   -0.106308
  22 C :    0.042967
  23 C :   -0.020207
  24 C :   -0.000949
  25 C :    0.030442
  26 C :   -0.101908
  27 C :   -0.093889
  28 C :   -0.021108
  29 C :   -0.108105
  30 C :   -0.045732
  31 C :    0.000957
  32 C :   -0.099772
  33 C :    0.040382
  34 C :   -0.020117
  35 C :   -0.004129
  36 C :    0.029650
  37 C :   -0.101408
  38 C :   -0.042070
  39 C :   -0.025113
  40 C :   -0.109391
  41 C :   -0.092610
  42 C :   -0.005248
  43 C :   -0.104498
  44 C :    0.034001
  45 C :   -0.022041
  46 C :   -0.005841
  47 C :    0.029279
  48 C :   -0.103872
  49 C :   -0.089752
  50 C :   -0.023722
  51 C :   -0.108339
  52 H :    0.030010
  53 H :    0.004453
  54 H :    0.043642
  55 H :    0.029219
  56 H :    0.027013
  57 H :    0.030783
  58 H :    0.031046
  59 H :    0.004260
  60 H :    0.044483
  61 H :    0.060735
  62 H :    0.060381
  63 H :    0.031050
  64 H :   -0.000754
  65 H :    0.045462
  66 H :    0.030626
  67 H :    0.028474
  68 H :    0.032089
  69 H :    0.031399
  70 H :   -0.001955
  71 H :    0.045276
  72 H :    0.030612
  73 H :    0.004038
  74 H :    0.044814
  75 H :    0.029942
  76 H :    0.028004
  77 H :    0.031483
  78 H :    0.031159
  79 H :    0.004261
  80 H :    0.044430
  81 H :    0.028880
  82 H :   -0.001803
  83 H :    0.043626
  84 H :    0.029141
  85 H :    0.026548
  86 H :    0.030497
  87 H :    0.031088
  88 H :   -0.001052
  89 H :    0.043410

  Mayer bond orders larger than 0.100000
B(  0-C ,  1-N ) :   1.1187 B(  0-C , 17-C ) :   1.6373 B(  0-C , 52-H ) :   0.9692
B(  1-N ,  8-C ) :   1.1130 B(  1-N , 10-C ) :   0.9619 B(  2-C , 12-C ) :   1.5343
B(  2-C , 16-C ) :   1.3257 B(  2-C , 53-H ) :   0.9777 B(  3-N , 14-C ) :   1.2024
B(  3-N , 16-C ) :   1.1963 B(  3-N , 61-H ) :   0.8981 B(  4-C ,  6-C ) :   1.2630
B(  4-C , 17-C ) :   1.2636 B(  4-C , 18-C ) :   1.2788 B(  5-N , 19-C ) :   1.4205
B(  5-N , 27-C ) :   1.4036 B(  6-C ,  8-C ) :   1.6393 B(  6-C , 54-H ) :   0.9708
B(  7-N , 30-C ) :   1.1935 B(  7-N , 38-C ) :   1.2016 B(  7-N , 62-H ) :   0.8984
B(  8-C , 55-H ) :   0.9698 B(  9-N , 41-C ) :   1.4095 B(  9-N , 49-C ) :   1.4139
B( 10-C , 56-H ) :   0.9763 B( 10-C , 57-H ) :   0.9818 B( 10-C , 58-H ) :   0.9836
B( 11-N , 20-C ) :   1.1248 B( 11-N , 24-C ) :   1.1232 B( 11-N , 25-C ) :   0.9581
B( 12-C , 14-C ) :   1.3264 B( 12-C , 59-H ) :   0.9764 B( 13-N , 31-C ) :   1.1236
B( 13-N , 35-C ) :   1.1173 B( 13-N , 36-C ) :   0.9599 B( 14-C , 18-C ) :   1.1903
B( 15-N , 42-C ) :   1.1162 B( 15-N , 46-C ) :   1.1136 B( 15-N , 47-C ) :   0.9623
B( 16-C , 51-C ) :   1.1980 B( 17-C , 60-H ) :   0.9706 B( 18-C , 19-C ) :   1.2097
B( 19-C , 21-C ) :   1.2094 B( 20-C , 28-C ) :   1.6227 B( 20-C , 63-H ) :   0.9703
B( 21-C , 26-C ) :   1.6440 B( 21-C , 64-H ) :   0.9716 B( 22-C , 23-C ) :   1.2837
B( 22-C , 28-C ) :   1.2749 B( 22-C , 29-C ) :   1.2284 B( 23-C , 24-C ) :   1.6181
B( 23-C , 65-H ) :   0.9709 B( 24-C , 66-H ) :   0.9691 B( 25-C , 67-H ) :   0.9762
B( 25-C , 68-H ) :   0.9829 B( 25-C , 69-H ) :   0.9821 B( 26-C , 27-C ) :   1.2093
B( 26-C , 70-H ) :   0.9732 B( 27-C , 29-C ) :   1.2325 B( 28-C , 71-H ) :   0.9714
B( 29-C , 30-C ) :   1.2092 B( 30-C , 32-C ) :   1.3143 B( 31-C , 39-C ) :   1.6310
B( 31-C , 72-H ) :   0.9696 B( 32-C , 37-C ) :   1.5440 B( 32-C , 73-H ) :   0.9778
B( 33-C , 34-C ) :   1.2745 B( 33-C , 39-C ) :   1.2680 B( 33-C , 40-C ) :   1.2509
B( 34-C , 35-C ) :   1.6281 B( 34-C , 74-H ) :   0.9705 B( 35-C , 75-H ) :   0.9696
B( 36-C , 76-H ) :   0.9763 B( 36-C , 77-H ) :   0.9821 B( 36-C , 78-H ) :   0.9831
B( 37-C , 38-C ) :   1.3155 B( 37-C , 79-H ) :   0.9778 B( 38-C , 40-C ) :   1.2064
B( 39-C , 80-H ) :   0.9715 B( 40-C , 41-C ) :   1.2184 B( 41-C , 43-C ) :   1.2133
B( 42-C , 50-C ) :   1.6336 B( 42-C , 81-H ) :   0.9696 B( 43-C , 48-C ) :   1.6384
B( 43-C , 82-H ) :   0.9737 B( 44-C , 45-C ) :   1.2715 B( 44-C , 50-C ) :   1.2665
B( 44-C , 51-C ) :   1.2545 B( 45-C , 46-C ) :   1.6322 B( 45-C , 83-H ) :   0.9711
B( 46-C , 84-H ) :   0.9702 B( 47-C , 85-H ) :   0.9761 B( 47-C , 86-H ) :   0.9828
B( 47-C , 87-H ) :   0.9826 B( 48-C , 49-C ) :   1.2128 B( 48-C , 88-H ) :   0.9739
B( 49-C , 51-C ) :   1.2214 B( 50-C , 89-H ) :   0.9714

MP2 TOTAL ENERGY:    -2130.912783030 Eh
FINAL SINGLE POINT ENERGY     -2130.912783029868

DIPOLE MOMENT
-------------
                                X             Y             Z
Electronic contribution:     -0.36896      -0.73146      -0.11197
Nuclear contribution   :      0.07644       0.23866       0.12439
                        -----------------------------------------
Total Dipole Moment    :     -0.29252      -0.49280       0.01243
                        -----------------------------------------
Magnitude (a.u.)       :      0.57322
Magnitude (Debye)      :      1.45701

Rotational constants in cm-1:     0.001499     0.001475     0.000762
Rotational constants in MHz :    44.927203    44.205179    22.843584

                             ****ORCA TERMINATED NORMALLY****
TOTAL RUN TIME: 0 days 1 hours 23 minutes 8 seconds 975 msec
