                         Program Version 5.0.4 -  RELEASE  -
|  1> ! PAL2
|  2> ! mp2 cc-pvdz TightSCF  NoKeepInts
|  3>
|  4> %scf
|  5>   MaxCore 2000
|  6> end
|  7> %mp2
|  8>   MaxCore 2000
|  9> end
| 10> * xyz 0 1
| 11>    C       -4.05900         5.81800        -1.07800
| 12>    C        1.47400         4.04100         0.05700
| 13>    C       -2.80200         4.09300         0.04900
| 14>    C       -3.12900         4.71800         1.26200
| 15>    C       -3.90500         5.86000         1.26600
| 16>    C       -5.21600         7.59900         0.14900
| 17>    C        0.13200         4.30700         0.06100
| 18>    C       -0.56900         3.05600         0.04700
| 19>    C        1.64900         2.61800         0.02300
| 20>    C       -3.29100         4.67100        -1.13300
| 21>    N       -4.35500         6.39600         0.10800
| 22>    N        0.38800         2.06700         0.02500
| 23>    N       -2.01000         0.39500        -0.07500
| 24>    N       -0.38800        -2.07400        -0.02700
| 25>    N        2.01000        -0.40100         0.06500
| 26>    C       -1.96000         2.86100         0.02400
| 27>    C       -2.62300         1.61500        -0.01800
| 28>    C       -5.57300        -4.32900         1.06600
| 29>    C       -4.07300         1.47100         0.05600
| 30>    C       -4.10600        -2.75600        -0.02600
| 31>    C       -4.99500        -2.75700        -1.11100
| 32>    C       -6.13200        -3.54200        -1.07600
| 33>    C       -7.65100        -5.11300         0.04000
| 34>    C       -4.32400         0.14100         0.03700
| 35>    C       -3.02500        -0.52000        -0.04800
| 36>    C       -4.42200        -3.56600         1.07500
| 37>    N       -6.40700        -4.31300         0.00100
| 38>    C       -2.86700        -1.92200        -0.04000
| 39>    C       -1.65000        -2.62400        -0.02700
| 40>    C        3.56800        -6.14200        -1.04000
| 41>    C       -1.47600        -4.04900        -0.03400
| 42>    C        2.80300        -4.09900        -0.00800
| 43>    C        3.65700        -4.38400         1.06900
| 44>    C        4.42700        -5.53000         1.05900
| 45>    C        5.24500        -7.58800         0.01400
| 46>    C       -0.13400        -4.31500        -0.02200
| 47>    C        0.56800        -3.06400        -0.02700
| 48>    C        2.77500        -5.01200        -1.07400
| 49>    N        4.37600        -6.39100         0.01700
| 50>    C        1.95900        -2.86900        -0.00900
| 51>    C        2.62100        -1.62200         0.00900
| 52>    C        5.54300         4.33900        -1.13000
| 53>    C        4.07000        -1.47900        -0.09400
| 54>    C        4.10400         2.75100        -0.02100
| 55>    C        5.02700         2.72900         1.03600
| 56>    C        6.16600         3.50900         0.97800
| 57>    C        7.61900         5.15300        -0.11500
| 58>    C        4.32100        -0.14800        -0.09200
| 59>    C        3.02500         0.51400         0.01500
| 60>    C        4.38700         3.58200        -1.11500
| 61>    C        2.86600         1.91600         0.01300
| 62>    N        6.41300         4.29600        -0.09500
| 63>    H       -4.44600         6.30500        -1.96400
| 64>    H        2.27400         4.76600         0.08100
| 65>    H       -2.79000         4.31500         2.20800
| 66>    H       -4.19000         6.37200         2.17700
| 67>    H       -6.25400         7.28900         0.28800
| 68>    H       -4.89900         8.23000         0.98000
| 69>    H       -5.10900         8.13900        -0.79100
| 70>    H       -0.33200         5.28200         0.06900
| 71>    H       -3.06100         4.24300        -2.10200
| 72>    H        0.18200         1.07200         0.00500
| 73>    H       -0.18300        -1.08000        -0.02100
| 74>    H       -5.86400        -4.96200         1.89500
| 75>    H       -4.79400         2.27200         0.13900
| 76>    H       -4.80000        -2.16000        -1.99400
| 77>    H       -6.84100        -3.58200        -1.89300
| 78>    H       -8.42800        -4.53600         0.54600
| 79>    H       -7.95600        -5.33700        -0.98100
| 80>    H       -7.45600        -6.03700         0.58400
| 81>    H       -5.28700        -0.34400         0.10000
| 82>    H       -3.78000        -3.60100         1.94700
| 83>    H        3.58700        -6.86800        -1.84300
| 84>    H       -2.27600        -4.77400        -0.05000
| 85>    H        3.71400        -3.72400         1.92600
| 86>    H        5.09200        -5.79500         1.87100
| 87>    H        6.20500        -7.32900        -0.43900
| 88>    H        5.39300        -7.91700         1.04200
| 89>    H        4.75900        -8.37300        -0.56400
| 90>    H        0.32900        -5.29000        -0.00800
| 91>    H        2.14600        -4.84200        -1.94000
| 92>    H        5.80800         4.98600        -1.95600
| 93>    H        4.78800        -2.28100        -0.18500
| 94>    H        4.86000         2.11400         1.91200
| 95>    H        6.90100         3.53100         1.77200
| 96>    H        7.38300         6.10900         0.35600
| 97>    H        8.41400         4.65200         0.43500
| 98>    H        7.92100         5.31000        -1.15000
| 99>    H        5.28300         0.33600        -0.17900
|100>    H        3.72000         3.63200        -1.96700
|101> *
|102>
|103>                          ****END OF INPUT****

CARTESIAN COORDINATES (ANGSTROEM)
---------------------------------
  C     -4.059000    5.818000   -1.078000
  C      1.474000    4.041000    0.057000
  C     -2.802000    4.093000    0.049000
  C     -3.129000    4.718000    1.262000
  C     -3.905000    5.860000    1.266000
  C     -5.216000    7.599000    0.149000
  C      0.132000    4.307000    0.061000
  C     -0.569000    3.056000    0.047000
  C      1.649000    2.618000    0.023000
  C     -3.291000    4.671000   -1.133000
  N     -4.355000    6.396000    0.108000
  N      0.388000    2.067000    0.025000
  N     -2.010000    0.395000   -0.075000
  N     -0.388000   -2.074000   -0.027000
  N      2.010000   -0.401000    0.065000
  C     -1.960000    2.861000    0.024000
  C     -2.623000    1.615000   -0.018000
  C     -5.573000   -4.329000    1.066000
  C     -4.073000    1.471000    0.056000
  C     -4.106000   -2.756000   -0.026000
  C     -4.995000   -2.757000   -1.111000
  C     -6.132000   -3.542000   -1.076000
  C     -7.651000   -5.113000    0.040000
  C     -4.324000    0.141000    0.037000
  C     -3.025000   -0.520000   -0.048000
  C     -4.422000   -3.566000    1.075000
  N     -6.407000   -4.313000    0.001000
  C     -2.867000   -1.922000   -0.040000
  C     -1.650000   -2.624000   -0.027000
  C      3.568000   -6.142000   -1.040000
  C     -1.476000   -4.049000   -0.034000
  C      2.803000   -4.099000   -0.008000
  C      3.657000   -4.384000    1.069000
  C      4.427000   -5.530000    1.059000
  C      5.245000   -7.588000    0.014000
  C     -0.134000   -4.315000   -0.022000
  C      0.568000   -3.064000   -0.027000
  C      2.775000   -5.012000   -1.074000
  N      4.376000   -6.391000    0.017000
  C      1.959000   -2.869000   -0.009000
  C      2.621000   -1.622000    0.009000
  C      5.543000    4.339000   -1.130000
  C      4.070000   -1.479000   -0.094000
  C      4.104000    2.751000   -0.021000
  C      5.027000    2.729000    1.036000
  C      6.166000    3.509000    0.978000
  C      7.619000    5.153000   -0.115000
  C      4.321000   -0.148000   -0.092000
  C      3.025000    0.514000    0.015000
  C      4.387000    3.582000   -1.115000
  C      2.866000    1.916000    0.013000
  N      6.413000    4.296000   -0.095000
  H     -4.446000    6.305000   -1.964000
  H      2.274000    4.766000    0.081000
  H     -2.790000    4.315000    2.208000
  H     -4.190000    6.372000    2.177000
  H     -6.254000    7.289000    0.288000
  H     -4.899000    8.230000    0.980000
  H     -5.109000    8.139000   -0.791000
  H     -0.332000    5.282000    0.069000
  H     -3.061000    4.243000   -2.102000
  H      0.182000    1.072000    0.005000
  H     -0.183000   -1.080000   -0.021000
  H     -5.864000   -4.962000    1.895000
  H     -4.794000    2.272000    0.139000
  H     -4.800000   -2.160000   -1.994000
  H     -6.841000   -3.582000   -1.893000
  H     -8.428000   -4.536000    0.546000
  H     -7.956000   -5.337000   -0.981000
  H     -7.456000   -6.037000    0.584000
  H     -5.287000   -0.344000    0.100000
  H     -3.780000   -3.601000    1.947000
  H      3.587000   -6.868000   -1.843000
  H     -2.276000   -4.774000   -0.050000
  H      3.714000   -3.724000    1.926000
  H      5.092000   -5.795000    1.871000
  H      6.205000   -7.329000   -0.439000
  H      5.393000   -7.917000    1.042000
  H      4.759000   -8.373000   -0.564000
  H      0.329000   -5.290000   -0.008000
  H      2.146000   -4.842000   -1.940000
  H      5.808000    4.986000   -1.956000
  H      4.788000   -2.281000   -0.185000
  H      4.860000    2.114000    1.912000
  H      6.901000    3.531000    1.772000
  H      7.383000    6.109000    0.356000
  H      8.414000    4.652000    0.435000
  H      7.921000    5.310000   -1.150000
  H      5.283000    0.336000   -0.179000
  H      3.720000    3.632000   -1.967000

 Total Charge           Charge          ....    0
 Multiplicity           Mult            ....    1
 Number of Electrons    NEL             ....  358
 Basis Dimension        Dim             ....  918

ORBITAL ENERGIES
----------------

  NO   OCC          E(Eh)            E(eV)
   0   2.0000     -15.715185      -427.6319
   1   2.0000     -15.629680      -425.3052
   2   2.0000     -15.618791      -425.0089
   3   2.0000     -15.578996      -423.9260
   4   2.0000     -15.520168      -422.3253
   5   2.0000     -15.504825      -421.9078
   6   2.0000     -15.451098      -420.4457
   7   2.0000     -15.427267      -419.7973
   8   2.0000     -11.354338      -308.9672
   9   2.0000     -11.352653      -308.9214
  10   2.0000     -11.347515      -308.7816
  11   2.0000     -11.309368      -307.7436
  12   2.0000     -11.297090      -307.4095
  13   2.0000     -11.291464      -307.2563
  14   2.0000     -11.289721      -307.2089
  15   2.0000     -11.283743      -307.0463
  16   2.0000     -11.283601      -307.0424
  17   2.0000     -11.281600      -306.9879
  18   2.0000     -11.281421      -306.9831
  19   2.0000     -11.271723      -306.7192
  20   2.0000     -11.264700      -306.5281
  21   2.0000     -11.245223      -305.9981
  22   2.0000     -11.241433      -305.8949
  23   2.0000     -11.233384      -305.6759
  24   2.0000     -11.227634      -305.5195
  25   2.0000     -11.226741      -305.4952
  26   2.0000     -11.223087      -305.3957
  27   2.0000     -11.219004      -305.2846
  28   2.0000     -11.218731      -305.2772
  29   2.0000     -11.210019      -305.0401
  30   2.0000     -11.208527      -304.9995
  31   2.0000     -11.194224      -304.6103
  32   2.0000     -11.192969      -304.5762
  33   2.0000     -11.192226      -304.5559
  34   2.0000     -11.190039      -304.4964
  35   2.0000     -11.189277      -304.4757
  36   2.0000     -11.185471      -304.3721
  37   2.0000     -11.180941      -304.2489
  38   2.0000     -11.180736      -304.2433
  39   2.0000     -11.176507      -304.1282
  40   2.0000     -11.168916      -303.9217
  41   2.0000     -11.165421      -303.8266
  42   2.0000     -11.164304      -303.7962
  43   2.0000     -11.161069      -303.7081
  44   2.0000     -11.160388      -303.6896
  45   2.0000     -11.145294      -303.2789
  46   2.0000     -11.144638      -303.2610
  47   2.0000     -11.141835      -303.1847
  48   2.0000     -11.138647      -303.0980
  49   2.0000     -11.132176      -302.9219
  50   2.0000     -11.117181      -302.5139
  51   2.0000     -11.111857      -302.3690
  52   2.0000      -1.387951       -37.7681
  53   2.0000      -1.317734       -35.8574
  54   2.0000      -1.307761       -35.5860
  55   2.0000      -1.273933       -34.6655
  56   2.0000      -1.223634       -33.2968
  57   2.0000      -1.201001       -32.6809
  58   2.0000      -1.176967       -32.0269
  59   2.0000      -1.162569       -31.6351
  60   2.0000      -1.137399       -30.9502
  61   2.0000      -1.106886       -30.1199
  62   2.0000      -1.106054       -30.0972
  63   2.0000      -1.097471       -29.8637
  64   2.0000      -1.067827       -29.0570
  65   2.0000      -1.054976       -28.7074
  66   2.0000      -1.042120       -28.3575
  67   2.0000      -1.032677       -28.1006
  68   2.0000      -1.014837       -27.6151
  69   2.0000      -1.004113       -27.3233
  70   2.0000      -1.001008       -27.2388
  71   2.0000      -0.993885       -27.0450
  72   2.0000      -0.984939       -26.8015
  73   2.0000      -0.977038       -26.5865
  74   2.0000      -0.964046       -26.2330
  75   2.0000      -0.962092       -26.1799
  76   2.0000      -0.951039       -25.8791
  77   2.0000      -0.940779       -25.5999
  78   2.0000      -0.932030       -25.3618
  79   2.0000      -0.920240       -25.0410
  80   2.0000      -0.912895       -24.8411
  81   2.0000      -0.890203       -24.2237
  82   2.0000      -0.885695       -24.1010
  83   2.0000      -0.869101       -23.6494
  84   2.0000      -0.860165       -23.4063
  85   2.0000      -0.847082       -23.0503
  86   2.0000      -0.829750       -22.5786
  87   2.0000      -0.827509       -22.5177
  88   2.0000      -0.820575       -22.3290
  89   2.0000      -0.794522       -21.6200
  90   2.0000      -0.786267       -21.3954
  91   2.0000      -0.770060       -20.9544
  92   2.0000      -0.736982       -20.0543
  93   2.0000      -0.733495       -19.9594
  94   2.0000      -0.728367       -19.8199
  95   2.0000      -0.723039       -19.6749
  96   2.0000      -0.716558       -19.4985
  97   2.0000      -0.707643       -19.2559
  98   2.0000      -0.706838       -19.2340
  99   2.0000      -0.703430       -19.1413
 100   2.0000      -0.695714       -18.9313
 101   2.0000      -0.688641       -18.7389
 102   2.0000      -0.684284       -18.6203
 103   2.0000      -0.675039       -18.3688
 104   2.0000      -0.673144       -18.3172
 105   2.0000      -0.668121       -18.1805
 106   2.0000      -0.667345       -18.1594
 107   2.0000      -0.662390       -18.0245
 108   2.0000      -0.652462       -17.7544
 109   2.0000      -0.649479       -17.6732
 110   2.0000      -0.648416       -17.6443
 111   2.0000      -0.642209       -17.4754
 112   2.0000      -0.640327       -17.4242
 113   2.0000      -0.635019       -17.2797
 114   2.0000      -0.631814       -17.1925
 115   2.0000      -0.629928       -17.1412
 116   2.0000      -0.626844       -17.0573
 117   2.0000      -0.616227       -16.7684
 118   2.0000      -0.611164       -16.6306
 119   2.0000      -0.609752       -16.5922
 120   2.0000      -0.609044       -16.5729
 121   2.0000      -0.600837       -16.3496
 122   2.0000      -0.589930       -16.0528
 123   2.0000      -0.589498       -16.0411
 124   2.0000      -0.584499       -15.9050
 125   2.0000      -0.578805       -15.7501
 126   2.0000      -0.575307       -15.6549
 127   2.0000      -0.571613       -15.5544
 128   2.0000      -0.570899       -15.5350
 129   2.0000      -0.567947       -15.4546
 130   2.0000      -0.556420       -15.1410
 131   2.0000      -0.544524       -14.8173
 132   2.0000      -0.541575       -14.7370
 133   2.0000      -0.539189       -14.6721
 134   2.0000      -0.533700       -14.5227
 135   2.0000      -0.529438       -14.4068
 136   2.0000      -0.518868       -14.1191
 137   2.0000      -0.515857       -14.0372
 138   2.0000      -0.513272       -13.9668
 139   2.0000      -0.512829       -13.9548
 140   2.0000      -0.510161       -13.8822
 141   2.0000      -0.503066       -13.6891
 142   2.0000      -0.501353       -13.6425
 143   2.0000      -0.498020       -13.5518
 144   2.0000      -0.495154       -13.4738
 145   2.0000      -0.493423       -13.4267
 146   2.0000      -0.489197       -13.3117
 147   2.0000      -0.474189       -12.9033
 148   2.0000      -0.471377       -12.8268
 149   2.0000      -0.465733       -12.6732
 150   2.0000      -0.462356       -12.5813
 151   2.0000      -0.460218       -12.5232
 152   2.0000      -0.451878       -12.2962
 153   2.0000      -0.441126       -12.0037
 154   2.0000      -0.433285       -11.7903
 155   2.0000      -0.431548       -11.7430
 156   2.0000      -0.418564       -11.3897
 157   2.0000      -0.415713       -11.3121
 158   2.0000      -0.411854       -11.2071
 159   2.0000      -0.407208       -11.0807
 160   2.0000      -0.381928       -10.3928
 161   2.0000      -0.369540       -10.0557
 162   2.0000      -0.354036        -9.6338
 163   2.0000      -0.352256        -9.5854
 164   2.0000      -0.345790        -9.4094
 165   2.0000      -0.341250        -9.2859
 166   2.0000      -0.338320        -9.2062
 167   2.0000      -0.318619        -8.6701
 168   2.0000      -0.312394        -8.5007
 169   2.0000      -0.303978        -8.2717
 170   2.0000      -0.298237        -8.1154
 171   2.0000      -0.282662        -7.6916
 172   2.0000      -0.276297        -7.5184
 173   2.0000      -0.266172        -7.2429
 174   2.0000      -0.229533        -6.2459
 175   2.0000      -0.183191        -4.9849
 176   2.0000      -0.173313        -4.7161
 177   2.0000      -0.062483        -1.7002
 178   2.0000      -0.050894        -1.3849
 179   0.0000       0.035718         0.9719
 180   0.0000       0.055439         1.5086
 181   0.0000       0.076580         2.0839
 182   0.0000       0.098479         2.6798
 183   0.0000       0.102203         2.7811

MULLIKEN ATOMIC CHARGES
-----------------------
   0 C :    0.237620
   1 N :   -0.411779
   2 C :   -0.066753
   3 N :   -0.344107
   4 C :   -0.069988
   5 N :   -0.565745
   6 C :   -0.023678
   7 N :   -0.336898
   8 C :    0.231815
   9 N :   -0.566295
  10 C :    0.103202
  11 N :   -0.439891
  12 C :   -0.058125
  13 N :   -0.451438
  14 C :    0.218847
  15 N :   -0.441809
  16 C :    0.257494
  17 C :   -0.032602
  18 C :   -0.173920
  19 C :    0.228718
  20 C :    0.187093
  21 C :   -0.066434
  22 C :   -0.091587
  23 C :   -0.068391
  24 C :    0.217690
  25 C :    0.115016
  26 C :   -0.065563
  27 C :    0.248610
  28 C :   -0.039205
  29 C :   -0.196787
  30 C :    0.219965
  31 C :    0.187224
  32 C :   -0.064107
  33 C :   -0.103400
  34 C :   -0.050197
  35 C :    0.177130
  36 C :    0.121308
  37 C :   -0.070780
  38 C :    0.245254
  39 C :   -0.065793
  40 C :   -0.204935
  41 C :    0.215607
  42 C :    0.212233
  43 C :   -0.077709
  44 C :   -0.092535
  45 C :   -0.037717
  46 C :    0.182981
  47 C :    0.116877
  48 C :   -0.082720
  49 C :    0.206755
  50 C :   -0.068177
  51 C :   -0.189160
  52 H :    0.082571
  53 H :   -0.006648
  54 H :    0.067993
  55 H :    0.081813
  56 H :    0.085841
  57 H :    0.077050
  58 H :    0.075022
  59 H :   -0.029474
  60 H :    0.067165
  61 H :    0.177271
  62 H :    0.167625
  63 H :    0.052334
  64 H :   -0.035434
  65 H :    0.040090
  66 H :    0.054522
  67 H :    0.057794
  68 H :    0.055707
  69 H :    0.058818
  70 H :   -0.012844
  71 H :    0.046400
  72 H :    0.036603
  73 H :   -0.019336
  74 H :    0.028604
  75 H :    0.035227
  76 H :    0.045488
  77 H :    0.045506
  78 H :    0.044725
  79 H :   -0.011488
  80 H :    0.028294
  81 H :    0.049949
  82 H :   -0.023249
  83 H :    0.042404
  84 H :    0.048807
  85 H :    0.053779
  86 H :    0.056210
  87 H :    0.054194
  88 H :   -0.031052
  89 H :    0.038500
Sum of atomic charges:   -0.0000000

LOEWDIN ATOMIC CHARGES
----------------------
   0 C :    0.040855
   1 N :    0.194585
   2 C :   -0.098611
   3 N :    0.170648
   4 C :    0.120316
   5 N :   -0.148131
   6 C :   -0.008520
   7 N :    0.177391
   8 C :    0.037330
   9 N :   -0.138401
  10 C :    0.040543
  11 N :    0.138803
  12 C :   -0.096051
  13 N :    0.112251
  14 C :   -0.062709
  15 N :    0.134095
  16 C :   -0.015487
  17 C :   -0.012287
  18 C :   -0.121322
  19 C :   -0.089284
  20 C :   -0.019540
  21 C :   -0.098775
  22 C :    0.032135
  23 C :   -0.034803
  24 C :    0.007627
  25 C :    0.029143
  26 C :   -0.091502
  27 C :   -0.053103
  28 C :   -0.014646
  29 C :   -0.117904
  30 C :   -0.066381
  31 C :   -0.027472
  32 C :   -0.100172
  33 C :   -0.008230
  34 C :   -0.026934
  35 C :   -0.036499
  36 C :    0.022816
  37 C :   -0.110496
  38 C :   -0.027909
  39 C :   -0.035080
  40 C :   -0.113690
  41 C :   -0.094323
  42 C :    0.000667
  43 C :   -0.114961
  44 C :    0.026262
  45 C :   -0.014019
  46 C :   -0.024801
  47 C :    0.028043
  48 C :   -0.115786
  49 C :   -0.118895
  50 C :   -0.034202
  51 C :   -0.108468
  52 H :    0.042318
  53 H :    0.007889
  54 H :    0.056229
  55 H :    0.042438
  56 H :    0.040481
  57 H :    0.040230
  58 H :    0.039783
  59 H :   -0.000791
  60 H :    0.055713
  61 H :    0.062681
  62 H :    0.057613
  63 H :    0.028466
  64 H :   -0.005469
  65 H :    0.041366
  66 H :    0.029765
  67 H :    0.026142
  68 H :    0.030887
  69 H :    0.031177
  70 H :    0.003441
  71 H :    0.045363
  72 H :    0.021652
  73 H :    0.001743
  74 H :    0.037428
  75 H :    0.020614
  76 H :    0.019649
  77 H :    0.025649
  78 H :    0.025331
  79 H :    0.005686
  80 H :    0.036443
  81 H :    0.027808
  82 H :   -0.001449
  83 H :    0.044035
  84 H :    0.026504
  85 H :    0.024044
  86 H :    0.030264
  87 H :    0.029959
  88 H :   -0.005525
  89 H :    0.040331

  Mayer bond orders larger than 0.100000
B(  0-C ,  1-N ) :   1.2088 B(  0-C , 17-C ) :   1.5154 B(  0-C , 52-H ) :   0.9667
B(  1-N ,  8-C ) :   1.2013 B(  1-N , 10-C ) :   0.9256 B(  2-C , 12-C ) :   1.5804
B(  2-C , 16-C ) :   1.2725 B(  2-C , 53-H ) :   0.9793 B(  3-N , 14-C ) :   1.1747
B(  3-N , 16-C ) :   1.2023 B(  3-N , 61-H ) :   0.8953 B(  4-C ,  6-C ) :   1.3586
B(  4-C , 17-C ) :   1.3592 B(  4-C , 18-C ) :   1.0548 B(  5-N , 19-C ) :   1.3655
B(  5-N , 27-C ) :   1.4476 B(  6-C ,  8-C ) :   1.5175 B(  6-C , 54-H ) :   0.9706
B(  7-N , 30-C ) :   1.1833 B(  7-N , 38-C ) :   1.2160 B(  7-N , 62-H ) :   0.9014
B(  8-C , 55-H ) :   0.9676 B(  9-N , 41-C ) :   1.4341 B(  9-N , 49-C ) :   1.3937
B( 10-C , 56-H ) :   0.9767 B( 10-C , 57-H ) :   0.9808 B( 10-C , 58-H ) :   0.9815
B( 11-N , 20-C ) :   1.0969 B( 11-N , 24-C ) :   1.1348 B( 11-N , 25-C ) :   0.9622
B( 12-C , 14-C ) :   1.2730 B( 12-C , 59-H ) :   0.9770 B( 13-N , 31-C ) :   1.0826
B( 13-N , 35-C ) :   1.0717 B( 13-N , 36-C ) :   0.9823 B( 14-C , 18-C ) :   1.2630
B( 15-N , 42-C ) :   1.1259 B( 15-N , 46-C ) :   1.0891 B( 15-N , 47-C ) :   0.9665
B( 16-C , 51-C ) :   1.2483 B( 17-C , 60-H ) :   0.9709 B( 18-C , 19-C ) :   1.3107
B( 19-C , 21-C ) :   1.1629 B( 20-C , 28-C ) :   1.6287 B( 20-C , 63-H ) :   0.9709
B( 21-C , 26-C ) :   1.6823 B( 21-C , 64-H ) :   0.9718 B( 22-C , 23-C ) :   1.2556
B( 22-C , 28-C ) :   1.2802 B( 22-C , 29-C ) :   1.2555 B( 23-C , 24-C ) :   1.6346
B( 23-C , 65-H ) :   0.9722 B( 24-C , 66-H ) :   0.9690 B( 25-C , 67-H ) :   0.9762
B( 25-C , 68-H ) :   0.9834 B( 25-C , 69-H ) :   0.9818 B( 26-C , 27-C ) :   1.1718
B( 26-C , 70-H ) :   0.9757 B( 27-C , 29-C ) :   1.2427 B( 28-C , 71-H ) :   0.9709
B( 29-C , 30-C ) :   1.1765 B( 30-C , 32-C ) :   1.3498 B( 31-C , 39-C ) :   1.6846
B( 31-C , 72-H ) :   0.9709 B( 32-C , 37-C ) :   1.5103 B( 32-C , 73-H ) :   0.9771
B( 33-C , 34-C ) :   1.2329 B( 33-C , 39-C ) :   1.2248 B( 33-C , 40-C ) :   1.3574
B( 34-C , 35-C ) :   1.6831 B( 34-C , 74-H ) :   0.9709 B( 35-C , 75-H ) :   0.9709
B( 36-C , 76-H ) :   0.9755 B( 36-C , 77-H ) :   0.9826 B( 36-C , 78-H ) :   0.9838
B( 37-C , 38-C ) :   1.3433 B( 37-C , 79-H ) :   0.9793 B( 38-C , 40-C ) :   1.1794
B( 39-C , 80-H ) :   0.9721 B( 40-C , 41-C ) :   1.1679 B( 41-C , 43-C ) :   1.2574
B( 42-C , 50-C ) :   1.6425 B( 42-C , 81-H ) :   0.9696 B( 43-C , 48-C ) :   1.5936
B( 43-C , 82-H ) :   0.9756 B( 44-C , 45-C ) :   1.2805 B( 44-C , 50-C ) :   1.2487
B( 44-C , 51-C ) :   1.2483 B( 45-C , 46-C ) :   1.6334 B( 45-C , 83-H ) :   0.9702
B( 46-C , 84-H ) :   0.9709 B( 47-C , 85-H ) :   0.9760 B( 47-C , 86-H ) :   0.9826
B( 47-C , 87-H ) :   0.9830 B( 48-C , 49-C ) :   1.2518 B( 48-C , 88-H ) :   0.9726
B( 49-C , 51-C ) :   1.1880 B( 50-C , 89-H ) :   0.9722

MP2 TOTAL ENERGY:    -2130.872931122 Eh
FINAL SINGLE POINT ENERGY     -2130.872931122015

DIPOLE MOMENT
-------------
                                X             Y             Z
Electronic contribution:     -4.52835       5.22307      -0.15890
Nuclear contribution   :     -0.02339       0.17010       0.21466
                        -----------------------------------------
Total Dipole Moment    :     -4.55173       5.39317       0.05576
                        -----------------------------------------
Magnitude (a.u.)       :      7.05745
Magnitude (Debye)      :     17.93862

Rotational constants in cm-1:     0.001498     0.001472     0.000763
Rotational constants in MHz :    44.900088    44.140088    22.868725

                             ****ORCA TERMINATED NORMALLY****
TOTAL RUN TIME: 0 days 1 hours 32 minutes 7 seconds 109 msec
