                         Program Version 5.0.4 -  RELEASE  -
|  1> ! PAL2
|  2> ! mp2 cc-pvdz TightSCF  NoKeepInts
|  3>
|  4> %scf
|  5>   MaxCore 2000
|  6> end
|  7> %mp2
|  8>   MaxCore 2000
|  9> end
| 10> * xyz 0 1
| 11>    C       -4.71800         5.32900         0.84100
| 12>    C        1.47400         4.04100         0.05700
| 13>    C       -2.80200         4.09300         0.04900
| 14>    C       -2.47000         5.20900        -0.73400
| 15>    C       -3.26300         6.33900        -0.70300
| 16>    C       -5.17800         7.62600         0.11400
| 17>    C        0.13200         4.30700         0.06100
| 18>    C       -0.56900         3.05600         0.04700
| 19>    C        1.64900         2.61800         0.02300
| 20>    C       -3.95300         4.17800         0.84800
| 21>    N       -4.37000         6.38700         0.07400
| 22>    N        0.38800         2.06700         0.02500
| 23>    N       -2.01000         0.39500        -0.07500
| 24>    N       -0.38800        -2.07400        -0.02700
| 25>    N        2.01000        -0.40100         0.06500
| 26>    C       -1.96000         2.86100         0.02400
| 27>    C       -2.62300         1.61500        -0.01800
| 28>    C       -5.57300        -4.32900         1.06600
| 29>    C       -4.07300         1.47100         0.05600
| 30>    C       -4.10600        -2.75600        -0.02600
| 31>    C       -4.99500        -2.75700        -1.11100
| 32>    C       -6.13200        -3.54200        -1.07600
| 33>    C       -7.65100        -5.11300         0.04000
| 34>    C       -4.32400         0.14100         0.03700
| 35>    C       -3.02500        -0.52000        -0.04800
| 36>    C       -4.42200        -3.56600         1.07500
| 37>    N       -6.40700        -4.31300         0.00100
| 38>    C       -2.86700        -1.92200        -0.04000
| 39>    C       -1.65000        -2.62400        -0.02700
| 40>    C        3.56800        -6.14200        -1.04000
| 41>    C       -1.47600        -4.04900        -0.03400
| 42>    C        2.80300        -4.09900        -0.00800
| 43>    C        3.65700        -4.38400         1.06900
| 44>    C        4.42700        -5.53000         1.05900
| 45>    C        5.24500        -7.58800         0.01400
| 46>    C       -0.13400        -4.31500        -0.02200
| 47>    C        0.56800        -3.06400        -0.02700
| 48>    C        2.77500        -5.01200        -1.07400
| 49>    N        4.37600        -6.39100         0.01700
| 50>    C        1.95900        -2.86900        -0.00900
| 51>    C        2.62100        -1.62200         0.00900
| 52>    C        5.54300         4.33900        -1.13000
| 53>    C        4.07000        -1.47900        -0.09400
| 54>    C        4.10400         2.75100        -0.02100
| 55>    C        5.02700         2.72900         1.03600
| 56>    C        6.16600         3.50900         0.97800
| 57>    C        7.61900         5.15300        -0.11500
| 58>    C        4.32100        -0.14800        -0.09200
| 59>    C        3.02500         0.51400         0.01500
| 60>    C        4.38700         3.58200        -1.11500
| 61>    C        2.86600         1.91600         0.01300
| 62>    N        6.41300         4.29600        -0.09500
| 63>    H       -5.61900         5.43400         1.43200
| 64>    H        2.27400         4.76600         0.08100
| 65>    H       -1.58900         5.20800        -1.36400
| 66>    H       -3.04300         7.22600        -1.28200
| 67>    H       -4.75300         8.30300         0.85900
| 68>    H       -5.15700         8.09100        -0.87100
| 69>    H       -6.20200         7.36800         0.38300
| 70>    H       -0.33200         5.28200         0.06900
| 71>    H       -4.27000         3.34500         1.46400
| 72>    H        0.18200         1.07200         0.00500
| 73>    H       -0.18300        -1.08000        -0.02100
| 74>    H       -5.86400        -4.96200         1.89500
| 75>    H       -4.79400         2.27200         0.13900
| 76>    H       -4.80000        -2.16000        -1.99400
| 77>    H       -6.84100        -3.58200        -1.89300
| 78>    H       -8.42800        -4.53600         0.54600
| 79>    H       -7.95600        -5.33700        -0.98100
| 80>    H       -7.45600        -6.03700         0.58400
| 81>    H       -5.28700        -0.34400         0.10000
| 82>    H       -3.78000        -3.60100         1.94700
| 83>    H        3.58700        -6.86800        -1.84300
| 84>    H       -2.27600        -4.77400        -0.05000
| 85>    H        3.71400        -3.72400         1.92600
| 86>    H        5.09200        -5.79500         1.87100
| 87>    H        6.20500        -7.32900        -0.43900
| 88>    H        5.39300        -7.91700         1.04200
| 89>    H        4.75900        -8.37300        -0.56400
| 90>    H        0.32900        -5.29000        -0.00800
| 91>    H        2.14600        -4.84200        -1.94000
| 92>    H        5.80800         4.98600        -1.95600
| 93>    H        4.78800        -2.28100        -0.18500
| 94>    H        4.86000         2.11400         1.91200
| 95>    H        6.90100         3.53100         1.77200
| 96>    H        7.38300         6.10900         0.35600
| 97>    H        8.41400         4.65200         0.43500
| 98>    H        7.92100         5.31000        -1.15000
| 99>    H        5.28300         0.33600        -0.17900
|100>    H        3.72000         3.63200        -1.96700
|101> *
|102>
|103>                          ****END OF INPUT****

CARTESIAN COORDINATES (ANGSTROEM)
---------------------------------
  C     -4.718000    5.329000    0.841000
  C      1.474000    4.041000    0.057000
  C     -2.802000    4.093000    0.049000
  C     -2.470000    5.209000   -0.734000
  C     -3.263000    6.339000   -0.703000
  C     -5.178000    7.626000    0.114000
  C      0.132000    4.307000    0.061000
  C     -0.569000    3.056000    0.047000
  C      1.649000    2.618000    0.023000
  C     -3.953000    4.178000    0.848000
  N     -4.370000    6.387000    0.074000
  N      0.388000    2.067000    0.025000
  N     -2.010000    0.395000   -0.075000
  N     -0.388000   -2.074000   -0.027000
  N      2.010000   -0.401000    0.065000
  C     -1.960000    2.861000    0.024000
  C     -2.623000    1.615000   -0.018000
  C     -5.573000   -4.329000    1.066000
  C     -4.073000    1.471000    0.056000
  C     -4.106000   -2.756000   -0.026000
  C     -4.995000   -2.757000   -1.111000
  C     -6.132000   -3.542000   -1.076000
  C     -7.651000   -5.113000    0.040000
  C     -4.324000    0.141000    0.037000
  C     -3.025000   -0.520000   -0.048000
  C     -4.422000   -3.566000    1.075000
  N     -6.407000   -4.313000    0.001000
  C     -2.867000   -1.922000   -0.040000
  C     -1.650000   -2.624000   -0.027000
  C      3.568000   -6.142000   -1.040000
  C     -1.476000   -4.049000   -0.034000
  C      2.803000   -4.099000   -0.008000
  C      3.657000   -4.384000    1.069000
  C      4.427000   -5.530000    1.059000
  C      5.245000   -7.588000    0.014000
  C     -0.134000   -4.315000   -0.022000
  C      0.568000   -3.064000   -0.027000
  C      2.775000   -5.012000   -1.074000
  N      4.376000   -6.391000    0.017000
  C      1.959000   -2.869000   -0.009000
  C      2.621000   -1.622000    0.009000
  C      5.543000    4.339000   -1.130000
  C      4.070000   -1.479000   -0.094000
  C      4.104000    2.751000   -0.021000
  C      5.027000    2.729000    1.036000
  C      6.166000    3.509000    0.978000
  C      7.619000    5.153000   -0.115000
  C      4.321000   -0.148000   -0.092000
  C      3.025000    0.514000    0.015000
  C      4.387000    3.582000   -1.115000
  C      2.866000    1.916000    0.013000
  N      6.413000    4.296000   -0.095000
  H     -5.619000    5.434000    1.432000
  H      2.274000    4.766000    0.081000
  H     -1.589000    5.208000   -1.364000
  H     -3.043000    7.226000   -1.282000
  H     -4.753000    8.303000    0.859000
  H     -5.157000    8.091000   -0.871000
  H     -6.202000    7.368000    0.383000
  H     -0.332000    5.282000    0.069000
  H     -4.270000    3.345000    1.464000
  H      0.182000    1.072000    0.005000
  H     -0.183000   -1.080000   -0.021000
  H     -5.864000   -4.962000    1.895000
  H     -4.794000    2.272000    0.139000
  H     -4.800000   -2.160000   -1.994000
  H     -6.841000   -3.582000   -1.893000
  H     -8.428000   -4.536000    0.546000
  H     -7.956000   -5.337000   -0.981000
  H     -7.456000   -6.037000    0.584000
  H     -5.287000   -0.344000    0.100000
  H     -3.780000   -3.601000    1.947000
  H      3.587000   -6.868000   -1.843000
  H     -2.276000   -4.774000   -0.050000
  H      3.714000   -3.724000    1.926000
  H      5.092000   -5.795000    1.871000
  H      6.205000   -7.329000   -0.439000
  H      5.393000   -7.917000    1.042000
  H      4.759000   -8.373000   -0.564000
  H      0.329000   -5.290000   -0.008000
  H      2.146000   -4.842000   -1.940000
  H      5.808000    4.986000   -1.956000
  H      4.788000   -2.281000   -0.185000
  H      4.860000    2.114000    1.912000
  H      6.901000    3.531000    1.772000
  H      7.383000    6.109000    0.356000
  H      8.414000    4.652000    0.435000
  H      7.921000    5.310000   -1.150000
  H      5.283000    0.336000   -0.179000
  H      3.720000    3.632000   -1.967000

 Total Charge           Charge          ....    0
 Multiplicity           Mult            ....    1
 Number of Electrons    NEL             ....  358
 Basis Dimension        Dim             ....  918

ORBITAL ENERGIES
----------------

  NO   OCC          E(Eh)            E(eV)
   0   2.0000     -15.662293      -426.1927
   1   2.0000     -15.636513      -425.4912
   2   2.0000     -15.629922      -425.3118
   3   2.0000     -15.600595      -424.5138
   4   2.0000     -15.523089      -422.4047
   5   2.0000     -15.516364      -422.2217
   6   2.0000     -15.449824      -420.4111
   7   2.0000     -15.442645      -420.2157
   8   2.0000     -11.317109      -307.9542
   9   2.0000     -11.315161      -307.9012
  10   2.0000     -11.313266      -307.8496
  11   2.0000     -11.300886      -307.5127
  12   2.0000     -11.297025      -307.4077
  13   2.0000     -11.294162      -307.3298
  14   2.0000     -11.289713      -307.2087
  15   2.0000     -11.288461      -307.1747
  16   2.0000     -11.285714      -307.0999
  17   2.0000     -11.279403      -306.9282
  18   2.0000     -11.265583      -306.5521
  19   2.0000     -11.264249      -306.5158
  20   2.0000     -11.263582      -306.4976
  21   2.0000     -11.251025      -306.1560
  22   2.0000     -11.250102      -306.1308
  23   2.0000     -11.240011      -305.8563
  24   2.0000     -11.234615      -305.7094
  25   2.0000     -11.232948      -305.6640
  26   2.0000     -11.232158      -305.6426
  27   2.0000     -11.228167      -305.5340
  28   2.0000     -11.228055      -305.5309
  29   2.0000     -11.209840      -305.0353
  30   2.0000     -11.206882      -304.9548
  31   2.0000     -11.205912      -304.9284
  32   2.0000     -11.205100      -304.9063
  33   2.0000     -11.203198      -304.8545
  34   2.0000     -11.191359      -304.5324
  35   2.0000     -11.190743      -304.5156
  36   2.0000     -11.183475      -304.3178
  37   2.0000     -11.181231      -304.2568
  38   2.0000     -11.180488      -304.2366
  39   2.0000     -11.172816      -304.0278
  40   2.0000     -11.169071      -303.9259
  41   2.0000     -11.168290      -303.9046
  42   2.0000     -11.164809      -303.8099
  43   2.0000     -11.164508      -303.8017
  44   2.0000     -11.162834      -303.7561
  45   2.0000     -11.161144      -303.7102
  46   2.0000     -11.153995      -303.5156
  47   2.0000     -11.150254      -303.4138
  48   2.0000     -11.149877      -303.4036
  49   2.0000     -11.144783      -303.2650
  50   2.0000     -11.136406      -303.0370
  51   2.0000     -11.129884      -302.8595
  52   2.0000      -1.345484       -36.6125
  53   2.0000      -1.323388       -36.0112
  54   2.0000      -1.317868       -35.8610
  55   2.0000      -1.293528       -35.1987
  56   2.0000      -1.222925       -33.2775
  57   2.0000      -1.211395       -32.9637
  58   2.0000      -1.167843       -31.7786
  59   2.0000      -1.154459       -31.4144
  60   2.0000      -1.131055       -30.7776
  61   2.0000      -1.111889       -30.2560
  62   2.0000      -1.107378       -30.1333
  63   2.0000      -1.087750       -29.5992
  64   2.0000      -1.068228       -29.0680
  65   2.0000      -1.047422       -28.5018
  66   2.0000      -1.042584       -28.3702
  67   2.0000      -1.033152       -28.1135
  68   2.0000      -1.020908       -27.7803
  69   2.0000      -1.013279       -27.5727
  70   2.0000      -1.009759       -27.4770
  71   2.0000      -0.993006       -27.0211
  72   2.0000      -0.987004       -26.8577
  73   2.0000      -0.976199       -26.5637
  74   2.0000      -0.973187       -26.4818
  75   2.0000      -0.959577       -26.1114
  76   2.0000      -0.950885       -25.8749
  77   2.0000      -0.948165       -25.8009
  78   2.0000      -0.936644       -25.4874
  79   2.0000      -0.921658       -25.0796
  80   2.0000      -0.899344       -24.4724
  81   2.0000      -0.890183       -24.2231
  82   2.0000      -0.874793       -23.8043
  83   2.0000      -0.870424       -23.6854
  84   2.0000      -0.865093       -23.5404
  85   2.0000      -0.855669       -23.2839
  86   2.0000      -0.845556       -23.0088
  87   2.0000      -0.838487       -22.8164
  88   2.0000      -0.822629       -22.3849
  89   2.0000      -0.798639       -21.7321
  90   2.0000      -0.795026       -21.6338
  91   2.0000      -0.744343       -20.2546
  92   2.0000      -0.737422       -20.0663
  93   2.0000      -0.731372       -19.9016
  94   2.0000      -0.722594       -19.6628
  95   2.0000      -0.720701       -19.6113
  96   2.0000      -0.713769       -19.4227
  97   2.0000      -0.706710       -19.2306
  98   2.0000      -0.702520       -19.1165
  99   2.0000      -0.695743       -18.9321
 100   2.0000      -0.693504       -18.8712
 101   2.0000      -0.681828       -18.5535
 102   2.0000      -0.678764       -18.4701
 103   2.0000      -0.675629       -18.3848
 104   2.0000      -0.672913       -18.3109
 105   2.0000      -0.671578       -18.2746
 106   2.0000      -0.664414       -18.0796
 107   2.0000      -0.662790       -18.0354
 108   2.0000      -0.655445       -17.8356
 109   2.0000      -0.654181       -17.8012
 110   2.0000      -0.650350       -17.6969
 111   2.0000      -0.647474       -17.6187
 112   2.0000      -0.643111       -17.4999
 113   2.0000      -0.637575       -17.3493
 114   2.0000      -0.633380       -17.2351
 115   2.0000      -0.631325       -17.1792
 116   2.0000      -0.625267       -17.0144
 117   2.0000      -0.615507       -16.7488
 118   2.0000      -0.614211       -16.7135
 119   2.0000      -0.611364       -16.6361
 120   2.0000      -0.609814       -16.5939
 121   2.0000      -0.601877       -16.3779
 122   2.0000      -0.599906       -16.3243
 123   2.0000      -0.589694       -16.0464
 124   2.0000      -0.586639       -15.9633
 125   2.0000      -0.582849       -15.8601
 126   2.0000      -0.579318       -15.7640
 127   2.0000      -0.576619       -15.6906
 128   2.0000      -0.563625       -15.3370
 129   2.0000      -0.558500       -15.1976
 130   2.0000      -0.554446       -15.0872
 131   2.0000      -0.549075       -14.9411
 132   2.0000      -0.541507       -14.7351
 133   2.0000      -0.537921       -14.6376
 134   2.0000      -0.535023       -14.5587
 135   2.0000      -0.534063       -14.5326
 136   2.0000      -0.526203       -14.3187
 137   2.0000      -0.524476       -14.2717
 138   2.0000      -0.516641       -14.0585
 139   2.0000      -0.516125       -14.0445
 140   2.0000      -0.511006       -13.9052
 141   2.0000      -0.509728       -13.8704
 142   2.0000      -0.508118       -13.8266
 143   2.0000      -0.502301       -13.6683
 144   2.0000      -0.501327       -13.6418
 145   2.0000      -0.498058       -13.5528
 146   2.0000      -0.494322       -13.4512
 147   2.0000      -0.486883       -13.2487
 148   2.0000      -0.485243       -13.2041
 149   2.0000      -0.468803       -12.7568
 150   2.0000      -0.463669       -12.6171
 151   2.0000      -0.455795       -12.4028
 152   2.0000      -0.448534       -12.2052
 153   2.0000      -0.446461       -12.1488
 154   2.0000      -0.445044       -12.1103
 155   2.0000      -0.440749       -11.9934
 156   2.0000      -0.432309       -11.7637
 157   2.0000      -0.426745       -11.6123
 158   2.0000      -0.399420       -10.8688
 159   2.0000      -0.387255       -10.5377
 160   2.0000      -0.378343       -10.2952
 161   2.0000      -0.375715       -10.2237
 162   2.0000      -0.370547       -10.0831
 163   2.0000      -0.358230        -9.7479
 164   2.0000      -0.354322        -9.6416
 165   2.0000      -0.337856        -9.1935
 166   2.0000      -0.336822        -9.1654
 167   2.0000      -0.332977        -9.0608
 168   2.0000      -0.327658        -8.9160
 169   2.0000      -0.301337        -8.1998
 170   2.0000      -0.299865        -8.1597
 171   2.0000      -0.287368        -7.8197
 172   2.0000      -0.284851        -7.7512
 173   2.0000      -0.259928        -7.0730
 174   2.0000      -0.245618        -6.6836
 175   2.0000      -0.189376        -5.1532
 176   2.0000      -0.179563        -4.8862
 177   2.0000      -0.071797        -1.9537
 178   2.0000      -0.056808        -1.5458
 179   0.0000       0.029271         0.7965
 180   0.0000       0.068339         1.8596
 181   0.0000       0.092183         2.5084
 182   0.0000       0.104494         2.8434
 183   0.0000       0.117914         3.2086

MULLIKEN ATOMIC CHARGES
-----------------------
   0 C :    0.208428
   1 N :   -0.451514
   2 C :   -0.062715
   3 N :   -0.335985
   4 C :   -0.050187
   5 N :   -0.562891
   6 C :   -0.101638
   7 N :   -0.339344
   8 C :    0.203941
   9 N :   -0.562709
  10 C :    0.117763
  11 N :   -0.437859
  12 C :   -0.082926
  13 N :   -0.433580
  14 C :    0.241397
  15 N :   -0.441085
  16 C :    0.228511
  17 C :   -0.104177
  18 C :   -0.208748
  19 C :    0.235324
  20 C :    0.211831
  21 C :   -0.095060
  22 C :   -0.089879
  23 C :   -0.042671
  24 C :    0.198075
  25 C :    0.114248
  26 C :   -0.074189
  27 C :    0.214805
  28 C :   -0.058435
  29 C :   -0.180937
  30 C :    0.241992
  31 C :    0.222978
  32 C :   -0.063035
  33 C :   -0.068639
  34 C :   -0.050415
  35 C :    0.218603
  36 C :    0.110537
  37 C :   -0.065393
  38 C :    0.233734
  39 C :   -0.059302
  40 C :   -0.184285
  41 C :    0.223950
  42 C :    0.199176
  43 C :   -0.072741
  44 C :   -0.089746
  45 C :   -0.058067
  46 C :    0.208221
  47 C :    0.115539
  48 C :   -0.069753
  49 C :    0.234160
  50 C :   -0.048935
  51 C :   -0.190471
  52 H :    0.044448
  53 H :   -0.015499
  54 H :    0.048321
  55 H :    0.042262
  56 H :    0.051944
  57 H :    0.050210
  58 H :    0.050173
  59 H :   -0.001512
  60 H :    0.051330
  61 H :    0.171678
  62 H :    0.174526
  63 H :    0.055968
  64 H :   -0.009447
  65 H :    0.047620
  66 H :    0.056732
  67 H :    0.062652
  68 H :    0.057788
  69 H :    0.057407
  70 H :   -0.027487
  71 H :    0.045992
  72 H :    0.065604
  73 H :   -0.010218
  74 H :    0.055125
  75 H :    0.064837
  76 H :    0.069904
  77 H :    0.064174
  78 H :    0.063416
  79 H :   -0.015420
  80 H :    0.055797
  81 H :    0.053626
  82 H :   -0.024308
  83 H :    0.042250
  84 H :    0.053670
  85 H :    0.060065
  86 H :    0.055711
  87 H :    0.056778
  88 H :   -0.017024
  89 H :    0.045008
Sum of atomic charges:   -0.0000000

LOEWDIN ATOMIC CHARGES
----------------------
   0 C :   -0.016124
   1 N :    0.121013
   2 C :   -0.100932
   3 N :    0.182416
   4 C :    0.004981
   5 N :   -0.133981
   6 C :   -0.034991
   7 N :    0.176546
   8 C :   -0.019391
   9 N :   -0.140070
  10 C :    0.025270
  11 N :    0.143307
  12 C :   -0.108239
  13 N :    0.156625
  14 C :   -0.034898
  15 N :    0.138285
  16 C :   -0.055294
  17 C :   -0.036334
  18 C :   -0.103383
  19 C :   -0.083698
  20 C :    0.003506
  21 C :   -0.114674
  22 C :    0.038879
  23 C :   -0.016219
  24 C :   -0.008297
  25 C :    0.030120
  26 C :   -0.105225
  27 C :   -0.109442
  28 C :   -0.025210
  29 C :   -0.102168
  30 C :   -0.035989
  31 C :    0.015710
  32 C :   -0.096151
  33 C :    0.065634
  34 C :   -0.016697
  35 C :    0.012101
  36 C :    0.033078
  37 C :   -0.097030
  38 C :   -0.047714
  39 C :   -0.020618
  40 C :   -0.108401
  41 C :   -0.092454
  42 C :   -0.009141
  43 C :   -0.101204
  44 C :    0.032731
  45 C :   -0.026011
  46 C :   -0.001122
  47 C :    0.029340
  48 C :   -0.098325
  49 C :   -0.076889
  50 C :   -0.020792
  51 C :   -0.108605
  52 H :    0.025543
  53 H :    0.003610
  54 H :    0.040682
  55 H :    0.024704
  56 H :    0.022965
  57 H :    0.027420
  58 H :    0.028325
  59 H :    0.008121
  60 H :    0.042422
  61 H :    0.060195
  62 H :    0.061373
  63 H :    0.030943
  64 H :    0.003280
  65 H :    0.045924
  66 H :    0.029869
  67 H :    0.028375
  68 H :    0.031877
  69 H :    0.030750
  70 H :   -0.003439
  71 H :    0.044141
  72 H :    0.035042
  73 H :    0.006049
  74 H :    0.048478
  75 H :    0.034514
  76 H :    0.032195
  77 H :    0.034384
  78 H :    0.034052
  79 H :    0.003541
  80 H :    0.048311
  81 H :    0.028829
  82 H :   -0.002399
  83 H :    0.042837
  84 H :    0.029541
  85 H :    0.026996
  86 H :    0.030230
  87 H :    0.031199
  88 H :    0.001174
  89 H :    0.044116

  Mayer bond orders larger than 0.100000
B(  0-C ,  1-N ) :   1.0969 B(  0-C , 17-C ) :   1.6859 B(  0-C , 52-H ) :   0.9682
B(  1-N ,  8-C ) :   1.0931 B(  1-N , 10-C ) :   0.9735 B(  2-C , 12-C ) :   1.5183
B(  2-C , 16-C ) :   1.3457 B(  2-C , 53-H ) :   0.9764 B(  3-N , 14-C ) :   1.2144
B(  3-N , 16-C ) :   1.1928 B(  3-N , 61-H ) :   0.8990 B(  4-C ,  6-C ) :   1.2252
B(  4-C , 17-C ) :   1.2245 B(  4-C , 18-C ) :   1.3881 B(  5-N , 19-C ) :   1.4438
B(  5-N , 27-C ) :   1.3858 B(  6-C ,  8-C ) :   1.6849 B(  6-C , 54-H ) :   0.9658
B(  7-N , 30-C ) :   1.1951 B(  7-N , 38-C ) :   1.1948 B(  7-N , 62-H ) :   0.8973
B(  8-C , 55-H ) :   0.9690 B(  9-N , 41-C ) :   1.3986 B(  9-N , 49-C ) :   1.4225
B( 10-C , 56-H ) :   0.9767 B( 10-C , 57-H ) :   0.9821 B( 10-C , 58-H ) :   0.9842
B( 11-N , 20-C ) :   1.1294 B( 11-N , 24-C ) :   1.1129 B( 11-N , 25-C ) :   0.9592
B( 12-C , 14-C ) :   1.3468 B( 12-C , 59-H ) :   0.9743 B( 13-N , 31-C ) :   1.1468
B( 13-N , 35-C ) :   1.1423 B( 13-N , 36-C ) :   0.9485 B( 14-C , 18-C ) :   1.1499
B( 15-N , 42-C ) :   1.1100 B( 15-N , 46-C ) :   1.1198 B( 15-N , 47-C ) :   0.9619
B( 16-C , 51-C ) :   1.1798 B( 17-C , 60-H ) :   0.9653 B( 18-C , 19-C ) :   1.1583
B( 19-C , 21-C ) :   1.2326 B( 20-C , 28-C ) :   1.6260 B( 20-C , 63-H ) :   0.9702
B( 21-C , 26-C ) :   1.6243 B( 21-C , 64-H ) :   0.9700 B( 22-C , 23-C ) :   1.2885
B( 22-C , 28-C ) :   1.2682 B( 22-C , 29-C ) :   1.2227 B( 23-C , 24-C ) :   1.6184
B( 23-C , 65-H ) :   0.9705 B( 24-C , 66-H ) :   0.9693 B( 25-C , 67-H ) :   0.9761
B( 25-C , 68-H ) :   0.9828 B( 25-C , 69-H ) :   0.9822 B( 26-C , 27-C ) :   1.2288
B( 26-C , 70-H ) :   0.9718 B( 27-C , 29-C ) :   1.2220 B( 28-C , 71-H ) :   0.9718
B( 29-C , 30-C ) :   1.2301 B( 30-C , 32-C ) :   1.2934 B( 31-C , 39-C ) :   1.6048
B( 31-C , 72-H ) :   0.9687 B( 32-C , 37-C ) :   1.5654 B( 32-C , 73-H ) :   0.9783
B( 33-C , 34-C ) :   1.2951 B( 33-C , 39-C ) :   1.2895 B( 33-C , 40-C ) :   1.2040
B( 34-C , 35-C ) :   1.6017 B( 34-C , 74-H ) :   0.9700 B( 35-C , 75-H ) :   0.9687
B( 36-C , 76-H ) :   0.9766 B( 36-C , 77-H ) :   0.9818 B( 36-C , 78-H ) :   0.9826
B( 37-C , 38-C ) :   1.2967 B( 37-C , 79-H ) :   0.9770 B( 38-C , 40-C ) :   1.2228
B( 39-C , 80-H ) :   0.9709 B( 40-C , 41-C ) :   1.2391 B( 41-C , 43-C ) :   1.1956
B( 42-C , 50-C ) :   1.6339 B( 42-C , 81-H ) :   0.9697 B( 43-C , 48-C ) :   1.6565
B( 43-C , 82-H ) :   0.9727 B( 44-C , 45-C ) :   1.2656 B( 44-C , 50-C ) :   1.2698
B( 44-C , 51-C ) :   1.2598 B( 45-C , 46-C ) :   1.6347 B( 45-C , 83-H ) :   0.9716
B( 46-C , 84-H ) :   0.9701 B( 47-C , 85-H ) :   0.9761 B( 47-C , 86-H ) :   0.9829
B( 47-C , 87-H ) :   0.9825 B( 48-C , 49-C ) :   1.1980 B( 48-C , 88-H ) :   0.9745
B( 49-C , 51-C ) :   1.2335 B( 50-C , 89-H ) :   0.9711

MP2 TOTAL ENERGY:    -2130.906840875 Eh
FINAL SINGLE POINT ENERGY     -2130.906840874565

DIPOLE MOMENT
-------------
                                X             Y             Z
Electronic contribution:      1.50316      -3.06399      -0.14303
Nuclear contribution   :      0.07889       0.23979       0.14776
                        -----------------------------------------
Total Dipole Moment    :      1.58205      -2.82420       0.00473
                        -----------------------------------------
Magnitude (a.u.)       :      3.23713
Magnitude (Debye)      :      8.22813

Rotational constants in cm-1:     0.001500     0.001477     0.000761
Rotational constants in MHz :    44.955759    44.274021    22.817872

                             ****ORCA TERMINATED NORMALLY****
TOTAL RUN TIME: 0 days 1 hours 12 minutes 19 seconds 666 msec
