                         Program Version 5.0.4 -  RELEASE  -
|  1> ! PAL2
|  2> ! mp2 cc-pvdz TightSCF  NoKeepInts
|  3>
|  4> %scf
|  5>   MaxCore 2000
|  6> end
|  7> %mp2
|  8>   MaxCore 2000
|  9> end
| 10> * xyz 0 1
| 11>    C       -4.48100         5.48500         1.08100
| 12>    C        1.47400         4.04100         0.05700
| 13>    C       -2.80200         4.09300         0.04900
| 14>    C       -2.71700         5.04500        -0.97800
| 15>    C       -3.50700         6.17700        -0.94200
| 16>    C       -5.18100         7.62400         0.10400
| 17>    C        0.13200         4.30700         0.06100
| 18>    C       -0.56900         3.05600         0.04700
| 19>    C        1.64900         2.61800         0.02300
| 20>    C       -3.70800         4.34100         1.09200
| 21>    N       -4.37600         6.38300         0.07500
| 22>    N        0.38800         2.06700         0.02500
| 23>    N       -2.01000         0.39500        -0.07500
| 24>    N       -0.38800        -2.07400        -0.02700
| 25>    N        2.01000        -0.40100         0.06500
| 26>    C       -1.96000         2.86100         0.02400
| 27>    C       -2.62300         1.61500        -0.01800
| 28>    C       -5.57300        -4.32900         1.06600
| 29>    C       -4.07300         1.47100         0.05600
| 30>    C       -4.10600        -2.75600        -0.02600
| 31>    C       -4.99500        -2.75700        -1.11100
| 32>    C       -6.13200        -3.54200        -1.07600
| 33>    C       -7.65100        -5.11300         0.04000
| 34>    C       -4.32400         0.14100         0.03700
| 35>    C       -3.02500        -0.52000        -0.04800
| 36>    C       -4.42200        -3.56600         1.07500
| 37>    N       -6.40700        -4.31300         0.00100
| 38>    C       -2.86700        -1.92200        -0.04000
| 39>    C       -1.65000        -2.62400        -0.02700
| 40>    C        3.56800        -6.14200        -1.04000
| 41>    C       -1.47600        -4.04900        -0.03400
| 42>    C        2.80300        -4.09900        -0.00800
| 43>    C        3.65700        -4.38400         1.06900
| 44>    C        4.42700        -5.53000         1.05900
| 45>    C        5.24500        -7.58800         0.01400
| 46>    C       -0.13400        -4.31500        -0.02200
| 47>    C        0.56800        -3.06400        -0.02700
| 48>    C        2.77500        -5.01200        -1.07400
| 49>    N        4.37600        -6.39100         0.01700
| 50>    C        1.95900        -2.86900        -0.00900
| 51>    C        2.62100        -1.62200         0.00900
| 52>    C        5.54300         4.33900        -1.13000
| 53>    C        4.07000        -1.47900        -0.09400
| 54>    C        4.10400         2.75100        -0.02100
| 55>    C        5.02700         2.72900         1.03600
| 56>    C        6.16600         3.50900         0.97800
| 57>    C        7.61900         5.15300        -0.11500
| 58>    C        4.32100        -0.14800        -0.09200
| 59>    C        3.02500         0.51400         0.01500
| 60>    C        4.38700         3.58200        -1.11500
| 61>    C        2.86600         1.91600         0.01300
| 62>    N        6.41300         4.29600        -0.09500
| 63>    H       -5.20200         5.71100         1.85800
| 64>    H        2.27400         4.76600         0.08100
| 65>    H       -2.03000         4.91500        -1.80600
| 66>    H       -3.47100         6.94200        -1.70600
| 67>    H       -4.59800         8.41500         0.58100
| 68>    H       -5.43000         7.90500        -0.91900
| 69>    H       -6.09200         7.43700         0.67200
| 70>    H       -0.33200         5.28200         0.06900
| 71>    H       -3.83000         3.63700         1.90700
| 72>    H        0.18200         1.07200         0.00500
| 73>    H       -0.18300        -1.08000        -0.02100
| 74>    H       -5.86400        -4.96200         1.89500
| 75>    H       -4.79400         2.27200         0.13900
| 76>    H       -4.80000        -2.16000        -1.99400
| 77>    H       -6.84100        -3.58200        -1.89300
| 78>    H       -8.42800        -4.53600         0.54600
| 79>    H       -7.95600        -5.33700        -0.98100
| 80>    H       -7.45600        -6.03700         0.58400
| 81>    H       -5.28700        -0.34400         0.10000
| 82>    H       -3.78000        -3.60100         1.94700
| 83>    H        3.58700        -6.86800        -1.84300
| 84>    H       -2.27600        -4.77400        -0.05000
| 85>    H        3.71400        -3.72400         1.92600
| 86>    H        5.09200        -5.79500         1.87100
| 87>    H        6.20500        -7.32900        -0.43900
| 88>    H        5.39300        -7.91700         1.04200
| 89>    H        4.75900        -8.37300        -0.56400
| 90>    H        0.32900        -5.29000        -0.00800
| 91>    H        2.14600        -4.84200        -1.94000
| 92>    H        5.80800         4.98600        -1.95600
| 93>    H        4.78800        -2.28100        -0.18500
| 94>    H        4.86000         2.11400         1.91200
| 95>    H        6.90100         3.53100         1.77200
| 96>    H        7.38300         6.10900         0.35600
| 97>    H        8.41400         4.65200         0.43500
| 98>    H        7.92100         5.31000        -1.15000
| 99>    H        5.28300         0.33600        -0.17900
|100>    H        3.72000         3.63200        -1.96700
|101> *
|102>
|103>                          ****END OF INPUT****

CARTESIAN COORDINATES (ANGSTROEM)
---------------------------------
  C     -4.481000    5.485000    1.081000
  C      1.474000    4.041000    0.057000
  C     -2.802000    4.093000    0.049000
  C     -2.717000    5.045000   -0.978000
  C     -3.507000    6.177000   -0.942000
  C     -5.181000    7.624000    0.104000
  C      0.132000    4.307000    0.061000
  C     -0.569000    3.056000    0.047000
  C      1.649000    2.618000    0.023000
  C     -3.708000    4.341000    1.092000
  N     -4.376000    6.383000    0.075000
  N      0.388000    2.067000    0.025000
  N     -2.010000    0.395000   -0.075000
  N     -0.388000   -2.074000   -0.027000
  N      2.010000   -0.401000    0.065000
  C     -1.960000    2.861000    0.024000
  C     -2.623000    1.615000   -0.018000
  C     -5.573000   -4.329000    1.066000
  C     -4.073000    1.471000    0.056000
  C     -4.106000   -2.756000   -0.026000
  C     -4.995000   -2.757000   -1.111000
  C     -6.132000   -3.542000   -1.076000
  C     -7.651000   -5.113000    0.040000
  C     -4.324000    0.141000    0.037000
  C     -3.025000   -0.520000   -0.048000
  C     -4.422000   -3.566000    1.075000
  N     -6.407000   -4.313000    0.001000
  C     -2.867000   -1.922000   -0.040000
  C     -1.650000   -2.624000   -0.027000
  C      3.568000   -6.142000   -1.040000
  C     -1.476000   -4.049000   -0.034000
  C      2.803000   -4.099000   -0.008000
  C      3.657000   -4.384000    1.069000
  C      4.427000   -5.530000    1.059000
  C      5.245000   -7.588000    0.014000
  C     -0.134000   -4.315000   -0.022000
  C      0.568000   -3.064000   -0.027000
  C      2.775000   -5.012000   -1.074000
  N      4.376000   -6.391000    0.017000
  C      1.959000   -2.869000   -0.009000
  C      2.621000   -1.622000    0.009000
  C      5.543000    4.339000   -1.130000
  C      4.070000   -1.479000   -0.094000
  C      4.104000    2.751000   -0.021000
  C      5.027000    2.729000    1.036000
  C      6.166000    3.509000    0.978000
  C      7.619000    5.153000   -0.115000
  C      4.321000   -0.148000   -0.092000
  C      3.025000    0.514000    0.015000
  C      4.387000    3.582000   -1.115000
  C      2.866000    1.916000    0.013000
  N      6.413000    4.296000   -0.095000
  H     -5.202000    5.711000    1.858000
  H      2.274000    4.766000    0.081000
  H     -2.030000    4.915000   -1.806000
  H     -3.471000    6.942000   -1.706000
  H     -4.598000    8.415000    0.581000
  H     -5.430000    7.905000   -0.919000
  H     -6.092000    7.437000    0.672000
  H     -0.332000    5.282000    0.069000
  H     -3.830000    3.637000    1.907000
  H      0.182000    1.072000    0.005000
  H     -0.183000   -1.080000   -0.021000
  H     -5.864000   -4.962000    1.895000
  H     -4.794000    2.272000    0.139000
  H     -4.800000   -2.160000   -1.994000
  H     -6.841000   -3.582000   -1.893000
  H     -8.428000   -4.536000    0.546000
  H     -7.956000   -5.337000   -0.981000
  H     -7.456000   -6.037000    0.584000
  H     -5.287000   -0.344000    0.100000
  H     -3.780000   -3.601000    1.947000
  H      3.587000   -6.868000   -1.843000
  H     -2.276000   -4.774000   -0.050000
  H      3.714000   -3.724000    1.926000
  H      5.092000   -5.795000    1.871000
  H      6.205000   -7.329000   -0.439000
  H      5.393000   -7.917000    1.042000
  H      4.759000   -8.373000   -0.564000
  H      0.329000   -5.290000   -0.008000
  H      2.146000   -4.842000   -1.940000
  H      5.808000    4.986000   -1.956000
  H      4.788000   -2.281000   -0.185000
  H      4.860000    2.114000    1.912000
  H      6.901000    3.531000    1.772000
  H      7.383000    6.109000    0.356000
  H      8.414000    4.652000    0.435000
  H      7.921000    5.310000   -1.150000
  H      5.283000    0.336000   -0.179000
  H      3.720000    3.632000   -1.967000

 Total Charge           Charge          ....    0
 Multiplicity           Mult            ....    1
 Number of Electrons    NEL             ....  358
 Basis Dimension        Dim             ....  918

ORBITAL ENERGIES
----------------

  NO   OCC          E(Eh)            E(eV)
   0   2.0000     -15.638991      -425.5586
   1   2.0000     -15.633121      -425.3989
   2   2.0000     -15.631996      -425.3682
   3   2.0000     -15.628616      -425.2763
   4   2.0000     -15.517233      -422.2454
   5   2.0000     -15.516651      -422.2295
   6   2.0000     -15.444587      -420.2686
   7   2.0000     -15.442267      -420.2055
   8   2.0000     -11.302371      -307.5531
   9   2.0000     -11.299130      -307.4650
  10   2.0000     -11.298223      -307.4403
  11   2.0000     -11.295919      -307.3776
  12   2.0000     -11.294073      -307.3273
  13   2.0000     -11.293973      -307.3246
  14   2.0000     -11.290535      -307.2311
  15   2.0000     -11.289807      -307.2113
  16   2.0000     -11.289432      -307.2011
  17   2.0000     -11.287344      -307.1442
  18   2.0000     -11.285987      -307.1073
  19   2.0000     -11.285054      -307.0819
  20   2.0000     -11.242204      -305.9159
  21   2.0000     -11.238198      -305.8069
  22   2.0000     -11.236755      -305.7676
  23   2.0000     -11.234150      -305.6967
  24   2.0000     -11.233360      -305.6753
  25   2.0000     -11.232968      -305.6646
  26   2.0000     -11.230347      -305.5933
  27   2.0000     -11.229163      -305.5611
  28   2.0000     -11.229154      -305.5608
  29   2.0000     -11.228296      -305.5375
  30   2.0000     -11.226634      -305.4922
  31   2.0000     -11.226431      -305.4867
  32   2.0000     -11.197650      -304.7036
  33   2.0000     -11.197570      -304.7014
  34   2.0000     -11.196032      -304.6595
  35   2.0000     -11.195683      -304.6500
  36   2.0000     -11.173274      -304.0402
  37   2.0000     -11.172535      -304.0201
  38   2.0000     -11.170689      -303.9699
  39   2.0000     -11.169587      -303.9399
  40   2.0000     -11.169233      -303.9303
  41   2.0000     -11.169006      -303.9241
  42   2.0000     -11.167754      -303.8900
  43   2.0000     -11.166474      -303.8552
  44   2.0000     -11.157156      -303.6017
  45   2.0000     -11.155304      -303.5513
  46   2.0000     -11.154830      -303.5384
  47   2.0000     -11.153380      -303.4989
  48   2.0000     -11.144808      -303.2657
  49   2.0000     -11.142809      -303.2112
  50   2.0000     -11.140471      -303.1476
  51   2.0000     -11.138968      -303.1067
  52   2.0000      -1.325445       -36.0672
  53   2.0000      -1.320730       -35.9389
  54   2.0000      -1.319558       -35.9070
  55   2.0000      -1.316465       -35.8228
  56   2.0000      -1.215878       -33.0857
  57   2.0000      -1.213609       -33.0240
  58   2.0000      -1.161854       -31.6156
  59   2.0000      -1.156249       -31.4631
  60   2.0000      -1.114552       -30.3285
  61   2.0000      -1.109308       -30.1858
  62   2.0000      -1.108554       -30.1653
  63   2.0000      -1.104438       -30.0533
  64   2.0000      -1.049214       -28.5506
  65   2.0000      -1.045418       -28.4473
  66   2.0000      -1.043991       -28.4084
  67   2.0000      -1.041053       -28.3285
  68   2.0000      -1.025932       -27.9170
  69   2.0000      -1.010157       -27.4878
  70   2.0000      -1.008062       -27.4308
  71   2.0000      -0.999104       -27.1870
  72   2.0000      -0.979598       -26.6562
  73   2.0000      -0.977282       -26.5932
  74   2.0000      -0.967095       -26.3160
  75   2.0000      -0.962131       -26.1809
  76   2.0000      -0.952155       -25.9095
  77   2.0000      -0.943582       -25.6762
  78   2.0000      -0.939558       -25.5667
  79   2.0000      -0.923515       -25.1301
  80   2.0000      -0.892399       -24.2834
  81   2.0000      -0.876420       -23.8486
  82   2.0000      -0.873351       -23.7651
  83   2.0000      -0.870495       -23.6874
  84   2.0000      -0.867120       -23.5955
  85   2.0000      -0.856612       -23.3096
  86   2.0000      -0.848426       -23.0869
  87   2.0000      -0.844364       -22.9763
  88   2.0000      -0.821929       -22.3658
  89   2.0000      -0.798296       -21.7227
  90   2.0000      -0.797979       -21.7141
  91   2.0000      -0.738973       -20.1085
  92   2.0000      -0.728046       -19.8111
  93   2.0000      -0.727475       -19.7956
  94   2.0000      -0.722298       -19.6547
  95   2.0000      -0.718757       -19.5584
  96   2.0000      -0.711880       -19.3712
  97   2.0000      -0.711113       -19.3504
  98   2.0000      -0.698092       -18.9960
  99   2.0000      -0.691158       -18.8074
 100   2.0000      -0.683170       -18.5900
 101   2.0000      -0.680294       -18.5117
 102   2.0000      -0.677562       -18.4374
 103   2.0000      -0.674841       -18.3634
 104   2.0000      -0.669773       -18.2254
 105   2.0000      -0.667261       -18.1571
 106   2.0000      -0.662834       -18.0366
 107   2.0000      -0.658170       -17.9097
 108   2.0000      -0.655145       -17.8274
 109   2.0000      -0.654036       -17.7972
 110   2.0000      -0.652578       -17.7575
 111   2.0000      -0.651096       -17.7172
 112   2.0000      -0.649947       -17.6860
 113   2.0000      -0.647934       -17.6312
 114   2.0000      -0.634407       -17.2631
 115   2.0000      -0.623840       -16.9756
 116   2.0000      -0.616088       -16.7646
 117   2.0000      -0.613244       -16.6872
 118   2.0000      -0.611277       -16.6337
 119   2.0000      -0.609384       -16.5822
 120   2.0000      -0.608152       -16.5486
 121   2.0000      -0.607334       -16.5264
 122   2.0000      -0.603125       -16.4119
 123   2.0000      -0.594919       -16.1886
 124   2.0000      -0.584848       -15.9145
 125   2.0000      -0.581186       -15.8149
 126   2.0000      -0.580501       -15.7962
 127   2.0000      -0.578230       -15.7344
 128   2.0000      -0.568824       -15.4785
 129   2.0000      -0.563925       -15.3452
 130   2.0000      -0.553581       -15.0637
 131   2.0000      -0.541206       -14.7270
 132   2.0000      -0.538733       -14.6597
 133   2.0000      -0.536311       -14.5938
 134   2.0000      -0.534959       -14.5570
 135   2.0000      -0.530784       -14.4434
 136   2.0000      -0.524774       -14.2798
 137   2.0000      -0.523321       -14.2403
 138   2.0000      -0.516332       -14.0501
 139   2.0000      -0.513039       -13.9605
 140   2.0000      -0.512031       -13.9331
 141   2.0000      -0.507745       -13.8164
 142   2.0000      -0.503009       -13.6876
 143   2.0000      -0.502494       -13.6735
 144   2.0000      -0.498773       -13.5723
 145   2.0000      -0.498010       -13.5516
 146   2.0000      -0.496319       -13.5055
 147   2.0000      -0.494674       -13.4608
 148   2.0000      -0.491325       -13.3696
 149   2.0000      -0.468643       -12.7524
 150   2.0000      -0.459983       -12.5168
 151   2.0000      -0.451134       -12.2760
 152   2.0000      -0.447544       -12.1783
 153   2.0000      -0.445720       -12.1286
 154   2.0000      -0.444896       -12.1062
 155   2.0000      -0.439980       -11.9725
 156   2.0000      -0.435123       -11.8403
 157   2.0000      -0.431563       -11.7434
 158   2.0000      -0.391479       -10.6527
 159   2.0000      -0.379672       -10.3314
 160   2.0000      -0.376957       -10.2575
 161   2.0000      -0.375370       -10.2143
 162   2.0000      -0.359567        -9.7843
 163   2.0000      -0.355906        -9.6847
 164   2.0000      -0.355304        -9.6683
 165   2.0000      -0.352710        -9.5977
 166   2.0000      -0.337364        -9.1801
 167   2.0000      -0.332109        -9.0371
 168   2.0000      -0.328436        -8.9372
 169   2.0000      -0.300337        -8.1726
 170   2.0000      -0.292565        -7.9611
 171   2.0000      -0.290828        -7.9138
 172   2.0000      -0.287504        -7.8234
 173   2.0000      -0.255333        -6.9480
 174   2.0000      -0.247716        -6.7407
 175   2.0000      -0.187656        -5.1064
 176   2.0000      -0.177492        -4.8298
 177   2.0000      -0.065573        -1.7843
 178   2.0000      -0.053631        -1.4594
 179   0.0000       0.031576         0.8592
 180   0.0000       0.070692         1.9236
 181   0.0000       0.092528         2.5178
 182   0.0000       0.095931         2.6104
 183   0.0000       0.134363         3.6562

MULLIKEN ATOMIC CHARGES
-----------------------
   0 C :    0.211473
   1 N :   -0.440890
   2 C :   -0.064474
   3 N :   -0.337864
   4 C :   -0.066234
   5 N :   -0.563838
   6 C :   -0.061897
   7 N :   -0.337772
   8 C :    0.206543
   9 N :   -0.563608
  10 C :    0.114064
  11 N :   -0.437327
  12 C :   -0.070551
  13 N :   -0.440436
  14 C :    0.241388
  15 N :   -0.440693
  16 C :    0.235720
  17 C :   -0.068878
  18 C :   -0.212927
  19 C :    0.241265
  20 C :    0.207043
  21 C :   -0.083076
  22 C :   -0.086621
  23 C :   -0.049843
  24 C :    0.206766
  25 C :    0.113803
  26 C :   -0.071359
  27 C :    0.225213
  28 C :   -0.051631
  29 C :   -0.186444
  30 C :    0.234489
  31 C :    0.209226
  32 C :   -0.065614
  33 C :   -0.082433
  34 C :   -0.050553
  35 C :    0.203129
  36 C :    0.114519
  37 C :   -0.067142
  38 C :    0.237143
  39 C :   -0.061307
  40 C :   -0.190829
  41 C :    0.221313
  42 C :    0.204210
  43 C :   -0.073652
  44 C :   -0.088815
  45 C :   -0.051360
  46 C :    0.202076
  47 C :    0.115618
  48 C :   -0.074613
  49 C :    0.225208
  50 C :   -0.054052
  51 C :   -0.189160
  52 H :    0.056578
  53 H :   -0.013517
  54 H :    0.047716
  55 H :    0.053953
  56 H :    0.060927
  57 H :    0.058022
  58 H :    0.057044
  59 H :   -0.013324
  60 H :    0.049779
  61 H :    0.173255
  62 H :    0.172409
  63 H :    0.056619
  64 H :   -0.019645
  65 H :    0.047179
  66 H :    0.057845
  67 H :    0.062647
  68 H :    0.058273
  69 H :    0.059044
  70 H :   -0.023887
  71 H :    0.047949
  72 H :    0.055150
  73 H :   -0.014812
  74 H :    0.045548
  75 H :    0.054219
  76 H :    0.060942
  77 H :    0.057351
  78 H :    0.056593
  79 H :   -0.013931
  80 H :    0.045910
  81 H :    0.053267
  82 H :   -0.023282
  83 H :    0.043358
  84 H :    0.053137
  85 H :    0.058897
  86 H :    0.056446
  87 H :    0.056506
  88 H :   -0.022186
  89 H :    0.043702
Sum of atomic charges:   -0.0000000

LOEWDIN ATOMIC CHARGES
----------------------
   0 C :   -0.000466
   1 N :    0.140253
   2 C :   -0.100839
   3 N :    0.178346
   4 C :    0.038995
   5 N :   -0.139491
   6 C :   -0.022561
   7 N :    0.177703
   8 C :   -0.003789
   9 N :   -0.139344
  10 C :    0.029458
  11 N :    0.144845
  12 C :   -0.102604
  13 N :    0.140086
  14 C :   -0.045016
  15 N :    0.138514
  16 C :   -0.044076
  17 C :   -0.024997
  18 C :   -0.109241
  19 C :   -0.085690
  20 C :   -0.000221
  21 C :   -0.105823
  22 C :    0.043225
  23 C :   -0.020718
  24 C :   -0.000205
  25 C :    0.030455
  26 C :   -0.101587
  27 C :   -0.092118
  28 C :   -0.020694
  29 C :   -0.108718
  30 C :   -0.046784
  31 C :   -0.000569
  32 C :   -0.100064
  33 C :    0.037797
  34 C :   -0.020487
  35 C :   -0.005800
  36 C :    0.029295
  37 C :   -0.101873
  38 C :   -0.041448
  39 C :   -0.025599
  40 C :   -0.109567
  41 C :   -0.092625
  42 C :   -0.004840
  43 C :   -0.104901
  44 C :    0.034000
  45 C :   -0.021614
  46 C :   -0.006493
  47 C :    0.029257
  48 C :   -0.104448
  49 C :   -0.091149
  50 C :   -0.024108
  51 C :   -0.108334
  52 H :    0.030742
  53 H :    0.004559
  54 H :    0.044284
  55 H :    0.029552
  56 H :    0.027471
  57 H :    0.031131
  58 H :    0.031472
  59 H :    0.003981
  60 H :    0.044931
  61 H :    0.060811
  62 H :    0.060265
  63 H :    0.031029
  64 H :   -0.001022
  65 H :    0.045380
  66 H :    0.030683
  67 H :    0.028458
  68 H :    0.032093
  69 H :    0.031452
  70 H :   -0.001788
  71 H :    0.045373
  72 H :    0.030148
  73 H :    0.003843
  74 H :    0.044431
  75 H :    0.029464
  76 H :    0.027569
  77 H :    0.031180
  78 H :    0.030857
  79 H :    0.004334
  80 H :    0.044021
  81 H :    0.028871
  82 H :   -0.001754
  83 H :    0.043693
  84 H :    0.029071
  85 H :    0.026479
  86 H :    0.030514
  87 H :    0.031063
  88 H :   -0.001284
  89 H :    0.043312

  Mayer bond orders larger than 0.100000
B(  0-C ,  1-N ) :   1.1213 B(  0-C , 17-C ) :   1.6330 B(  0-C , 52-H ) :   0.9691
B(  1-N ,  8-C ) :   1.1163 B(  1-N , 10-C ) :   0.9605 B(  2-C , 12-C ) :   1.5360
B(  2-C , 16-C ) :   1.3237 B(  2-C , 53-H ) :   0.9778 B(  3-N , 14-C ) :   1.2010
B(  3-N , 16-C ) :   1.1967 B(  3-N , 61-H ) :   0.8980 B(  4-C ,  6-C ) :   1.2679
B(  4-C , 17-C ) :   1.2673 B(  4-C , 18-C ) :   1.2675 B(  5-N , 19-C ) :   1.4178
B(  5-N , 27-C ) :   1.4057 B(  6-C ,  8-C ) :   1.6337 B(  6-C , 54-H ) :   0.9709
B(  7-N , 30-C ) :   1.1932 B(  7-N , 38-C ) :   1.2023 B(  7-N , 62-H ) :   0.8985
B(  8-C , 55-H ) :   0.9699 B(  9-N , 41-C ) :   1.4107 B(  9-N , 49-C ) :   1.4129
B( 10-C , 56-H ) :   0.9763 B( 10-C , 57-H ) :   0.9817 B( 10-C , 58-H ) :   0.9835
B( 11-N , 20-C ) :   1.1241 B( 11-N , 24-C ) :   1.1243 B( 11-N , 25-C ) :   0.9580
B( 12-C , 14-C ) :   1.3242 B( 12-C , 59-H ) :   0.9766 B( 13-N , 31-C ) :   1.1212
B( 13-N , 35-C ) :   1.1148 B( 13-N , 36-C ) :   0.9610 B( 14-C , 18-C ) :   1.1941
B( 15-N , 42-C ) :   1.1169 B( 15-N , 46-C ) :   1.1128 B( 15-N , 47-C ) :   0.9623
B( 16-C , 51-C ) :   1.1998 B( 17-C , 60-H ) :   0.9708 B( 18-C , 19-C ) :   1.2148
B( 19-C , 21-C ) :   1.2071 B( 20-C , 28-C ) :   1.6225 B( 20-C , 63-H ) :   0.9703
B( 21-C , 26-C ) :   1.6457 B( 21-C , 64-H ) :   0.9717 B( 22-C , 23-C ) :   1.2829
B( 22-C , 28-C ) :   1.2755 B( 22-C , 29-C ) :   1.2293 B( 23-C , 24-C ) :   1.6183
B( 23-C , 65-H ) :   0.9710 B( 24-C , 66-H ) :   0.9691 B( 25-C , 67-H ) :   0.9762
B( 25-C , 68-H ) :   0.9829 B( 25-C , 69-H ) :   0.9821 B( 26-C , 27-C ) :   1.2075
B( 26-C , 70-H ) :   0.9733 B( 27-C , 29-C ) :   1.2332 B( 28-C , 71-H ) :   0.9714
B( 29-C , 30-C ) :   1.2073 B( 30-C , 32-C ) :   1.3163 B( 31-C , 39-C ) :   1.6337
B( 31-C , 72-H ) :   0.9697 B( 32-C , 37-C ) :   1.5419 B( 32-C , 73-H ) :   0.9777
B( 33-C , 34-C ) :   1.2724 B( 33-C , 39-C ) :   1.2658 B( 33-C , 40-C ) :   1.2560
B( 34-C , 35-C ) :   1.6309 B( 34-C , 74-H ) :   0.9705 B( 35-C , 75-H ) :   0.9697
B( 36-C , 76-H ) :   0.9762 B( 36-C , 77-H ) :   0.9821 B( 36-C , 78-H ) :   0.9831
B( 37-C , 38-C ) :   1.3173 B( 37-C , 79-H ) :   0.9778 B( 38-C , 40-C ) :   1.2048
B( 39-C , 80-H ) :   0.9715 B( 40-C , 41-C ) :   1.2161 B( 41-C , 43-C ) :   1.2152
B( 42-C , 50-C ) :   1.6337 B( 42-C , 81-H ) :   0.9696 B( 43-C , 48-C ) :   1.6364
B( 43-C , 82-H ) :   0.9738 B( 44-C , 45-C ) :   1.2721 B( 44-C , 50-C ) :   1.2659
B( 44-C , 51-C ) :   1.2541 B( 45-C , 46-C ) :   1.6321 B( 45-C , 83-H ) :   0.9711
B( 46-C , 84-H ) :   0.9702 B( 47-C , 85-H ) :   0.9761 B( 47-C , 86-H ) :   0.9828
B( 47-C , 87-H ) :   0.9826 B( 48-C , 49-C ) :   1.2145 B( 48-C , 88-H ) :   0.9738
B( 49-C , 51-C ) :   1.2201 B( 50-C , 89-H ) :   0.9714

MP2 TOTAL ENERGY:    -2130.912174120 Eh
FINAL SINGLE POINT ENERGY     -2130.912174120271

DIPOLE MOMENT
-------------
                                X             Y             Z
Electronic contribution:     -0.56997      -0.47088      -0.11019
Nuclear contribution   :      0.07315       0.23689       0.12262
                        -----------------------------------------
Total Dipole Moment    :     -0.49682      -0.23399       0.01243
                        -----------------------------------------
Magnitude (a.u.)       :      0.54930
Magnitude (Debye)      :      1.39621

Rotational constants in cm-1:     0.001499     0.001474     0.000762
Rotational constants in MHz :    44.925027    44.201419    22.845432

                             ****ORCA TERMINATED NORMALLY****
TOTAL RUN TIME: 0 days 1 hours 16 minutes 58 seconds 723 msec
