                         Program Version 5.0.4 -  RELEASE  -
|  1> ! PAL2
|  2> ! mp2 cc-pvdz TightSCF  NoKeepInts
|  3>
|  4> %scf
|  5>   MaxCore 2000
|  6> end
|  7> %mp2
|  8>   MaxCore 2000
|  9> end
| 10> * xyz 0 1
| 11>    C       -3.11500         6.44900        -0.37200
| 12>    C        1.47400         4.04100         0.05700
| 13>    C       -2.80200         4.09300         0.04900
| 14>    C       -4.11300         4.06000         0.54900
| 15>    C       -4.87600         5.21100         0.56900
| 16>    C       -5.23100         7.59000         0.11700
| 17>    C        0.13200         4.30700         0.06100
| 18>    C       -0.56900         3.05600         0.04700
| 19>    C        1.64900         2.61800         0.02300
| 20>    C       -2.31500         5.32300        -0.41900
| 21>    N       -4.37400         6.38300         0.11600
| 22>    N        0.38800         2.06700         0.02500
| 23>    N       -2.01000         0.39500        -0.07500
| 24>    N       -0.38800        -2.07400        -0.02700
| 25>    N        2.01000        -0.40100         0.06500
| 26>    C       -1.96000         2.86100         0.02400
| 27>    C       -2.62300         1.61500        -0.01800
| 28>    C       -5.57300        -4.32900         1.06600
| 29>    C       -4.07300         1.47100         0.05600
| 30>    C       -4.10600        -2.75600        -0.02600
| 31>    C       -4.99500        -2.75700        -1.11100
| 32>    C       -6.13200        -3.54200        -1.07600
| 33>    C       -7.65100        -5.11300         0.04000
| 34>    C       -4.32400         0.14100         0.03700
| 35>    C       -3.02500        -0.52000        -0.04800
| 36>    C       -4.42200        -3.56600         1.07500
| 37>    N       -6.40700        -4.31300         0.00100
| 38>    C       -2.86700        -1.92200        -0.04000
| 39>    C       -1.65000        -2.62400        -0.02700
| 40>    C        3.56800        -6.14200        -1.04000
| 41>    C       -1.47600        -4.04900        -0.03400
| 42>    C        2.80300        -4.09900        -0.00800
| 43>    C        3.65700        -4.38400         1.06900
| 44>    C        4.42700        -5.53000         1.05900
| 45>    C        5.24500        -7.58800         0.01400
| 46>    C       -0.13400        -4.31500        -0.02200
| 47>    C        0.56800        -3.06400        -0.02700
| 48>    C        2.77500        -5.01200        -1.07400
| 49>    N        4.37600        -6.39100         0.01700
| 50>    C        1.95900        -2.86900        -0.00900
| 51>    C        2.62100        -1.62200         0.00900
| 52>    C        5.54300         4.33900        -1.13000
| 53>    C        4.07000        -1.47900        -0.09400
| 54>    C        4.10400         2.75100        -0.02100
| 55>    C        5.02700         2.72900         1.03600
| 56>    C        6.16600         3.50900         0.97800
| 57>    C        7.61900         5.15300        -0.11500
| 58>    C        4.32100        -0.14800        -0.09200
| 59>    C        3.02500         0.51400         0.01500
| 60>    C        4.38700         3.58200        -1.11500
| 61>    C        2.86600         1.91600         0.01300
| 62>    N        6.41300         4.29600        -0.09500
| 63>    H       -2.77700         7.42000        -0.71000
| 64>    H        2.27400         4.76600         0.08100
| 65>    H       -4.54900         3.13900         0.91500
| 66>    H       -5.89400         5.23300         0.93600
| 67>    H       -5.82100         7.60700        -0.80300
| 68>    H       -5.88900         7.55300         0.98400
| 69>    H       -4.59300         8.47200         0.16900
| 70>    H       -0.33200         5.28200         0.06900
| 71>    H       -1.30600         5.41700        -0.80300
| 72>    H        0.18200         1.07200         0.00500
| 73>    H       -0.18300        -1.08000        -0.02100
| 74>    H       -5.86400        -4.96200         1.89500
| 75>    H       -4.79400         2.27200         0.13900
| 76>    H       -4.80000        -2.16000        -1.99400
| 77>    H       -6.84100        -3.58200        -1.89300
| 78>    H       -8.42800        -4.53600         0.54600
| 79>    H       -7.95600        -5.33700        -0.98100
| 80>    H       -7.45600        -6.03700         0.58400
| 81>    H       -5.28700        -0.34400         0.10000
| 82>    H       -3.78000        -3.60100         1.94700
| 83>    H        3.58700        -6.86800        -1.84300
| 84>    H       -2.27600        -4.77400        -0.05000
| 85>    H        3.71400        -3.72400         1.92600
| 86>    H        5.09200        -5.79500         1.87100
| 87>    H        6.20500        -7.32900        -0.43900
| 88>    H        5.39300        -7.91700         1.04200
| 89>    H        4.75900        -8.37300        -0.56400
| 90>    H        0.32900        -5.29000        -0.00800
| 91>    H        2.14600        -4.84200        -1.94000
| 92>    H        5.80800         4.98600        -1.95600
| 93>    H        4.78800        -2.28100        -0.18500
| 94>    H        4.86000         2.11400         1.91200
| 95>    H        6.90100         3.53100         1.77200
| 96>    H        7.38300         6.10900         0.35600
| 97>    H        8.41400         4.65200         0.43500
| 98>    H        7.92100         5.31000        -1.15000
| 99>    H        5.28300         0.33600        -0.17900
|100>    H        3.72000         3.63200        -1.96700
|101> *
|102>
|103>                          ****END OF INPUT****

CARTESIAN COORDINATES (ANGSTROEM)
---------------------------------
  C     -3.115000    6.449000   -0.372000
  C      1.474000    4.041000    0.057000
  C     -2.802000    4.093000    0.049000
  C     -4.113000    4.060000    0.549000
  C     -4.876000    5.211000    0.569000
  C     -5.231000    7.590000    0.117000
  C      0.132000    4.307000    0.061000
  C     -0.569000    3.056000    0.047000
  C      1.649000    2.618000    0.023000
  C     -2.315000    5.323000   -0.419000
  N     -4.374000    6.383000    0.116000
  N      0.388000    2.067000    0.025000
  N     -2.010000    0.395000   -0.075000
  N     -0.388000   -2.074000   -0.027000
  N      2.010000   -0.401000    0.065000
  C     -1.960000    2.861000    0.024000
  C     -2.623000    1.615000   -0.018000
  C     -5.573000   -4.329000    1.066000
  C     -4.073000    1.471000    0.056000
  C     -4.106000   -2.756000   -0.026000
  C     -4.995000   -2.757000   -1.111000
  C     -6.132000   -3.542000   -1.076000
  C     -7.651000   -5.113000    0.040000
  C     -4.324000    0.141000    0.037000
  C     -3.025000   -0.520000   -0.048000
  C     -4.422000   -3.566000    1.075000
  N     -6.407000   -4.313000    0.001000
  C     -2.867000   -1.922000   -0.040000
  C     -1.650000   -2.624000   -0.027000
  C      3.568000   -6.142000   -1.040000
  C     -1.476000   -4.049000   -0.034000
  C      2.803000   -4.099000   -0.008000
  C      3.657000   -4.384000    1.069000
  C      4.427000   -5.530000    1.059000
  C      5.245000   -7.588000    0.014000
  C     -0.134000   -4.315000   -0.022000
  C      0.568000   -3.064000   -0.027000
  C      2.775000   -5.012000   -1.074000
  N      4.376000   -6.391000    0.017000
  C      1.959000   -2.869000   -0.009000
  C      2.621000   -1.622000    0.009000
  C      5.543000    4.339000   -1.130000
  C      4.070000   -1.479000   -0.094000
  C      4.104000    2.751000   -0.021000
  C      5.027000    2.729000    1.036000
  C      6.166000    3.509000    0.978000
  C      7.619000    5.153000   -0.115000
  C      4.321000   -0.148000   -0.092000
  C      3.025000    0.514000    0.015000
  C      4.387000    3.582000   -1.115000
  C      2.866000    1.916000    0.013000
  N      6.413000    4.296000   -0.095000
  H     -2.777000    7.420000   -0.710000
  H      2.274000    4.766000    0.081000
  H     -4.549000    3.139000    0.915000
  H     -5.894000    5.233000    0.936000
  H     -5.821000    7.607000   -0.803000
  H     -5.889000    7.553000    0.984000
  H     -4.593000    8.472000    0.169000
  H     -0.332000    5.282000    0.069000
  H     -1.306000    5.417000   -0.803000
  H      0.182000    1.072000    0.005000
  H     -0.183000   -1.080000   -0.021000
  H     -5.864000   -4.962000    1.895000
  H     -4.794000    2.272000    0.139000
  H     -4.800000   -2.160000   -1.994000
  H     -6.841000   -3.582000   -1.893000
  H     -8.428000   -4.536000    0.546000
  H     -7.956000   -5.337000   -0.981000
  H     -7.456000   -6.037000    0.584000
  H     -5.287000   -0.344000    0.100000
  H     -3.780000   -3.601000    1.947000
  H      3.587000   -6.868000   -1.843000
  H     -2.276000   -4.774000   -0.050000
  H      3.714000   -3.724000    1.926000
  H      5.092000   -5.795000    1.871000
  H      6.205000   -7.329000   -0.439000
  H      5.393000   -7.917000    1.042000
  H      4.759000   -8.373000   -0.564000
  H      0.329000   -5.290000   -0.008000
  H      2.146000   -4.842000   -1.940000
  H      5.808000    4.986000   -1.956000
  H      4.788000   -2.281000   -0.185000
  H      4.860000    2.114000    1.912000
  H      6.901000    3.531000    1.772000
  H      7.383000    6.109000    0.356000
  H      8.414000    4.652000    0.435000
  H      7.921000    5.310000   -1.150000
  H      5.283000    0.336000   -0.179000
  H      3.720000    3.632000   -1.967000

 Total Charge           Charge          ....    0
 Multiplicity           Mult            ....    1
 Number of Electrons    NEL             ....  358
 Basis Dimension        Dim             ....  918

ORBITAL ENERGIES
----------------

  NO   OCC          E(Eh)            E(eV)
   0   2.0000     -15.676215      -426.5715
   1   2.0000     -15.633713      -425.4150
   2   2.0000     -15.631735      -425.3611
   3   2.0000     -15.590117      -424.2286
   4   2.0000     -15.524743      -422.4497
   5   2.0000     -15.515994      -422.2117
   6   2.0000     -15.453245      -420.5042
   7   2.0000     -15.440506      -420.1575
   8   2.0000     -11.326480      -308.2092
   9   2.0000     -11.325726      -308.1887
  10   2.0000     -11.325337      -308.1781
  11   2.0000     -11.299165      -307.4659
  12   2.0000     -11.298287      -307.4420
  13   2.0000     -11.292614      -307.2877
  14   2.0000     -11.290905      -307.2411
  15   2.0000     -11.286666      -307.1258
  16   2.0000     -11.286513      -307.1216
  17   2.0000     -11.278698      -306.9090
  18   2.0000     -11.272125      -306.7301
  19   2.0000     -11.260884      -306.4242
  20   2.0000     -11.259906      -306.3976
  21   2.0000     -11.254960      -306.2630
  22   2.0000     -11.252332      -306.1915
  23   2.0000     -11.237437      -305.7862
  24   2.0000     -11.236495      -305.7606
  25   2.0000     -11.230986      -305.6107
  26   2.0000     -11.230180      -305.5887
  27   2.0000     -11.229685      -305.5753
  28   2.0000     -11.229569      -305.5721
  29   2.0000     -11.210125      -305.0430
  30   2.0000     -11.208860      -305.0086
  31   2.0000     -11.197727      -304.7056
  32   2.0000     -11.190543      -304.5102
  33   2.0000     -11.190021      -304.4959
  34   2.0000     -11.188873      -304.4647
  35   2.0000     -11.187887      -304.4379
  36   2.0000     -11.187237      -304.4202
  37   2.0000     -11.185978      -304.3859
  38   2.0000     -11.184335      -304.3412
  39   2.0000     -11.173358      -304.0425
  40   2.0000     -11.172008      -304.0058
  41   2.0000     -11.170741      -303.9713
  42   2.0000     -11.167488      -303.8828
  43   2.0000     -11.160534      -303.6936
  44   2.0000     -11.160501      -303.6927
  45   2.0000     -11.157723      -303.6171
  46   2.0000     -11.155725      -303.5627
  47   2.0000     -11.155663      -303.5610
  48   2.0000     -11.147780      -303.3465
  49   2.0000     -11.137866      -303.0767
  50   2.0000     -11.130745      -302.8830
  51   2.0000     -11.119577      -302.5791
  52   2.0000      -1.357345       -36.9352
  53   2.0000      -1.321000       -35.9462
  54   2.0000      -1.319527       -35.9062
  55   2.0000      -1.283616       -34.9290
  56   2.0000      -1.225512       -33.3479
  57   2.0000      -1.210484       -32.9390
  58   2.0000      -1.172532       -31.9062
  59   2.0000      -1.151244       -31.3269
  60   2.0000      -1.141134       -31.0518
  61   2.0000      -1.110155       -30.2089
  62   2.0000      -1.108782       -30.1715
  63   2.0000      -1.079462       -29.3736
  64   2.0000      -1.079263       -29.3682
  65   2.0000      -1.045195       -28.4412
  66   2.0000      -1.044203       -28.4142
  67   2.0000      -1.039421       -28.2841
  68   2.0000      -1.014608       -27.6089
  69   2.0000      -1.013359       -27.5749
  70   2.0000      -1.009481       -27.4694
  71   2.0000      -0.992891       -27.0179
  72   2.0000      -0.986467       -26.8431
  73   2.0000      -0.980538       -26.6818
  74   2.0000      -0.972392       -26.4601
  75   2.0000      -0.961437       -26.1620
  76   2.0000      -0.953858       -25.9558
  77   2.0000      -0.946064       -25.7437
  78   2.0000      -0.935403       -25.4536
  79   2.0000      -0.918507       -24.9939
  80   2.0000      -0.907968       -24.7071
  81   2.0000      -0.894780       -24.3482
  82   2.0000      -0.875148       -23.8140
  83   2.0000      -0.871764       -23.7219
  84   2.0000      -0.869776       -23.6678
  85   2.0000      -0.857717       -23.3397
  86   2.0000      -0.841717       -22.9043
  87   2.0000      -0.835590       -22.7375
  88   2.0000      -0.825083       -22.4516
  89   2.0000      -0.797423       -21.6990
  90   2.0000      -0.790743       -21.5172
  91   2.0000      -0.752193       -20.4682
  92   2.0000      -0.746815       -20.3219
  93   2.0000      -0.732994       -19.9458
  94   2.0000      -0.725046       -19.7295
  95   2.0000      -0.722144       -19.6505
  96   2.0000      -0.716760       -19.5040
  97   2.0000      -0.713203       -19.4072
  98   2.0000      -0.708944       -19.2913
  99   2.0000      -0.697187       -18.9714
 100   2.0000      -0.696318       -18.9478
 101   2.0000      -0.686318       -18.6757
 102   2.0000      -0.682605       -18.5746
 103   2.0000      -0.681961       -18.5571
 104   2.0000      -0.678254       -18.4562
 105   2.0000      -0.673860       -18.3367
 106   2.0000      -0.670645       -18.2492
 107   2.0000      -0.660435       -17.9713
 108   2.0000      -0.657159       -17.8822
 109   2.0000      -0.652907       -17.7665
 110   2.0000      -0.651480       -17.7277
 111   2.0000      -0.643980       -17.5236
 112   2.0000      -0.643513       -17.5109
 113   2.0000      -0.638740       -17.3810
 114   2.0000      -0.637528       -17.3480
 115   2.0000      -0.628032       -17.0896
 116   2.0000      -0.623545       -16.9675
 117   2.0000      -0.620386       -16.8816
 118   2.0000      -0.612622       -16.6703
 119   2.0000      -0.612120       -16.6566
 120   2.0000      -0.611399       -16.6370
 121   2.0000      -0.609052       -16.5731
 122   2.0000      -0.600772       -16.3478
 123   2.0000      -0.586737       -15.9659
 124   2.0000      -0.581528       -15.8242
 125   2.0000      -0.580669       -15.8008
 126   2.0000      -0.579591       -15.7715
 127   2.0000      -0.573099       -15.5948
 128   2.0000      -0.568447       -15.4682
 129   2.0000      -0.559447       -15.2233
 130   2.0000      -0.551830       -15.0160
 131   2.0000      -0.547525       -14.8989
 132   2.0000      -0.542099       -14.7513
 133   2.0000      -0.541683       -14.7399
 134   2.0000      -0.538167       -14.6443
 135   2.0000      -0.535921       -14.5831
 136   2.0000      -0.529419       -14.4062
 137   2.0000      -0.521292       -14.1851
 138   2.0000      -0.516676       -14.0595
 139   2.0000      -0.514279       -13.9942
 140   2.0000      -0.512503       -13.9459
 141   2.0000      -0.511237       -13.9115
 142   2.0000      -0.508947       -13.8491
 143   2.0000      -0.504313       -13.7231
 144   2.0000      -0.502027       -13.6609
 145   2.0000      -0.496607       -13.5134
 146   2.0000      -0.491464       -13.3734
 147   2.0000      -0.482919       -13.1409
 148   2.0000      -0.479138       -13.0380
 149   2.0000      -0.466770       -12.7015
 150   2.0000      -0.466398       -12.6913
 151   2.0000      -0.457169       -12.4402
 152   2.0000      -0.451057       -12.2739
 153   2.0000      -0.444932       -12.1072
 154   2.0000      -0.440498       -11.9866
 155   2.0000      -0.428287       -11.6543
 156   2.0000      -0.423050       -11.5118
 157   2.0000      -0.408249       -11.1090
 158   2.0000      -0.402183       -10.9439
 159   2.0000      -0.388409       -10.5692
 160   2.0000      -0.385330       -10.4854
 161   2.0000      -0.378469       -10.2987
 162   2.0000      -0.370089       -10.0706
 163   2.0000      -0.356494        -9.7007
 164   2.0000      -0.355769        -9.6810
 165   2.0000      -0.341223        -9.2851
 166   2.0000      -0.337568        -9.1857
 167   2.0000      -0.325352        -8.8533
 168   2.0000      -0.323098        -8.7920
 169   2.0000      -0.304489        -8.2856
 170   2.0000      -0.299629        -8.1533
 171   2.0000      -0.285633        -7.7725
 172   2.0000      -0.280726        -7.6389
 173   2.0000      -0.263332        -7.1656
 174   2.0000      -0.241988        -6.5848
 175   2.0000      -0.189888        -5.1671
 176   2.0000      -0.180439        -4.9100
 177   2.0000      -0.077097        -2.0979
 178   2.0000      -0.058886        -1.6024
 179   0.0000       0.028413         0.7731
 180   0.0000       0.065913         1.7936
 181   0.0000       0.090870         2.4727
 182   0.0000       0.108547         2.9537
 183   0.0000       0.112001         3.0477

MULLIKEN ATOMIC CHARGES
-----------------------
   0 C :    0.211961
   1 N :   -0.455116
   2 C :   -0.068385
   3 N :   -0.338456
   4 C :   -0.048860
   5 N :   -0.565694
   6 C :   -0.109476
   7 N :   -0.340470
   8 C :    0.207220
   9 N :   -0.562190
  10 C :    0.118786
  11 N :   -0.438510
  12 C :   -0.077457
  13 N :   -0.430240
  14 C :    0.229726
  15 N :   -0.440935
  16 C :    0.228698
  17 C :   -0.122079
  18 C :   -0.190651
  19 C :    0.222033
  20 C :    0.212918
  21 C :   -0.085943
  22 C :   -0.091240
  23 C :   -0.040037
  24 C :    0.194095
  25 C :    0.114639
  26 C :   -0.085646
  27 C :    0.213581
  28 C :   -0.061258
  29 C :   -0.180822
  30 C :    0.245614
  31 C :    0.228665
  32 C :   -0.062056
  33 C :   -0.061903
  34 C :   -0.051177
  35 C :    0.226689
  36 C :    0.108684
  37 C :   -0.064410
  38 C :    0.231416
  39 C :   -0.057829
  40 C :   -0.181857
  41 C :    0.225790
  42 C :    0.197770
  43 C :   -0.072331
  44 C :   -0.089405
  45 C :   -0.060843
  46 C :    0.211215
  47 C :    0.115345
  48 C :   -0.067291
  49 C :    0.238188
  50 C :   -0.046810
  51 C :   -0.192087
  52 H :    0.038052
  53 H :   -0.017153
  54 H :    0.050935
  55 H :    0.037342
  56 H :    0.049827
  57 H :    0.048051
  58 H :    0.047404
  59 H :   -0.000238
  60 H :    0.047159
  61 H :    0.171232
  62 H :    0.175287
  63 H :    0.055075
  64 H :   -0.012110
  65 H :    0.047167
  66 H :    0.055622
  67 H :    0.062203
  68 H :    0.057181
  69 H :    0.056336
  70 H :   -0.029904
  71 H :    0.044625
  72 H :    0.070276
  73 H :   -0.008276
  74 H :    0.059425
  75 H :    0.069687
  76 H :    0.074005
  77 H :    0.067300
  78 H :    0.066612
  79 H :   -0.016439
  80 H :    0.060345
  81 H :    0.054300
  82 H :   -0.024665
  83 H :    0.042147
  84 H :    0.054277
  85 H :    0.060897
  86 H :    0.055670
  87 H :    0.057200
  88 H :   -0.014797
  89 H :    0.046374
Sum of atomic charges:   -0.0000000

LOEWDIN ATOMIC CHARGES
----------------------
   0 C :   -0.019603
   1 N :    0.118579
   2 C :   -0.101335
   3 N :    0.183257
   4 C :   -0.009951
   5 N :   -0.133321
   6 C :   -0.034894
   7 N :    0.175481
   8 C :   -0.022943
   9 N :   -0.140415
  10 C :    0.023953
  11 N :    0.141716
  12 C :   -0.116433
  13 N :    0.164416
  14 C :   -0.024489
  15 N :    0.138897
  16 C :   -0.059631
  17 C :   -0.045537
  18 C :   -0.105499
  19 C :   -0.079625
  20 C :    0.004031
  21 C :   -0.122107
  22 C :    0.036480
  23 C :   -0.014843
  24 C :   -0.012257
  25 C :    0.029762
  26 C :   -0.108470
  27 C :   -0.115618
  28 C :   -0.027420
  29 C :   -0.100366
  30 C :   -0.030526
  31 C :    0.022572
  32 C :   -0.094825
  33 C :    0.078791
  34 C :   -0.015517
  35 C :    0.021147
  36 C :    0.034835
  37 C :   -0.094537
  38 C :   -0.051730
  39 C :   -0.018043
  40 C :   -0.108361
  41 C :   -0.091182
  42 C :   -0.010072
  43 C :   -0.099463
  44 C :    0.033601
  45 C :   -0.027702
  46 C :    0.001653
  47 C :    0.029528
  48 C :   -0.095221
  49 C :   -0.070666
  50 C :   -0.019115
  51 C :   -0.108453
  52 H :    0.023097
  53 H :    0.002847
  54 H :    0.033364
  55 H :    0.023094
  56 H :    0.022082
  57 H :    0.026349
  58 H :    0.027069
  59 H :    0.011022
  60 H :    0.035503
  61 H :    0.060104
  62 H :    0.061758
  63 H :    0.030615
  64 H :    0.005138
  65 H :    0.045886
  66 H :    0.029252
  67 H :    0.028115
  68 H :    0.031601
  69 H :    0.030272
  70 H :   -0.004591
  71 H :    0.043414
  72 H :    0.037220
  73 H :    0.006995
  74 H :    0.050263
  75 H :    0.036879
  76 H :    0.034327
  77 H :    0.035857
  78 H :    0.035548
  79 H :    0.003039
  80 H :    0.050328
  81 H :    0.029061
  82 H :   -0.002632
  83 H :    0.042633
  84 H :    0.029911
  85 H :    0.027396
  86 H :    0.030237
  87 H :    0.031399
  88 H :    0.002236
  89 H :    0.044785

  Mayer bond orders larger than 0.100000
B(  0-C ,  1-N ) :   1.0968 B(  0-C , 17-C ) :   1.7035 B(  0-C , 52-H ) :   0.9661
B(  1-N ,  8-C ) :   1.0879 B(  1-N , 10-C ) :   0.9770 B(  2-C , 12-C ) :   1.5025
B(  2-C , 16-C ) :   1.3603 B(  2-C , 53-H ) :   0.9745 B(  3-N , 14-C ) :   1.2198
B(  3-N , 16-C ) :   1.1870 B(  3-N , 61-H ) :   0.8990 B(  4-C ,  6-C ) :   1.2118
B(  4-C , 17-C ) :   1.2137 B(  4-C , 18-C ) :   1.4474 B(  5-N , 19-C ) :   1.4535
B(  5-N , 27-C ) :   1.3769 B(  6-C ,  8-C ) :   1.7121 B(  6-C , 54-H ) :   0.9359
B(  7-N , 30-C ) :   1.1959 B(  7-N , 38-C ) :   1.1903 B(  7-N , 62-H ) :   0.8969
B(  8-C , 55-H ) :   0.9659 B(  9-N , 41-C ) :   1.3951 B(  9-N , 49-C ) :   1.4246
B( 10-C , 56-H ) :   0.9773 B( 10-C , 57-H ) :   0.9822 B( 10-C , 58-H ) :   0.9843
B( 11-N , 20-C ) :   1.1302 B( 11-N , 24-C ) :   1.1073 B( 11-N , 25-C ) :   0.9603
B( 12-C , 14-C ) :   1.3561 B( 12-C , 59-H ) :   0.9673 B( 13-N , 31-C ) :   1.1584
B( 13-N , 35-C ) :   1.1569 B( 13-N , 36-C ) :   0.9427 B( 14-C , 18-C ) :   1.1273
B( 15-N , 42-C ) :   1.1083 B( 15-N , 46-C ) :   1.1238 B( 15-N , 47-C ) :   0.9613
B( 16-C , 51-C ) :   1.1708 B( 17-C , 60-H ) :   0.9461 B( 18-C , 19-C ) :   1.1297
B( 19-C , 21-C ) :   1.2486 B( 20-C , 28-C ) :   1.6290 B( 20-C , 63-H ) :   0.9703
B( 21-C , 26-C ) :   1.5966 B( 21-C , 64-H ) :   0.9570 B( 22-C , 23-C ) :   1.2886
B( 22-C , 28-C ) :   1.2639 B( 22-C , 29-C ) :   1.2256 B( 23-C , 24-C ) :   1.6207
B( 23-C , 65-H ) :   0.9703 B( 24-C , 66-H ) :   0.9695 B( 25-C , 67-H ) :   0.9760
B( 25-C , 68-H ) :   0.9828 B( 25-C , 69-H ) :   0.9823 B( 26-C , 27-C ) :   1.2491
B( 26-C , 70-H ) :   0.9698 B( 27-C , 29-C ) :   1.2096 B( 28-C , 71-H ) :   0.9720
B( 29-C , 30-C ) :   1.2428 B( 30-C , 32-C ) :   1.2821 B( 31-C , 39-C ) :   1.5910
B( 31-C , 72-H ) :   0.9682 B( 32-C , 37-C ) :   1.5766 B( 32-C , 73-H ) :   0.9786
B( 33-C , 34-C ) :   1.3046 B( 33-C , 39-C ) :   1.3014 B( 33-C , 40-C ) :   1.1816
B( 34-C , 35-C ) :   1.5886 B( 34-C , 74-H ) :   0.9697 B( 35-C , 75-H ) :   0.9682
B( 36-C , 76-H ) :   0.9767 B( 36-C , 77-H ) :   0.9816 B( 36-C , 78-H ) :   0.9824
B( 37-C , 38-C ) :   1.2876 B( 37-C , 79-H ) :   0.9765 B( 38-C , 40-C ) :   1.2315
B( 39-C , 80-H ) :   0.9706 B( 40-C , 41-C ) :   1.2487 B( 41-C , 43-C ) :   1.1860
B( 42-C , 50-C ) :   1.6329 B( 42-C , 81-H ) :   0.9697 B( 43-C , 48-C ) :   1.6667
B( 43-C , 82-H ) :   0.9723 B( 44-C , 45-C ) :   1.2642 B( 44-C , 50-C ) :   1.2723
B( 44-C , 51-C ) :   1.2597 B( 45-C , 46-C ) :   1.6343 B( 45-C , 83-H ) :   0.9718
B( 46-C , 84-H ) :   0.9700 B( 47-C , 85-H ) :   0.9762 B( 47-C , 86-H ) :   0.9829
B( 47-C , 87-H ) :   0.9824 B( 48-C , 49-C ) :   1.1894 B( 48-C , 88-H ) :   0.9748
B( 49-C , 51-C ) :   1.2425 B( 50-C , 89-H ) :   0.9709

MP2 TOTAL ENERGY:    -2130.858213362 Eh
FINAL SINGLE POINT ENERGY     -2130.858213361983

DIPOLE MOMENT
-------------
                                X             Y             Z
Electronic contribution:      2.66040      -3.98606      -0.10762
Nuclear contribution   :     -0.04873       0.15441       0.12711
                        -----------------------------------------
Total Dipole Moment    :      2.61166      -3.83165       0.01949
                        -----------------------------------------
Magnitude (a.u.)       :      4.63710
Magnitude (Debye)      :     11.78657

Rotational constants in cm-1:     0.001502     0.001477     0.000760
Rotational constants in MHz :    45.040356    44.281666    22.794414

                             ****ORCA TERMINATED NORMALLY****
TOTAL RUN TIME: 0 days 1 hours 33 minutes 16 seconds 915 msec
