                         Program Version 5.0.4 -  RELEASE  -
|  1> ! PAL2
|  2> ! mp2 cc-pvdz TightSCF  NoKeepInts
|  3>
|  4> %scf
|  5>   MaxCore 2000
|  6> end
|  7> %mp2
|  8>   MaxCore 2000
|  9> end
| 10> * xyz 0 1
| 11>    C       -3.14500         6.43000        -0.44800
| 12>    C        1.47400         4.04100         0.05700
| 13>    C       -2.80200         4.09300         0.04900
| 14>    C       -4.08100         4.08100         0.62700
| 15>    C       -4.84400         5.23100         0.64600
| 16>    C       -5.23100         7.59000         0.11900
| 17>    C        0.13200         4.30700         0.06100
| 18>    C       -0.56900         3.05600         0.04700
| 19>    C        1.64900         2.61800         0.02300
| 20>    C       -2.34700         5.30300        -0.49600
| 21>    N       -4.37300         6.38400         0.11700
| 22>    N        0.38800         2.06700         0.02500
| 23>    N       -2.01000         0.39500        -0.07500
| 24>    N       -0.38800        -2.07400        -0.02700
| 25>    N        2.01000        -0.40100         0.06500
| 26>    C       -1.96000         2.86100         0.02400
| 27>    C       -2.62300         1.61500        -0.01800
| 28>    C       -5.57300        -4.32900         1.06600
| 29>    C       -4.07300         1.47100         0.05600
| 30>    C       -4.10600        -2.75600        -0.02600
| 31>    C       -4.99500        -2.75700        -1.11100
| 32>    C       -6.13200        -3.54200        -1.07600
| 33>    C       -7.65100        -5.11300         0.04000
| 34>    C       -4.32400         0.14100         0.03700
| 35>    C       -3.02500        -0.52000        -0.04800
| 36>    C       -4.42200        -3.56600         1.07500
| 37>    N       -6.40700        -4.31300         0.00100
| 38>    C       -2.86700        -1.92200        -0.04000
| 39>    C       -1.65000        -2.62400        -0.02700
| 40>    C        3.56800        -6.14200        -1.04000
| 41>    C       -1.47600        -4.04900        -0.03400
| 42>    C        2.80300        -4.09900        -0.00800
| 43>    C        3.65700        -4.38400         1.06900
| 44>    C        4.42700        -5.53000         1.05900
| 45>    C        5.24500        -7.58800         0.01400
| 46>    C       -0.13400        -4.31500        -0.02200
| 47>    C        0.56800        -3.06400        -0.02700
| 48>    C        2.77500        -5.01200        -1.07400
| 49>    N        4.37600        -6.39100         0.01700
| 50>    C        1.95900        -2.86900        -0.00900
| 51>    C        2.62100        -1.62200         0.00900
| 52>    C        5.54300         4.33900        -1.13000
| 53>    C        4.07000        -1.47900        -0.09400
| 54>    C        4.10400         2.75100        -0.02100
| 55>    C        5.02700         2.72900         1.03600
| 56>    C        6.16600         3.50900         0.97800
| 57>    C        7.61900         5.15300        -0.11500
| 58>    C        4.32100        -0.14800        -0.09200
| 59>    C        3.02500         0.51400         0.01500
| 60>    C        4.38700         3.58200        -1.11500
| 61>    C        2.86600         1.91600         0.01300
| 62>    N        6.41300         4.29600        -0.09500
| 63>    H       -2.83000         7.38700        -0.84500
| 64>    H        2.27400         4.76600         0.08100
| 65>    H       -4.49200         3.17500         1.05600
| 66>    H       -5.83800         5.26800         1.07200
| 67>    H       -5.87500         7.57000        -0.76300
| 68>    H       -5.83600         7.58800         1.02500
| 69>    H       -4.59400         8.47300         0.09700
| 70>    H       -0.33200         5.28200         0.06900
| 71>    H       -1.36300         5.38100        -0.94400
| 72>    H        0.18200         1.07200         0.00500
| 73>    H       -0.18300        -1.08000        -0.02100
| 74>    H       -5.86400        -4.96200         1.89500
| 75>    H       -4.79400         2.27200         0.13900
| 76>    H       -4.80000        -2.16000        -1.99400
| 77>    H       -6.84100        -3.58200        -1.89300
| 78>    H       -8.42800        -4.53600         0.54600
| 79>    H       -7.95600        -5.33700        -0.98100
| 80>    H       -7.45600        -6.03700         0.58400
| 81>    H       -5.28700        -0.34400         0.10000
| 82>    H       -3.78000        -3.60100         1.94700
| 83>    H        3.58700        -6.86800        -1.84300
| 84>    H       -2.27600        -4.77400        -0.05000
| 85>    H        3.71400        -3.72400         1.92600
| 86>    H        5.09200        -5.79500         1.87100
| 87>    H        6.20500        -7.32900        -0.43900
| 88>    H        5.39300        -7.91700         1.04200
| 89>    H        4.75900        -8.37300        -0.56400
| 90>    H        0.32900        -5.29000        -0.00800
| 91>    H        2.14600        -4.84200        -1.94000
| 92>    H        5.80800         4.98600        -1.95600
| 93>    H        4.78800        -2.28100        -0.18500
| 94>    H        4.86000         2.11400         1.91200
| 95>    H        6.90100         3.53100         1.77200
| 96>    H        7.38300         6.10900         0.35600
| 97>    H        8.41400         4.65200         0.43500
| 98>    H        7.92100         5.31000        -1.15000
| 99>    H        5.28300         0.33600        -0.17900
|100>    H        3.72000         3.63200        -1.96700
|101> *
|102>
|103>                          ****END OF INPUT****

CARTESIAN COORDINATES (ANGSTROEM)
---------------------------------
  C     -3.145000    6.430000   -0.448000
  C      1.474000    4.041000    0.057000
  C     -2.802000    4.093000    0.049000
  C     -4.081000    4.081000    0.627000
  C     -4.844000    5.231000    0.646000
  C     -5.231000    7.590000    0.119000
  C      0.132000    4.307000    0.061000
  C     -0.569000    3.056000    0.047000
  C      1.649000    2.618000    0.023000
  C     -2.347000    5.303000   -0.496000
  N     -4.373000    6.384000    0.117000
  N      0.388000    2.067000    0.025000
  N     -2.010000    0.395000   -0.075000
  N     -0.388000   -2.074000   -0.027000
  N      2.010000   -0.401000    0.065000
  C     -1.960000    2.861000    0.024000
  C     -2.623000    1.615000   -0.018000
  C     -5.573000   -4.329000    1.066000
  C     -4.073000    1.471000    0.056000
  C     -4.106000   -2.756000   -0.026000
  C     -4.995000   -2.757000   -1.111000
  C     -6.132000   -3.542000   -1.076000
  C     -7.651000   -5.113000    0.040000
  C     -4.324000    0.141000    0.037000
  C     -3.025000   -0.520000   -0.048000
  C     -4.422000   -3.566000    1.075000
  N     -6.407000   -4.313000    0.001000
  C     -2.867000   -1.922000   -0.040000
  C     -1.650000   -2.624000   -0.027000
  C      3.568000   -6.142000   -1.040000
  C     -1.476000   -4.049000   -0.034000
  C      2.803000   -4.099000   -0.008000
  C      3.657000   -4.384000    1.069000
  C      4.427000   -5.530000    1.059000
  C      5.245000   -7.588000    0.014000
  C     -0.134000   -4.315000   -0.022000
  C      0.568000   -3.064000   -0.027000
  C      2.775000   -5.012000   -1.074000
  N      4.376000   -6.391000    0.017000
  C      1.959000   -2.869000   -0.009000
  C      2.621000   -1.622000    0.009000
  C      5.543000    4.339000   -1.130000
  C      4.070000   -1.479000   -0.094000
  C      4.104000    2.751000   -0.021000
  C      5.027000    2.729000    1.036000
  C      6.166000    3.509000    0.978000
  C      7.619000    5.153000   -0.115000
  C      4.321000   -0.148000   -0.092000
  C      3.025000    0.514000    0.015000
  C      4.387000    3.582000   -1.115000
  C      2.866000    1.916000    0.013000
  N      6.413000    4.296000   -0.095000
  H     -2.830000    7.387000   -0.845000
  H      2.274000    4.766000    0.081000
  H     -4.492000    3.175000    1.056000
  H     -5.838000    5.268000    1.072000
  H     -5.875000    7.570000   -0.763000
  H     -5.836000    7.588000    1.025000
  H     -4.594000    8.473000    0.097000
  H     -0.332000    5.282000    0.069000
  H     -1.363000    5.381000   -0.944000
  H      0.182000    1.072000    0.005000
  H     -0.183000   -1.080000   -0.021000
  H     -5.864000   -4.962000    1.895000
  H     -4.794000    2.272000    0.139000
  H     -4.800000   -2.160000   -1.994000
  H     -6.841000   -3.582000   -1.893000
  H     -8.428000   -4.536000    0.546000
  H     -7.956000   -5.337000   -0.981000
  H     -7.456000   -6.037000    0.584000
  H     -5.287000   -0.344000    0.100000
  H     -3.780000   -3.601000    1.947000
  H      3.587000   -6.868000   -1.843000
  H     -2.276000   -4.774000   -0.050000
  H      3.714000   -3.724000    1.926000
  H      5.092000   -5.795000    1.871000
  H      6.205000   -7.329000   -0.439000
  H      5.393000   -7.917000    1.042000
  H      4.759000   -8.373000   -0.564000
  H      0.329000   -5.290000   -0.008000
  H      2.146000   -4.842000   -1.940000
  H      5.808000    4.986000   -1.956000
  H      4.788000   -2.281000   -0.185000
  H      4.860000    2.114000    1.912000
  H      6.901000    3.531000    1.772000
  H      7.383000    6.109000    0.356000
  H      8.414000    4.652000    0.435000
  H      7.921000    5.310000   -1.150000
  H      5.283000    0.336000   -0.179000
  H      3.720000    3.632000   -1.967000

 Total Charge           Charge          ....    0
 Multiplicity           Mult            ....    1
 Number of Electrons    NEL             ....  358
 Basis Dimension        Dim             ....  918

ORBITAL ENERGIES
----------------

  NO   OCC          E(Eh)            E(eV)
   0   2.0000     -15.674037      -426.5122
   1   2.0000     -15.634214      -425.4286
   2   2.0000     -15.631324      -425.3500
   3   2.0000     -15.591178      -424.2575
   4   2.0000     -15.524590      -422.4456
   5   2.0000     -15.516173      -422.2165
   6   2.0000     -15.452740      -420.4904
   7   2.0000     -15.441065      -420.1727
   8   2.0000     -11.324739      -308.1618
   9   2.0000     -11.324384      -308.1522
  10   2.0000     -11.323436      -308.1264
  11   2.0000     -11.299478      -307.4744
  12   2.0000     -11.298017      -307.4347
  13   2.0000     -11.292919      -307.2959
  14   2.0000     -11.290421      -307.2280
  15   2.0000     -11.287075      -307.1369
  16   2.0000     -11.286426      -307.1193
  17   2.0000     -11.276659      -306.8535
  18   2.0000     -11.272951      -306.7526
  19   2.0000     -11.259361      -306.3828
  20   2.0000     -11.258395      -306.3565
  21   2.0000     -11.256413      -306.3026
  22   2.0000     -11.253899      -306.2342
  23   2.0000     -11.237900      -305.7988
  24   2.0000     -11.236087      -305.7495
  25   2.0000     -11.231371      -305.6211
  26   2.0000     -11.230561      -305.5991
  27   2.0000     -11.229370      -305.5667
  28   2.0000     -11.229268      -305.5639
  29   2.0000     -11.209716      -305.0319
  30   2.0000     -11.208488      -304.9985
  31   2.0000     -11.199626      -304.7573
  32   2.0000     -11.191773      -304.5436
  33   2.0000     -11.190459      -304.5079
  34   2.0000     -11.189216      -304.4741
  35   2.0000     -11.189058      -304.4697
  36   2.0000     -11.188899      -304.4654
  37   2.0000     -11.186292      -304.3945
  38   2.0000     -11.185122      -304.3626
  39   2.0000     -11.172630      -304.0227
  40   2.0000     -11.172274      -304.0130
  41   2.0000     -11.170460      -303.9637
  42   2.0000     -11.167169      -303.8741
  43   2.0000     -11.161026      -303.7070
  44   2.0000     -11.159506      -303.6656
  45   2.0000     -11.158640      -303.6420
  46   2.0000     -11.157111      -303.6004
  47   2.0000     -11.154800      -303.5375
  48   2.0000     -11.148207      -303.3581
  49   2.0000     -11.139432      -303.1194
  50   2.0000     -11.131843      -302.9129
  51   2.0000     -11.121738      -302.6379
  52   2.0000      -1.355495       -36.8849
  53   2.0000      -1.321434       -35.9580
  54   2.0000      -1.319166       -35.8963
  55   2.0000      -1.284805       -34.9613
  56   2.0000      -1.225197       -33.3393
  57   2.0000      -1.210649       -32.9434
  58   2.0000      -1.171799       -31.8863
  59   2.0000      -1.151843       -31.3432
  60   2.0000      -1.139577       -31.0095
  61   2.0000      -1.110396       -30.2154
  62   2.0000      -1.108588       -30.1662
  63   2.0000      -1.080760       -29.4090
  64   2.0000      -1.077548       -29.3216
  65   2.0000      -1.045608       -28.4524
  66   2.0000      -1.043862       -28.4049
  67   2.0000      -1.038396       -28.2562
  68   2.0000      -1.014448       -27.6045
  69   2.0000      -1.014011       -27.5926
  70   2.0000      -1.009692       -27.4751
  71   2.0000      -0.992663       -27.0117
  72   2.0000      -0.986869       -26.8541
  73   2.0000      -0.979888       -26.6641
  74   2.0000      -0.972412       -26.4607
  75   2.0000      -0.961028       -26.1509
  76   2.0000      -0.953357       -25.9422
  77   2.0000      -0.946424       -25.7535
  78   2.0000      -0.935141       -25.4465
  79   2.0000      -0.919189       -25.0124
  80   2.0000      -0.906471       -24.6663
  81   2.0000      -0.893967       -24.3261
  82   2.0000      -0.874631       -23.7999
  83   2.0000      -0.871793       -23.7227
  84   2.0000      -0.869089       -23.6491
  85   2.0000      -0.856997       -23.3201
  86   2.0000      -0.841548       -22.8997
  87   2.0000      -0.835904       -22.7461
  88   2.0000      -0.824348       -22.4317
  89   2.0000      -0.797784       -21.7088
  90   2.0000      -0.791627       -21.5413
  91   2.0000      -0.750584       -20.4244
  92   2.0000      -0.743329       -20.2270
  93   2.0000      -0.732751       -19.9392
  94   2.0000      -0.724231       -19.7073
  95   2.0000      -0.721827       -19.6419
  96   2.0000      -0.715929       -19.4814
  97   2.0000      -0.711483       -19.3604
  98   2.0000      -0.707295       -19.2465
  99   2.0000      -0.696650       -18.9568
 100   2.0000      -0.696185       -18.9442
 101   2.0000      -0.684812       -18.6347
 102   2.0000      -0.680692       -18.5226
 103   2.0000      -0.680178       -18.5086
 104   2.0000      -0.678185       -18.4544
 105   2.0000      -0.673395       -18.3240
 106   2.0000      -0.669555       -18.2195
 107   2.0000      -0.660718       -17.9791
 108   2.0000      -0.656371       -17.8608
 109   2.0000      -0.653282       -17.7767
 110   2.0000      -0.650998       -17.7145
 111   2.0000      -0.643361       -17.5067
 112   2.0000      -0.641985       -17.4693
 113   2.0000      -0.639953       -17.4140
 114   2.0000      -0.637732       -17.3536
 115   2.0000      -0.627723       -17.0812
 116   2.0000      -0.624542       -16.9946
 117   2.0000      -0.619274       -16.8513
 118   2.0000      -0.612690       -16.6721
 119   2.0000      -0.612250       -16.6602
 120   2.0000      -0.611071       -16.6281
 121   2.0000      -0.607720       -16.5369
 122   2.0000      -0.600595       -16.3430
 123   2.0000      -0.586584       -15.9618
 124   2.0000      -0.581912       -15.8346
 125   2.0000      -0.580529       -15.7970
 126   2.0000      -0.579522       -15.7696
 127   2.0000      -0.575035       -15.6475
 128   2.0000      -0.567431       -15.4406
 129   2.0000      -0.559261       -15.2183
 130   2.0000      -0.551349       -15.0030
 131   2.0000      -0.547663       -14.9027
 132   2.0000      -0.542295       -14.7566
 133   2.0000      -0.540844       -14.7171
 134   2.0000      -0.538152       -14.6439
 135   2.0000      -0.535722       -14.5777
 136   2.0000      -0.528328       -14.3765
 137   2.0000      -0.522473       -14.2172
 138   2.0000      -0.516698       -14.0601
 139   2.0000      -0.513846       -13.9825
 140   2.0000      -0.512683       -13.9508
 141   2.0000      -0.511427       -13.9166
 142   2.0000      -0.509032       -13.8515
 143   2.0000      -0.504004       -13.7147
 144   2.0000      -0.501760       -13.6536
 145   2.0000      -0.496963       -13.5230
 146   2.0000      -0.492653       -13.4058
 147   2.0000      -0.483684       -13.1617
 148   2.0000      -0.479836       -13.0570
 149   2.0000      -0.466629       -12.6976
 150   2.0000      -0.466219       -12.6865
 151   2.0000      -0.457228       -12.4418
 152   2.0000      -0.450648       -12.2628
 153   2.0000      -0.445170       -12.1137
 154   2.0000      -0.441406       -12.0113
 155   2.0000      -0.430352       -11.7105
 156   2.0000      -0.428283       -11.6542
 157   2.0000      -0.413104       -11.2411
 158   2.0000      -0.404565       -11.0088
 159   2.0000      -0.388383       -10.5684
 160   2.0000      -0.383907       -10.4466
 161   2.0000      -0.378414       -10.2972
 162   2.0000      -0.370075       -10.0703
 163   2.0000      -0.356798        -9.7090
 164   2.0000      -0.355503        -9.6737
 165   2.0000      -0.340681        -9.2704
 166   2.0000      -0.337505        -9.1840
 167   2.0000      -0.325952        -8.8696
 168   2.0000      -0.324517        -8.8305
 169   2.0000      -0.304069        -8.2741
 170   2.0000      -0.299726        -8.1559
 171   2.0000      -0.285918        -7.7802
 172   2.0000      -0.281681        -7.6649
 173   2.0000      -0.262896        -7.1538
 174   2.0000      -0.242614        -6.6019
 175   2.0000      -0.189858        -5.1663
 176   2.0000      -0.180279        -4.9056
 177   2.0000      -0.076013        -2.0684
 178   2.0000      -0.058518        -1.5924
 179   0.0000       0.028493         0.7753
 180   0.0000       0.066274         1.8034
 181   0.0000       0.091153         2.4804
 182   0.0000       0.109889         2.9902
 183   0.0000       0.110503         3.0069

MULLIKEN ATOMIC CHARGES
-----------------------
   0 C :    0.210003
   1 N :   -0.455340
   2 C :   -0.066379
   3 N :   -0.337522
   4 C :   -0.047821
   5 N :   -0.564725
   6 C :   -0.109747
   7 N :   -0.340256
   8 C :    0.207085
   9 N :   -0.562280
  10 C :    0.119336
  11 N :   -0.438408
  12 C :   -0.080909
  13 N :   -0.430776
  14 C :    0.232391
  15 N :   -0.441002
  16 C :    0.228305
  17 C :   -0.121011
  18 C :   -0.194016
  19 C :    0.224871
  20 C :    0.212749
  21 C :   -0.091198
  22 C :   -0.091141
  23 C :   -0.040440
  24 C :    0.194730
  25 C :    0.114574
  26 C :   -0.082653
  27 C :    0.213292
  28 C :   -0.060834
  29 C :   -0.180584
  30 C :    0.245096
  31 C :    0.227832
  32 C :   -0.062187
  33 C :   -0.062992
  34 C :   -0.050989
  35 C :    0.225340
  36 C :    0.108976
  37 C :   -0.064556
  38 C :    0.231837
  39 C :   -0.058111
  40 C :   -0.182169
  41 C :    0.225452
  42 C :    0.197943
  43 C :   -0.072383
  44 C :   -0.089564
  45 C :   -0.060407
  46 C :    0.210676
  47 C :    0.115392
  48 C :   -0.067697
  49 C :    0.237584
  50 C :   -0.047178
  51 C :   -0.191729
  52 H :    0.039377
  53 H :   -0.016752
  54 H :    0.052671
  55 H :    0.038254
  56 H :    0.049733
  57 H :    0.048192
  58 H :    0.047471
  59 H :    0.000991
  60 H :    0.048078
  61 H :    0.171279
  62 H :    0.175175
  63 H :    0.055227
  64 H :   -0.009338
  65 H :    0.047272
  66 H :    0.055829
  67 H :    0.062285
  68 H :    0.057291
  69 H :    0.056509
  70 H :   -0.029408
  71 H :    0.044834
  72 H :    0.069554
  73 H :   -0.008538
  74 H :    0.058754
  75 H :    0.068925
  76 H :    0.073362
  77 H :    0.066810
  78 H :    0.066106
  79 H :   -0.016242
  80 H :    0.059628
  81 H :    0.054141
  82 H :   -0.024610
  83 H :    0.042115
  84 H :    0.054138
  85 H :    0.060732
  86 H :    0.055646
  87 H :    0.057099
  88 H :   -0.015117
  89 H :    0.046068
Sum of atomic charges:    0.0000000

LOEWDIN ATOMIC CHARGES
----------------------
   0 C :   -0.019823
   1 N :    0.117831
   2 C :   -0.101308
   3 N :    0.183354
   4 C :   -0.007955
   5 N :   -0.133036
   6 C :   -0.036903
   7 N :    0.175690
   8 C :   -0.022656
   9 N :   -0.140357
  10 C :    0.024190
  11 N :    0.141976
  12 C :   -0.115270
  13 N :    0.163179
  14 C :   -0.027221
  15 N :    0.138713
  16 C :   -0.058908
  17 C :   -0.045191
  18 C :   -0.103890
  19 C :   -0.081225
  20 C :    0.003948
  21 C :   -0.122634
  22 C :    0.036727
  23 C :   -0.015048
  24 C :   -0.011611
  25 C :    0.029824
  26 C :   -0.107981
  27 C :   -0.114742
  28 C :   -0.027075
  29 C :   -0.100585
  30 C :   -0.031387
  31 C :    0.021551
  32 C :   -0.094973
  33 C :    0.076682
  34 C :   -0.015656
  35 C :    0.019656
  36 C :    0.034558
  37 C :   -0.094932
  38 C :   -0.051014
  39 C :   -0.018474
  40 C :   -0.108295
  41 C :   -0.091480
  42 C :   -0.009996
  43 C :   -0.099738
  44 C :    0.033256
  45 C :   -0.027454
  46 C :    0.001134
  47 C :    0.029481
  48 C :   -0.095720
  49 C :   -0.071612
  50 C :   -0.019436
  51 C :   -0.108521
  52 H :    0.023571
  53 H :    0.003023
  54 H :    0.039502
  55 H :    0.023440
  56 H :    0.021939
  57 H :    0.026559
  58 H :    0.027048
  59 H :    0.010911
  60 H :    0.038641
  61 H :    0.060102
  62 H :    0.061699
  63 H :    0.030671
  64 H :    0.005851
  65 H :    0.045904
  66 H :    0.029363
  67 H :    0.028160
  68 H :    0.031651
  69 H :    0.030350
  70 H :   -0.004348
  71 H :    0.043522
  72 H :    0.036885
  73 H :    0.006865
  74 H :    0.049987
  75 H :    0.036503
  76 H :    0.033992
  77 H :    0.035626
  78 H :    0.035311
  79 H :    0.003134
  80 H :    0.050007
  81 H :    0.029000
  82 H :   -0.002597
  83 H :    0.042643
  84 H :    0.029832
  85 H :    0.027314
  86 H :    0.030222
  87 H :    0.031351
  88 H :    0.002082
  89 H :    0.044639

  Mayer bond orders larger than 0.100000
B(  0-C ,  1-N ) :   1.0951 B(  0-C , 17-C ) :   1.7005 B(  0-C , 52-H ) :   0.9669
B(  1-N ,  8-C ) :   1.0875 B(  1-N , 10-C ) :   0.9769 B(  2-C , 12-C ) :   1.5065
B(  2-C , 16-C ) :   1.3566 B(  2-C , 53-H ) :   0.9750 B(  3-N , 14-C ) :   1.2189
B(  3-N , 16-C ) :   1.1890 B(  3-N , 61-H ) :   0.8990 B(  4-C ,  6-C ) :   1.2125
B(  4-C , 17-C ) :   1.2146 B(  4-C , 18-C ) :   1.4363 B(  5-N , 19-C ) :   1.4514
B(  5-N , 27-C ) :   1.3791 B(  6-C ,  8-C ) :   1.7085 B(  6-C , 54-H ) :   0.9482
B(  7-N , 30-C ) :   1.1958 B(  7-N , 38-C ) :   1.1911 B(  7-N , 62-H ) :   0.8970
B(  8-C , 55-H ) :   0.9667 B(  9-N , 41-C ) :   1.3955 B(  9-N , 49-C ) :   1.4245
B( 10-C , 56-H ) :   0.9771 B( 10-C , 57-H ) :   0.9822 B( 10-C , 58-H ) :   0.9843
B( 11-N , 20-C ) :   1.1300 B( 11-N , 24-C ) :   1.1081 B( 11-N , 25-C ) :   0.9602
B( 12-C , 14-C ) :   1.3553 B( 12-C , 59-H ) :   0.9717 B( 13-N , 31-C ) :   1.1566
B( 13-N , 35-C ) :   1.1545 B( 13-N , 36-C ) :   0.9436 B( 14-C , 18-C ) :   1.1309
B( 15-N , 42-C ) :   1.1085 B( 15-N , 46-C ) :   1.1230 B( 15-N , 47-C ) :   0.9614
B( 16-C , 51-C ) :   1.1723 B( 17-C , 60-H ) :   0.9544 B( 18-C , 19-C ) :   1.1350
B( 19-C , 21-C ) :   1.2460 B( 20-C , 28-C ) :   1.6285 B( 20-C , 63-H ) :   0.9703
B( 21-C , 26-C ) :   1.6036 B( 21-C , 64-H ) :   0.9644 B( 22-C , 23-C ) :   1.2886
B( 22-C , 28-C ) :   1.2646 B( 22-C , 29-C ) :   1.2248 B( 23-C , 24-C ) :   1.6203
B( 23-C , 65-H ) :   0.9704 B( 24-C , 66-H ) :   0.9695 B( 25-C , 67-H ) :   0.9760
B( 25-C , 68-H ) :   0.9828 B( 25-C , 69-H ) :   0.9823 B( 26-C , 27-C ) :   1.2439
B( 26-C , 70-H ) :   0.9704 B( 27-C , 29-C ) :   1.2121 B( 28-C , 71-H ) :   0.9719
B( 29-C , 30-C ) :   1.2407 B( 30-C , 32-C ) :   1.2839 B( 31-C , 39-C ) :   1.5932
B( 31-C , 72-H ) :   0.9683 B( 32-C , 37-C ) :   1.5748 B( 32-C , 73-H ) :   0.9785
B( 33-C , 34-C ) :   1.3032 B( 33-C , 39-C ) :   1.2995 B( 33-C , 40-C ) :   1.1850
B( 34-C , 35-C ) :   1.5906 B( 34-C , 74-H ) :   0.9697 B( 35-C , 75-H ) :   0.9683
B( 36-C , 76-H ) :   0.9767 B( 36-C , 77-H ) :   0.9816 B( 36-C , 78-H ) :   0.9824
B( 37-C , 38-C ) :   1.2890 B( 37-C , 79-H ) :   0.9766 B( 38-C , 40-C ) :   1.2301
B( 39-C , 80-H ) :   0.9706 B( 40-C , 41-C ) :   1.2473 B( 41-C , 43-C ) :   1.1876
B( 42-C , 50-C ) :   1.6332 B( 42-C , 81-H ) :   0.9697 B( 43-C , 48-C ) :   1.6650
B( 43-C , 82-H ) :   0.9723 B( 44-C , 45-C ) :   1.2643 B( 44-C , 50-C ) :   1.2717
B( 44-C , 51-C ) :   1.2599 B( 45-C , 46-C ) :   1.6346 B( 45-C , 83-H ) :   0.9718
B( 46-C , 84-H ) :   0.9700 B( 47-C , 85-H ) :   0.9762 B( 47-C , 86-H ) :   0.9829
B( 47-C , 87-H ) :   0.9825 B( 48-C , 49-C ) :   1.1909 B( 48-C , 88-H ) :   0.9747
B( 49-C , 51-C ) :   1.2408 B( 50-C , 89-H ) :   0.9710

MP2 TOTAL ENERGY:    -2130.876146697 Eh
FINAL SINGLE POINT ENERGY     -2130.876146697341

DIPOLE MOMENT
-------------
                                X             Y             Z
Electronic contribution:      2.49857      -3.83965      -0.11219
Nuclear contribution   :     -0.04984       0.15330       0.13270
                        -----------------------------------------
Total Dipole Moment    :      2.44872      -3.68635       0.02051
                        -----------------------------------------
Magnitude (a.u.)       :      4.42559
Magnitude (Debye)      :     11.24895

Rotational constants in cm-1:     0.001502     0.001477     0.000761
Rotational constants in MHz :    45.029252    44.273233    22.799238

                             ****ORCA TERMINATED NORMALLY****
TOTAL RUN TIME: 0 days 1 hours 11 minutes 0 seconds 22 msec
