                         Program Version 5.0.4 -  RELEASE  -
|  1> ! PAL2
|  2> ! mp2 cc-pvdz TightSCF  NoKeepInts
|  3>
|  4> %scf
|  5>   MaxCore 2000
|  6> end
|  7> %mp2
|  8>   MaxCore 2000
|  9> end
| 10> * xyz 0 1
| 11>    C       -3.78300         6.00600        -1.04800
| 12>    C        1.47400         4.04100         0.05700
| 13>    C       -2.80200         4.09300         0.04900
| 14>    C       -3.41400         4.52400         1.23600
| 15>    C       -4.18600         5.66900         1.24200
| 16>    C       -5.22200         7.59500         0.14400
| 17>    C        0.13200         4.30700         0.06100
| 18>    C       -0.56900         3.05600         0.04700
| 19>    C        1.64900         2.61800         0.02300
| 20>    C       -3.00700         4.86400        -1.10500
| 21>    N       -4.35900         6.39400         0.11300
| 22>    N        0.38800         2.06700         0.02500
| 23>    N       -2.01000         0.39500        -0.07500
| 24>    N       -0.38800        -2.07400        -0.02700
| 25>    N        2.01000        -0.40100         0.06500
| 26>    C       -1.96000         2.86100         0.02400
| 27>    C       -2.62300         1.61500        -0.01800
| 28>    C       -5.57300        -4.32900         1.06600
| 29>    C       -4.07300         1.47100         0.05600
| 30>    C       -4.10600        -2.75600        -0.02600
| 31>    C       -4.99500        -2.75700        -1.11100
| 32>    C       -6.13200        -3.54200        -1.07600
| 33>    C       -7.65100        -5.11300         0.04000
| 34>    C       -4.32400         0.14100         0.03700
| 35>    C       -3.02500        -0.52000        -0.04800
| 36>    C       -4.42200        -3.56600         1.07500
| 37>    N       -6.40700        -4.31300         0.00100
| 38>    C       -2.86700        -1.92200        -0.04000
| 39>    C       -1.65000        -2.62400        -0.02700
| 40>    C        3.56800        -6.14200        -1.04000
| 41>    C       -1.47600        -4.04900        -0.03400
| 42>    C        2.80300        -4.09900        -0.00800
| 43>    C        3.65700        -4.38400         1.06900
| 44>    C        4.42700        -5.53000         1.05900
| 45>    C        5.24500        -7.58800         0.01400
| 46>    C       -0.13400        -4.31500        -0.02200
| 47>    C        0.56800        -3.06400        -0.02700
| 48>    C        2.77500        -5.01200        -1.07400
| 49>    N        4.37600        -6.39100         0.01700
| 50>    C        1.95900        -2.86900        -0.00900
| 51>    C        2.62100        -1.62200         0.00900
| 52>    C        5.54300         4.33900        -1.13000
| 53>    C        4.07000        -1.47900        -0.09400
| 54>    C        4.10400         2.75100        -0.02100
| 55>    C        5.02700         2.72900         1.03600
| 56>    C        6.16600         3.50900         0.97800
| 57>    C        7.61900         5.15300        -0.11500
| 58>    C        4.32100        -0.14800        -0.09200
| 59>    C        3.02500         0.51400         0.01500
| 60>    C        4.38700         3.58200        -1.11500
| 61>    C        2.86600         1.91600         0.01300
| 62>    N        6.41300         4.29600        -0.09500
| 63>    H       -3.95800         6.63800        -1.91000
| 64>    H        2.27400         4.76600         0.08100
| 65>    H       -3.30200         3.96600         2.15800
| 66>    H       -4.68400         6.03500         2.13000
| 67>    H       -6.25900         7.29200        -0.01700
| 68>    H       -5.11900         8.07700         1.11600
| 69>    H       -4.90500         8.27600        -0.64600
| 70>    H       -0.33200         5.28200         0.06900
| 71>    H       -2.54900         4.59200        -2.05000
| 72>    H        0.18200         1.07200         0.00500
| 73>    H       -0.18300        -1.08000        -0.02100
| 74>    H       -5.86400        -4.96200         1.89500
| 75>    H       -4.79400         2.27200         0.13900
| 76>    H       -4.80000        -2.16000        -1.99400
| 77>    H       -6.84100        -3.58200        -1.89300
| 78>    H       -8.42800        -4.53600         0.54600
| 79>    H       -7.95600        -5.33700        -0.98100
| 80>    H       -7.45600        -6.03700         0.58400
| 81>    H       -5.28700        -0.34400         0.10000
| 82>    H       -3.78000        -3.60100         1.94700
| 83>    H        3.58700        -6.86800        -1.84300
| 84>    H       -2.27600        -4.77400        -0.05000
| 85>    H        3.71400        -3.72400         1.92600
| 86>    H        5.09200        -5.79500         1.87100
| 87>    H        6.20500        -7.32900        -0.43900
| 88>    H        5.39300        -7.91700         1.04200
| 89>    H        4.75900        -8.37300        -0.56400
| 90>    H        0.32900        -5.29000        -0.00800
| 91>    H        2.14600        -4.84200        -1.94000
| 92>    H        5.80800         4.98600        -1.95600
| 93>    H        4.78800        -2.28100        -0.18500
| 94>    H        4.86000         2.11400         1.91200
| 95>    H        6.90100         3.53100         1.77200
| 96>    H        7.38300         6.10900         0.35600
| 97>    H        8.41400         4.65200         0.43500
| 98>    H        7.92100         5.31000        -1.15000
| 99>    H        5.28300         0.33600        -0.17900
|100>    H        3.72000         3.63200        -1.96700
|101> *
|102>
|103>                          ****END OF INPUT****

CARTESIAN COORDINATES (ANGSTROEM)
---------------------------------
  C     -3.783000    6.006000   -1.048000
  C      1.474000    4.041000    0.057000
  C     -2.802000    4.093000    0.049000
  C     -3.414000    4.524000    1.236000
  C     -4.186000    5.669000    1.242000
  C     -5.222000    7.595000    0.144000
  C      0.132000    4.307000    0.061000
  C     -0.569000    3.056000    0.047000
  C      1.649000    2.618000    0.023000
  C     -3.007000    4.864000   -1.105000
  N     -4.359000    6.394000    0.113000
  N      0.388000    2.067000    0.025000
  N     -2.010000    0.395000   -0.075000
  N     -0.388000   -2.074000   -0.027000
  N      2.010000   -0.401000    0.065000
  C     -1.960000    2.861000    0.024000
  C     -2.623000    1.615000   -0.018000
  C     -5.573000   -4.329000    1.066000
  C     -4.073000    1.471000    0.056000
  C     -4.106000   -2.756000   -0.026000
  C     -4.995000   -2.757000   -1.111000
  C     -6.132000   -3.542000   -1.076000
  C     -7.651000   -5.113000    0.040000
  C     -4.324000    0.141000    0.037000
  C     -3.025000   -0.520000   -0.048000
  C     -4.422000   -3.566000    1.075000
  N     -6.407000   -4.313000    0.001000
  C     -2.867000   -1.922000   -0.040000
  C     -1.650000   -2.624000   -0.027000
  C      3.568000   -6.142000   -1.040000
  C     -1.476000   -4.049000   -0.034000
  C      2.803000   -4.099000   -0.008000
  C      3.657000   -4.384000    1.069000
  C      4.427000   -5.530000    1.059000
  C      5.245000   -7.588000    0.014000
  C     -0.134000   -4.315000   -0.022000
  C      0.568000   -3.064000   -0.027000
  C      2.775000   -5.012000   -1.074000
  N      4.376000   -6.391000    0.017000
  C      1.959000   -2.869000   -0.009000
  C      2.621000   -1.622000    0.009000
  C      5.543000    4.339000   -1.130000
  C      4.070000   -1.479000   -0.094000
  C      4.104000    2.751000   -0.021000
  C      5.027000    2.729000    1.036000
  C      6.166000    3.509000    0.978000
  C      7.619000    5.153000   -0.115000
  C      4.321000   -0.148000   -0.092000
  C      3.025000    0.514000    0.015000
  C      4.387000    3.582000   -1.115000
  C      2.866000    1.916000    0.013000
  N      6.413000    4.296000   -0.095000
  H     -3.958000    6.638000   -1.910000
  H      2.274000    4.766000    0.081000
  H     -3.302000    3.966000    2.158000
  H     -4.684000    6.035000    2.130000
  H     -6.259000    7.292000   -0.017000
  H     -5.119000    8.077000    1.116000
  H     -4.905000    8.276000   -0.646000
  H     -0.332000    5.282000    0.069000
  H     -2.549000    4.592000   -2.050000
  H      0.182000    1.072000    0.005000
  H     -0.183000   -1.080000   -0.021000
  H     -5.864000   -4.962000    1.895000
  H     -4.794000    2.272000    0.139000
  H     -4.800000   -2.160000   -1.994000
  H     -6.841000   -3.582000   -1.893000
  H     -8.428000   -4.536000    0.546000
  H     -7.956000   -5.337000   -0.981000
  H     -7.456000   -6.037000    0.584000
  H     -5.287000   -0.344000    0.100000
  H     -3.780000   -3.601000    1.947000
  H      3.587000   -6.868000   -1.843000
  H     -2.276000   -4.774000   -0.050000
  H      3.714000   -3.724000    1.926000
  H      5.092000   -5.795000    1.871000
  H      6.205000   -7.329000   -0.439000
  H      5.393000   -7.917000    1.042000
  H      4.759000   -8.373000   -0.564000
  H      0.329000   -5.290000   -0.008000
  H      2.146000   -4.842000   -1.940000
  H      5.808000    4.986000   -1.956000
  H      4.788000   -2.281000   -0.185000
  H      4.860000    2.114000    1.912000
  H      6.901000    3.531000    1.772000
  H      7.383000    6.109000    0.356000
  H      8.414000    4.652000    0.435000
  H      7.921000    5.310000   -1.150000
  H      5.283000    0.336000   -0.179000
  H      3.720000    3.632000   -1.967000

 Total Charge           Charge          ....    0
 Multiplicity           Mult            ....    1
 Number of Electrons    NEL             ....  358
 Basis Dimension        Dim             ....  918

ORBITAL ENERGIES
----------------

  NO   OCC          E(Eh)            E(eV)
   0   2.0000     -15.699423      -427.2030
   1   2.0000     -15.631993      -425.3681
   2   2.0000     -15.621477      -425.0820
   3   2.0000     -15.587355      -424.1535
   4   2.0000     -15.519996      -422.3206
   5   2.0000     -15.506734      -421.9597
   6   2.0000     -15.449566      -420.4041
   7   2.0000     -15.430085      -419.8739
   8   2.0000     -11.342929      -308.6568
   9   2.0000     -11.341030      -308.6051
  10   2.0000     -11.338440      -308.5346
  11   2.0000     -11.298392      -307.4449
  12   2.0000     -11.295781      -307.3738
  13   2.0000     -11.292410      -307.2821
  14   2.0000     -11.291390      -307.2543
  15   2.0000     -11.284389      -307.0638
  16   2.0000     -11.283093      -307.0286
  17   2.0000     -11.274822      -306.8035
  18   2.0000     -11.274724      -306.8008
  19   2.0000     -11.274162      -306.7855
  20   2.0000     -11.270043      -306.6735
  21   2.0000     -11.252118      -306.1857
  22   2.0000     -11.248913      -306.0985
  23   2.0000     -11.235531      -305.7343
  24   2.0000     -11.229042      -305.5578
  25   2.0000     -11.228147      -305.5334
  26   2.0000     -11.225729      -305.4676
  27   2.0000     -11.221120      -305.3422
  28   2.0000     -11.220826      -305.3342
  29   2.0000     -11.207465      -304.9706
  30   2.0000     -11.206445      -304.9429
  31   2.0000     -11.196370      -304.6687
  32   2.0000     -11.195586      -304.6474
  33   2.0000     -11.193466      -304.5897
  34   2.0000     -11.189978      -304.4948
  35   2.0000     -11.188893      -304.4653
  36   2.0000     -11.188533      -304.4555
  37   2.0000     -11.183246      -304.3116
  38   2.0000     -11.182975      -304.3042
  39   2.0000     -11.172562      -304.0209
  40   2.0000     -11.165492      -303.8285
  41   2.0000     -11.164258      -303.7949
  42   2.0000     -11.162623      -303.7504
  43   2.0000     -11.162237      -303.7399
  44   2.0000     -11.157809      -303.6194
  45   2.0000     -11.149961      -303.4059
  46   2.0000     -11.149619      -303.3966
  47   2.0000     -11.143484      -303.2296
  48   2.0000     -11.143407      -303.2275
  49   2.0000     -11.135491      -303.0121
  50   2.0000     -11.121968      -302.6441
  51   2.0000     -11.117285      -302.5167
  52   2.0000      -1.375404       -37.4266
  53   2.0000      -1.319636       -35.9091
  54   2.0000      -1.310109       -35.6499
  55   2.0000      -1.281162       -34.8622
  56   2.0000      -1.222110       -33.2553
  57   2.0000      -1.202880       -32.7320
  58   2.0000      -1.173176       -31.9237
  59   2.0000      -1.153646       -31.3923
  60   2.0000      -1.141236       -31.0546
  61   2.0000      -1.108274       -30.1577
  62   2.0000      -1.099698       -29.9243
  63   2.0000      -1.094866       -29.7928
  64   2.0000      -1.074178       -29.2299
  65   2.0000      -1.047131       -28.4939
  66   2.0000      -1.043810       -28.4035
  67   2.0000      -1.034931       -28.1619
  68   2.0000      -1.013824       -27.5876
  69   2.0000      -1.007942       -27.4275
  70   2.0000      -1.004847       -27.3433
  71   2.0000      -0.990881       -26.9633
  72   2.0000      -0.984113       -26.7791
  73   2.0000      -0.979351       -26.6495
  74   2.0000      -0.965200       -26.2644
  75   2.0000      -0.960896       -26.1473
  76   2.0000      -0.951522       -25.8922
  77   2.0000      -0.942697       -25.6521
  78   2.0000      -0.923713       -25.1355
  79   2.0000      -0.921228       -25.0679
  80   2.0000      -0.915770       -24.9194
  81   2.0000      -0.889242       -24.1975
  82   2.0000      -0.880370       -23.9561
  83   2.0000      -0.870389       -23.6845
  84   2.0000      -0.862252       -23.4631
  85   2.0000      -0.849103       -23.1053
  86   2.0000      -0.835396       -22.7323
  87   2.0000      -0.829172       -22.5629
  88   2.0000      -0.821891       -22.3648
  89   2.0000      -0.795298       -21.6412
  90   2.0000      -0.788921       -21.4676
  91   2.0000      -0.762062       -20.7368
  92   2.0000      -0.733855       -19.9692
  93   2.0000      -0.728201       -19.8154
  94   2.0000      -0.726000       -19.7555
  95   2.0000      -0.721052       -19.6208
  96   2.0000      -0.716747       -19.5037
  97   2.0000      -0.707205       -19.2440
  98   2.0000      -0.702169       -19.1070
  99   2.0000      -0.696616       -18.9559
 100   2.0000      -0.694451       -18.8970
 101   2.0000      -0.691306       -18.8114
 102   2.0000      -0.684145       -18.6165
 103   2.0000      -0.674987       -18.3673
 104   2.0000      -0.672466       -18.2987
 105   2.0000      -0.669433       -18.2162
 106   2.0000      -0.664863       -18.0918
 107   2.0000      -0.657840       -17.9007
 108   2.0000      -0.653703       -17.7882
 109   2.0000      -0.651590       -17.7307
 110   2.0000      -0.648854       -17.6562
 111   2.0000      -0.644286       -17.5319
 112   2.0000      -0.641249       -17.4493
 113   2.0000      -0.638662       -17.3789
 114   2.0000      -0.632361       -17.2074
 115   2.0000      -0.624875       -17.0037
 116   2.0000      -0.622460       -16.9380
 117   2.0000      -0.621471       -16.9111
 118   2.0000      -0.613589       -16.6966
 119   2.0000      -0.611128       -16.6296
 120   2.0000      -0.609759       -16.5924
 121   2.0000      -0.602916       -16.4062
 122   2.0000      -0.591863       -16.1054
 123   2.0000      -0.586516       -15.9599
 124   2.0000      -0.580991       -15.8096
 125   2.0000      -0.579711       -15.7747
 126   2.0000      -0.577842       -15.7239
 127   2.0000      -0.576284       -15.6815
 128   2.0000      -0.572726       -15.5847
 129   2.0000      -0.558819       -15.2062
 130   2.0000      -0.556510       -15.1434
 131   2.0000      -0.549923       -14.9642
 132   2.0000      -0.543108       -14.7787
 133   2.0000      -0.539274       -14.6744
 134   2.0000      -0.534435       -14.5427
 135   2.0000      -0.530772       -14.4430
 136   2.0000      -0.518880       -14.1194
 137   2.0000      -0.515492       -14.0273
 138   2.0000      -0.515187       -14.0189
 139   2.0000      -0.512570       -13.9477
 140   2.0000      -0.510373       -13.8880
 141   2.0000      -0.504312       -13.7230
 142   2.0000      -0.501987       -13.6598
 143   2.0000      -0.500574       -13.6213
 144   2.0000      -0.495949       -13.4955
 145   2.0000      -0.493703       -13.4343
 146   2.0000      -0.491099       -13.3635
 147   2.0000      -0.477446       -12.9920
 148   2.0000      -0.476562       -12.9679
 149   2.0000      -0.465099       -12.6560
 150   2.0000      -0.462530       -12.5861
 151   2.0000      -0.458802       -12.4846
 152   2.0000      -0.451014       -12.2727
 153   2.0000      -0.441423       -12.0117
 154   2.0000      -0.436441       -11.8762
 155   2.0000      -0.434707       -11.8290
 156   2.0000      -0.422272       -11.4906
 157   2.0000      -0.416239       -11.3264
 158   2.0000      -0.409843       -11.1524
 159   2.0000      -0.397819       -10.8252
 160   2.0000      -0.382090       -10.3972
 161   2.0000      -0.371351       -10.1050
 162   2.0000      -0.355399        -9.6709
 163   2.0000      -0.355159        -9.6644
 164   2.0000      -0.347684        -9.4610
 165   2.0000      -0.339298        -9.2328
 166   2.0000      -0.339076        -9.2267
 167   2.0000      -0.324451        -8.8288
 168   2.0000      -0.315587        -8.5876
 169   2.0000      -0.301771        -8.2116
 170   2.0000      -0.298499        -8.1226
 171   2.0000      -0.284059        -7.7296
 172   2.0000      -0.278238        -7.5712
 173   2.0000      -0.264345        -7.1932
 174   2.0000      -0.233489        -6.3536
 175   2.0000      -0.184111        -5.0099
 176   2.0000      -0.174183        -4.7398
 177   2.0000      -0.062558        -1.7023
 178   2.0000      -0.050970        -1.3870
 179   0.0000       0.034568         0.9407
 180   0.0000       0.058580         1.5941
 181   0.0000       0.085777         2.3341
 182   0.0000       0.097675         2.6579
 183   0.0000       0.102371         2.7856

MULLIKEN ATOMIC CHARGES
-----------------------
   0 C :    0.231632
   1 N :   -0.418329
   2 C :   -0.066216
   3 N :   -0.342238
   4 C :   -0.069493
   5 N :   -0.565778
   6 C :   -0.030519
   7 N :   -0.336779
   8 C :    0.228591
   9 N :   -0.565947
  10 C :    0.105218
  11 N :   -0.439287
  12 C :   -0.060221
  13 N :   -0.449807
  14 C :    0.224662
  15 N :   -0.441400
  16 C :    0.252769
  17 C :   -0.036904
  18 C :   -0.185282
  19 C :    0.233971
  20 C :    0.191280
  21 C :   -0.070928
  22 C :   -0.089657
  23 C :   -0.064842
  24 C :    0.216298
  25 C :    0.114680
  26 C :   -0.066985
  27 C :    0.244799
  28 C :   -0.041285
  29 C :   -0.196320
  30 C :    0.222776
  31 C :    0.189970
  32 C :   -0.065781
  33 C :   -0.100382
  34 C :   -0.050972
  35 C :    0.181705
  36 C :    0.120259
  37 C :   -0.070176
  38 C :    0.242967
  39 C :   -0.064458
  40 C :   -0.202879
  41 C :    0.217652
  42 C :    0.211326
  43 C :   -0.076527
  44 C :   -0.091560
  45 C :   -0.039906
  46 C :    0.186654
  47 C :    0.116537
  48 C :   -0.080664
  49 C :    0.210372
  50 C :   -0.065598
  51 C :   -0.188581
  52 H :    0.078117
  53 H :   -0.007996
  54 H :    0.064597
  55 H :    0.076383
  56 H :    0.080740
  57 H :    0.073422
  58 H :    0.071602
  59 H :   -0.026608
  60 H :    0.063841
  61 H :    0.176723
  62 H :    0.168306
  63 H :    0.053347
  64 H :   -0.032408
  65 H :    0.041956
  66 H :    0.055471
  67 H :    0.058871
  68 H :    0.056395
  69 H :    0.059063
  70 H :   -0.015260
  71 H :    0.046910
  72 H :    0.039500
  73 H :   -0.019337
  74 H :    0.031217
  75 H :    0.038296
  76 H :    0.047867
  77 H :    0.047354
  78 H :    0.046634
  79 H :   -0.012158
  80 H :    0.031151
  81 H :    0.050798
  82 H :   -0.022632
  83 H :    0.042984
  84 H :    0.049960
  85 H :    0.055002
  86 H :    0.056479
  87 H :    0.054764
  88 H :   -0.029226
  89 H :    0.039462
Sum of atomic charges:    0.0000000

LOEWDIN ATOMIC CHARGES
----------------------
   0 C :    0.033405
   1 N :    0.183057
   2 C :   -0.099201
   3 N :    0.172725
   4 C :    0.103495
   5 N :   -0.146941
   6 C :   -0.009351
   7 N :    0.177730
   8 C :    0.030555
   9 N :   -0.138847
  10 C :    0.038016
  11 N :    0.140346
  12 C :   -0.097603
  13 N :    0.116521
  14 C :   -0.059631
  15 N :    0.135402
  16 C :   -0.021031
  17 C :   -0.012507
  18 C :   -0.118124
  19 C :   -0.089824
  20 C :   -0.015361
  21 C :   -0.099770
  22 C :    0.035765
  23 C :   -0.031964
  24 C :    0.006918
  25 C :    0.029479
  26 C :   -0.093864
  27 C :   -0.059557
  28 C :   -0.015577
  29 C :   -0.118154
  30 C :   -0.062662
  31 C :   -0.023862
  32 C :   -0.102040
  33 C :   -0.001268
  34 C :   -0.026365
  35 C :   -0.031209
  36 C :    0.023827
  37 C :   -0.109328
  38 C :   -0.031415
  39 C :   -0.033211
  40 C :   -0.113196
  41 C :   -0.092358
  42 C :    0.000256
  43 C :   -0.112458
  44 C :    0.028321
  45 C :   -0.015053
  46 C :   -0.021157
  47 C :    0.028380
  48 C :   -0.112689
  49 C :   -0.114103
  50 C :   -0.032309
  51 C :   -0.107807
  52 H :    0.040312
  53 H :    0.007240
  54 H :    0.054272
  55 H :    0.039830
  56 H :    0.037797
  57 H :    0.038433
  58 H :    0.038273
  59 H :   -0.000020
  60 H :    0.053938
  61 H :    0.062469
  62 H :    0.058006
  63 H :    0.029049
  64 H :   -0.004932
  65 H :    0.042356
  66 H :    0.030100
  67 H :    0.026673
  68 H :    0.031209
  69 H :    0.031322
  70 H :    0.002284
  71 H :    0.045489
  72 H :    0.022945
  73 H :    0.001718
  74 H :    0.038456
  75 H :    0.022049
  76 H :    0.020867
  77 H :    0.026509
  78 H :    0.026214
  79 H :    0.005336
  80 H :    0.037695
  81 H :    0.028123
  82 H :   -0.001208
  83 H :    0.044157
  84 H :    0.027128
  85 H :    0.024630
  86 H :    0.030414
  87 H :    0.030229
  88 H :   -0.004651
  89 H :    0.040885

  Mayer bond orders larger than 0.100000
B(  0-C ,  1-N ) :   1.1875 B(  0-C , 17-C ) :   1.5431 B(  0-C , 52-H ) :   0.9675
B(  1-N ,  8-C ) :   1.1822 B(  1-N , 10-C ) :   0.9328 B(  2-C , 12-C ) :   1.5709
B(  2-C , 16-C ) :   1.2842 B(  2-C , 53-H ) :   0.9790 B(  3-N , 14-C ) :   1.1796
B(  3-N , 16-C ) :   1.2023 B(  3-N , 61-H ) :   0.8957 B(  4-C ,  6-C ) :   1.3422
B(  4-C , 17-C ) :   1.3408 B(  4-C , 18-C ) :   1.0909 B(  5-N , 19-C ) :   1.3718
B(  5-N , 27-C ) :   1.4431 B(  6-C ,  8-C ) :   1.5418 B(  6-C , 54-H ) :   0.9707
B(  7-N , 30-C ) :   1.1866 B(  7-N , 38-C ) :   1.2130 B(  7-N , 62-H ) :   0.9010
B(  8-C , 55-H ) :   0.9681 B(  9-N , 41-C ) :   1.4321 B(  9-N , 49-C ) :   1.3947
B( 10-C , 56-H ) :   0.9765 B( 10-C , 57-H ) :   0.9808 B( 10-C , 58-H ) :   0.9821
B( 11-N , 20-C ) :   1.1027 B( 11-N , 24-C ) :   1.1338 B( 11-N , 25-C ) :   0.9611
B( 12-C , 14-C ) :   1.2840 B( 12-C , 59-H ) :   0.9770 B( 13-N , 31-C ) :   1.0876
B( 13-N , 35-C ) :   1.0787 B( 13-N , 36-C ) :   0.9790 B( 14-C , 18-C ) :   1.2487
B( 15-N , 42-C ) :   1.1252 B( 15-N , 46-C ) :   1.0937 B( 15-N , 47-C ) :   0.9654
B( 16-C , 51-C ) :   1.2360 B( 17-C , 60-H ) :   0.9711 B( 18-C , 19-C ) :   1.2971
B( 19-C , 21-C ) :   1.1700 B( 20-C , 28-C ) :   1.6272 B( 20-C , 63-H ) :   0.9708
B( 21-C , 26-C ) :   1.6760 B( 21-C , 64-H ) :   0.9718 B( 22-C , 23-C ) :   1.2610
B( 22-C , 28-C ) :   1.2796 B( 22-C , 29-C ) :   1.2533 B( 23-C , 24-C ) :   1.6312
B( 23-C , 65-H ) :   0.9720 B( 24-C , 66-H ) :   0.9690 B( 25-C , 67-H ) :   0.9763
B( 25-C , 68-H ) :   0.9833 B( 25-C , 69-H ) :   0.9819 B( 26-C , 27-C ) :   1.1782
B( 26-C , 70-H ) :   0.9753 B( 27-C , 29-C ) :   1.2402 B( 28-C , 71-H ) :   0.9710
B( 29-C , 30-C ) :   1.1785 B( 30-C , 32-C ) :   1.3474 B( 31-C , 39-C ) :   1.6766
B( 31-C , 72-H ) :   0.9707 B( 32-C , 37-C ) :   1.5118 B( 32-C , 73-H ) :   0.9772
B( 33-C , 34-C ) :   1.2385 B( 33-C , 39-C ) :   1.2315 B( 33-C , 40-C ) :   1.3413
B( 34-C , 35-C ) :   1.6750 B( 34-C , 74-H ) :   0.9709 B( 35-C , 75-H ) :   0.9707
B( 36-C , 76-H ) :   0.9756 B( 36-C , 77-H ) :   0.9825 B( 36-C , 78-H ) :   0.9837
B( 37-C , 38-C ) :   1.3430 B( 37-C , 79-H ) :   0.9790 B( 38-C , 40-C ) :   1.1809
B( 39-C , 80-H ) :   0.9720 B( 40-C , 41-C ) :   1.1772 B( 41-C , 43-C ) :   1.2475
B( 42-C , 50-C ) :   1.6401 B( 42-C , 81-H ) :   0.9696 B( 43-C , 48-C ) :   1.6037
B( 43-C , 82-H ) :   0.9754 B( 44-C , 45-C ) :   1.2802 B( 44-C , 50-C ) :   1.2523
B( 44-C , 51-C ) :   1.2473 B( 45-C , 46-C ) :   1.6320 B( 45-C , 83-H ) :   0.9704
B( 46-C , 84-H ) :   0.9708 B( 47-C , 85-H ) :   0.9760 B( 47-C , 86-H ) :   0.9826
B( 47-C , 87-H ) :   0.9829 B( 48-C , 49-C ) :   1.2424 B( 48-C , 88-H ) :   0.9728
B( 49-C , 51-C ) :   1.1983 B( 50-C , 89-H ) :   0.9721

MP2 TOTAL ENERGY:    -2130.882882569 Eh
FINAL SINGLE POINT ENERGY     -2130.882882569335

DIPOLE MOMENT
-------------
                                X             Y             Z
Electronic contribution:     -3.78196       4.27389      -0.14738
Nuclear contribution   :     -0.03678       0.16156       0.19583
                        -----------------------------------------
Total Dipole Moment    :     -3.81874       4.43545       0.04845
                        -----------------------------------------
Magnitude (a.u.)       :      5.85306
Magnitude (Debye)      :     14.87731

Rotational constants in cm-1:     0.001498     0.001472     0.000763
Rotational constants in MHz :    44.910631    44.144335    22.864450

                             ****ORCA TERMINATED NORMALLY****
TOTAL RUN TIME: 0 days 1 hours 13 minutes 4 seconds 790 msec
