                         Program Version 5.0.4 -  RELEASE  -
|  1> ! PAL2
|  2> ! mp2 cc-pvdz TightSCF  NoKeepInts
|  3>
|  4> %scf
|  5>   MaxCore 2000
|  6> end
|  7> %mp2
|  8>   MaxCore 2000
|  9> end
| 10> * xyz 0 1
| 11>    C       -3.25200         6.33100         0.83300
| 12>    C        1.47400         4.04100         0.05700
| 13>    C       -2.80200         4.09300         0.04900
| 14>    C       -3.98600         4.17200        -0.70000
| 15>    C       -4.75600         5.31800        -0.66100
| 16>    C       -5.21400         7.60200         0.09000
| 17>    C        0.13200         4.30700         0.06100
| 18>    C       -0.56900         3.05600         0.04700
| 19>    C        1.64900         2.61800         0.02300
| 20>    C       -2.44600         5.20900         0.82200
| 21>    N       -4.38700         6.37500         0.10000
| 22>    N        0.38800         2.06700         0.02500
| 23>    N       -2.01000         0.39500        -0.07500
| 24>    N       -0.38800        -2.07400        -0.02700
| 25>    N        2.01000        -0.40100         0.06500
| 26>    C       -1.96000         2.86100         0.02400
| 27>    C       -2.62300         1.61500        -0.01800
| 28>    C       -5.57300        -4.32900         1.06600
| 29>    C       -4.07300         1.47100         0.05600
| 30>    C       -4.10600        -2.75600        -0.02600
| 31>    C       -4.99500        -2.75700        -1.11100
| 32>    C       -6.13200        -3.54200        -1.07600
| 33>    C       -7.65100        -5.11300         0.04000
| 34>    C       -4.32400         0.14100         0.03700
| 35>    C       -3.02500        -0.52000        -0.04800
| 36>    C       -4.42200        -3.56600         1.07500
| 37>    N       -6.40700        -4.31300         0.00100
| 38>    C       -2.86700        -1.92200        -0.04000
| 39>    C       -1.65000        -2.62400        -0.02700
| 40>    C        3.56800        -6.14200        -1.04000
| 41>    C       -1.47600        -4.04900        -0.03400
| 42>    C        2.80300        -4.09900        -0.00800
| 43>    C        3.65700        -4.38400         1.06900
| 44>    C        4.42700        -5.53000         1.05900
| 45>    C        5.24500        -7.58800         0.01400
| 46>    C       -0.13400        -4.31500        -0.02200
| 47>    C        0.56800        -3.06400        -0.02700
| 48>    C        2.77500        -5.01200        -1.07400
| 49>    N        4.37600        -6.39100         0.01700
| 50>    C        1.95900        -2.86900        -0.00900
| 51>    C        2.62100        -1.62200         0.00900
| 52>    C        5.54300         4.33900        -1.13000
| 53>    C        4.07000        -1.47900        -0.09400
| 54>    C        4.10400         2.75100        -0.02100
| 55>    C        5.02700         2.72900         1.03600
| 56>    C        6.16600         3.50900         0.97800
| 57>    C        7.61900         5.15300        -0.11500
| 58>    C        4.32100        -0.14800        -0.09200
| 59>    C        3.02500         0.51400         0.01500
| 60>    C        4.38700         3.58200        -1.11500
| 61>    C        2.86600         1.91600         0.01300
| 62>    N        6.41300         4.29600        -0.09500
| 63>    H       -3.02200         7.20900         1.42300
| 64>    H        2.27400         4.76600         0.08100
| 65>    H       -4.30900         3.34800        -1.32400
| 66>    H       -5.67100         5.42900        -1.22800
| 67>    H       -4.90600         8.23100        -0.74800
| 68>    H       -6.26100         7.31900        -0.01800
| 69>    H       -5.06500         8.13200         1.03000
| 70>    H       -0.33200         5.28200         0.06900
| 71>    H       -1.55100         5.20400         1.43300
| 72>    H        0.18200         1.07200         0.00500
| 73>    H       -0.18300        -1.08000        -0.02100
| 74>    H       -5.86400        -4.96200         1.89500
| 75>    H       -4.79400         2.27200         0.13900
| 76>    H       -4.80000        -2.16000        -1.99400
| 77>    H       -6.84100        -3.58200        -1.89300
| 78>    H       -8.42800        -4.53600         0.54600
| 79>    H       -7.95600        -5.33700        -0.98100
| 80>    H       -7.45600        -6.03700         0.58400
| 81>    H       -5.28700        -0.34400         0.10000
| 82>    H       -3.78000        -3.60100         1.94700
| 83>    H        3.58700        -6.86800        -1.84300
| 84>    H       -2.27600        -4.77400        -0.05000
| 85>    H        3.71400        -3.72400         1.92600
| 86>    H        5.09200        -5.79500         1.87100
| 87>    H        6.20500        -7.32900        -0.43900
| 88>    H        5.39300        -7.91700         1.04200
| 89>    H        4.75900        -8.37300        -0.56400
| 90>    H        0.32900        -5.29000        -0.00800
| 91>    H        2.14600        -4.84200        -1.94000
| 92>    H        5.80800         4.98600        -1.95600
| 93>    H        4.78800        -2.28100        -0.18500
| 94>    H        4.86000         2.11400         1.91200
| 95>    H        6.90100         3.53100         1.77200
| 96>    H        7.38300         6.10900         0.35600
| 97>    H        8.41400         4.65200         0.43500
| 98>    H        7.92100         5.31000        -1.15000
| 99>    H        5.28300         0.33600        -0.17900
|100>    H        3.72000         3.63200        -1.96700
|101> *
|102>
|103>                          ****END OF INPUT****

CARTESIAN COORDINATES (ANGSTROEM)
---------------------------------
  C     -3.252000    6.331000    0.833000
  C      1.474000    4.041000    0.057000
  C     -2.802000    4.093000    0.049000
  C     -3.986000    4.172000   -0.700000
  C     -4.756000    5.318000   -0.661000
  C     -5.214000    7.602000    0.090000
  C      0.132000    4.307000    0.061000
  C     -0.569000    3.056000    0.047000
  C      1.649000    2.618000    0.023000
  C     -2.446000    5.209000    0.822000
  N     -4.387000    6.375000    0.100000
  N      0.388000    2.067000    0.025000
  N     -2.010000    0.395000   -0.075000
  N     -0.388000   -2.074000   -0.027000
  N      2.010000   -0.401000    0.065000
  C     -1.960000    2.861000    0.024000
  C     -2.623000    1.615000   -0.018000
  C     -5.573000   -4.329000    1.066000
  C     -4.073000    1.471000    0.056000
  C     -4.106000   -2.756000   -0.026000
  C     -4.995000   -2.757000   -1.111000
  C     -6.132000   -3.542000   -1.076000
  C     -7.651000   -5.113000    0.040000
  C     -4.324000    0.141000    0.037000
  C     -3.025000   -0.520000   -0.048000
  C     -4.422000   -3.566000    1.075000
  N     -6.407000   -4.313000    0.001000
  C     -2.867000   -1.922000   -0.040000
  C     -1.650000   -2.624000   -0.027000
  C      3.568000   -6.142000   -1.040000
  C     -1.476000   -4.049000   -0.034000
  C      2.803000   -4.099000   -0.008000
  C      3.657000   -4.384000    1.069000
  C      4.427000   -5.530000    1.059000
  C      5.245000   -7.588000    0.014000
  C     -0.134000   -4.315000   -0.022000
  C      0.568000   -3.064000   -0.027000
  C      2.775000   -5.012000   -1.074000
  N      4.376000   -6.391000    0.017000
  C      1.959000   -2.869000   -0.009000
  C      2.621000   -1.622000    0.009000
  C      5.543000    4.339000   -1.130000
  C      4.070000   -1.479000   -0.094000
  C      4.104000    2.751000   -0.021000
  C      5.027000    2.729000    1.036000
  C      6.166000    3.509000    0.978000
  C      7.619000    5.153000   -0.115000
  C      4.321000   -0.148000   -0.092000
  C      3.025000    0.514000    0.015000
  C      4.387000    3.582000   -1.115000
  C      2.866000    1.916000    0.013000
  N      6.413000    4.296000   -0.095000
  H     -3.022000    7.209000    1.423000
  H      2.274000    4.766000    0.081000
  H     -4.309000    3.348000   -1.324000
  H     -5.671000    5.429000   -1.228000
  H     -4.906000    8.231000   -0.748000
  H     -6.261000    7.319000   -0.018000
  H     -5.065000    8.132000    1.030000
  H     -0.332000    5.282000    0.069000
  H     -1.551000    5.204000    1.433000
  H      0.182000    1.072000    0.005000
  H     -0.183000   -1.080000   -0.021000
  H     -5.864000   -4.962000    1.895000
  H     -4.794000    2.272000    0.139000
  H     -4.800000   -2.160000   -1.994000
  H     -6.841000   -3.582000   -1.893000
  H     -8.428000   -4.536000    0.546000
  H     -7.956000   -5.337000   -0.981000
  H     -7.456000   -6.037000    0.584000
  H     -5.287000   -0.344000    0.100000
  H     -3.780000   -3.601000    1.947000
  H      3.587000   -6.868000   -1.843000
  H     -2.276000   -4.774000   -0.050000
  H      3.714000   -3.724000    1.926000
  H      5.092000   -5.795000    1.871000
  H      6.205000   -7.329000   -0.439000
  H      5.393000   -7.917000    1.042000
  H      4.759000   -8.373000   -0.564000
  H      0.329000   -5.290000   -0.008000
  H      2.146000   -4.842000   -1.940000
  H      5.808000    4.986000   -1.956000
  H      4.788000   -2.281000   -0.185000
  H      4.860000    2.114000    1.912000
  H      6.901000    3.531000    1.772000
  H      7.383000    6.109000    0.356000
  H      8.414000    4.652000    0.435000
  H      7.921000    5.310000   -1.150000
  H      5.283000    0.336000   -0.179000
  H      3.720000    3.632000   -1.967000

 Total Charge           Charge          ....    0
 Multiplicity           Mult            ....    1
 Number of Electrons    NEL             ....  358
 Basis Dimension        Dim             ....  918

ORBITAL ENERGIES
----------------

  NO   OCC          E(Eh)            E(eV)
   0   2.0000     -15.667031      -426.3216
   1   2.0000     -15.638000      -425.5316
   2   2.0000     -15.628600      -425.2758
   3   2.0000     -15.594878      -424.3582
   4   2.0000     -15.524307      -422.4379
   5   2.0000     -15.515815      -422.2068
   6   2.0000     -15.450483      -420.4290
   7   2.0000     -15.443362      -420.2352
   8   2.0000     -11.320045      -308.0341
   9   2.0000     -11.319308      -308.0140
  10   2.0000     -11.317057      -307.9528
  11   2.0000     -11.301826      -307.5383
  12   2.0000     -11.296219      -307.3857
  13   2.0000     -11.295641      -307.3700
  14   2.0000     -11.290915      -307.2414
  15   2.0000     -11.287689      -307.1536
  16   2.0000     -11.284281      -307.0609
  17   2.0000     -11.275941      -306.8340
  18   2.0000     -11.270062      -306.6740
  19   2.0000     -11.260510      -306.4141
  20   2.0000     -11.258074      -306.3478
  21   2.0000     -11.254412      -306.2481
  22   2.0000     -11.253483      -306.2228
  23   2.0000     -11.241602      -305.8995
  24   2.0000     -11.234140      -305.6965
  25   2.0000     -11.233579      -305.6812
  26   2.0000     -11.233339      -305.6747
  27   2.0000     -11.227185      -305.5072
  28   2.0000     -11.226915      -305.4999
  29   2.0000     -11.209118      -305.0156
  30   2.0000     -11.207801      -304.9798
  31   2.0000     -11.204919      -304.9013
  32   2.0000     -11.199543      -304.7551
  33   2.0000     -11.199374      -304.7505
  34   2.0000     -11.189917      -304.4931
  35   2.0000     -11.189581      -304.4840
  36   2.0000     -11.185783      -304.3806
  37   2.0000     -11.182188      -304.2828
  38   2.0000     -11.181361      -304.2603
  39   2.0000     -11.174451      -304.0723
  40   2.0000     -11.170914      -303.9760
  41   2.0000     -11.168231      -303.9030
  42   2.0000     -11.167198      -303.8749
  43   2.0000     -11.163366      -303.7706
  44   2.0000     -11.162103      -303.7363
  45   2.0000     -11.160114      -303.6821
  46   2.0000     -11.155252      -303.5498
  47   2.0000     -11.150793      -303.4285
  48   2.0000     -11.148379      -303.3628
  49   2.0000     -11.142832      -303.2119
  50   2.0000     -11.135578      -303.0145
  51   2.0000     -11.128898      -302.8327
  52   2.0000      -1.349518       -36.7223
  53   2.0000      -1.324699       -36.0469
  54   2.0000      -1.316749       -35.8306
  55   2.0000      -1.288787       -35.0697
  56   2.0000      -1.224638       -33.3241
  57   2.0000      -1.210500       -32.9394
  58   2.0000      -1.168680       -31.8014
  59   2.0000      -1.154258       -31.4090
  60   2.0000      -1.134466       -30.8704
  61   2.0000      -1.113109       -30.2892
  62   2.0000      -1.106440       -30.1078
  63   2.0000      -1.084019       -29.4977
  64   2.0000      -1.071990       -29.1703
  65   2.0000      -1.048729       -28.5374
  66   2.0000      -1.041503       -28.3407
  67   2.0000      -1.035275       -28.1713
  68   2.0000      -1.016539       -27.6614
  69   2.0000      -1.014378       -27.6026
  70   2.0000      -1.009443       -27.4683
  71   2.0000      -0.992670       -27.0119
  72   2.0000      -0.987533       -26.8721
  73   2.0000      -0.977963       -26.6117
  74   2.0000      -0.972332       -26.4585
  75   2.0000      -0.959401       -26.1066
  76   2.0000      -0.951362       -25.8879
  77   2.0000      -0.947304       -25.7774
  78   2.0000      -0.936021       -25.4704
  79   2.0000      -0.920631       -25.0516
  80   2.0000      -0.901957       -24.5435
  81   2.0000      -0.891750       -24.2657
  82   2.0000      -0.875854       -23.8332
  83   2.0000      -0.870646       -23.6915
  84   2.0000      -0.866209       -23.5708
  85   2.0000      -0.855286       -23.2735
  86   2.0000      -0.842080       -22.9142
  87   2.0000      -0.837846       -22.7990
  88   2.0000      -0.822622       -22.3847
  89   2.0000      -0.798527       -21.7290
  90   2.0000      -0.793568       -21.5941
  91   2.0000      -0.746574       -20.3153
  92   2.0000      -0.738330       -20.0910
  93   2.0000      -0.732468       -19.9315
  94   2.0000      -0.723718       -19.6934
  95   2.0000      -0.719946       -19.5907
  96   2.0000      -0.714237       -19.4354
  97   2.0000      -0.707003       -19.2385
  98   2.0000      -0.703157       -19.1339
  99   2.0000      -0.696356       -18.9488
 100   2.0000      -0.694990       -18.9116
 101   2.0000      -0.682290       -18.5660
 102   2.0000      -0.679541       -18.4913
 103   2.0000      -0.675902       -18.3922
 104   2.0000      -0.674927       -18.3657
 105   2.0000      -0.670949       -18.2575
 106   2.0000      -0.665961       -18.1217
 107   2.0000      -0.662551       -18.0289
 108   2.0000      -0.656116       -17.8538
 109   2.0000      -0.653528       -17.7834
 110   2.0000      -0.649237       -17.6666
 111   2.0000      -0.644584       -17.5400
 112   2.0000      -0.642309       -17.4781
 113   2.0000      -0.636893       -17.3307
 114   2.0000      -0.636718       -17.3260
 115   2.0000      -0.627910       -17.0863
 116   2.0000      -0.624299       -16.9881
 117   2.0000      -0.615805       -16.7569
 118   2.0000      -0.615086       -16.7373
 119   2.0000      -0.612639       -16.6708
 120   2.0000      -0.608867       -16.5681
 121   2.0000      -0.603396       -16.4192
 122   2.0000      -0.600135       -16.3305
 123   2.0000      -0.587407       -15.9842
 124   2.0000      -0.584976       -15.9180
 125   2.0000      -0.583410       -15.8754
 126   2.0000      -0.578670       -15.7464
 127   2.0000      -0.577743       -15.7212
 128   2.0000      -0.564010       -15.3475
 129   2.0000      -0.558461       -15.1965
 130   2.0000      -0.552886       -15.0448
 131   2.0000      -0.548504       -14.9256
 132   2.0000      -0.542827       -14.7711
 133   2.0000      -0.539266       -14.6742
 134   2.0000      -0.537095       -14.6151
 135   2.0000      -0.534136       -14.5346
 136   2.0000      -0.525238       -14.2924
 137   2.0000      -0.524194       -14.2640
 138   2.0000      -0.517968       -14.0946
 139   2.0000      -0.513749       -13.9798
 140   2.0000      -0.511446       -13.9171
 141   2.0000      -0.510057       -13.8794
 142   2.0000      -0.509546       -13.8655
 143   2.0000      -0.502873       -13.6839
 144   2.0000      -0.500710       -13.6250
 145   2.0000      -0.496843       -13.5198
 146   2.0000      -0.494204       -13.4480
 147   2.0000      -0.485347       -13.2070
 148   2.0000      -0.482344       -13.1253
 149   2.0000      -0.468036       -12.7359
 150   2.0000      -0.464640       -12.6435
 151   2.0000      -0.456669       -12.4266
 152   2.0000      -0.449001       -12.2179
 153   2.0000      -0.446589       -12.1523
 154   2.0000      -0.444251       -12.0887
 155   2.0000      -0.440088       -11.9754
 156   2.0000      -0.431254       -11.7350
 157   2.0000      -0.426866       -11.6156
 158   2.0000      -0.402092       -10.9415
 159   2.0000      -0.386004       -10.5037
 160   2.0000      -0.379547       -10.3280
 161   2.0000      -0.378368       -10.2959
 162   2.0000      -0.370861       -10.0916
 163   2.0000      -0.359387        -9.7794
 164   2.0000      -0.353425        -9.6172
 165   2.0000      -0.338234        -9.2038
 166   2.0000      -0.337450        -9.1825
 167   2.0000      -0.329222        -8.9586
 168   2.0000      -0.327918        -8.9231
 169   2.0000      -0.303336        -8.2542
 170   2.0000      -0.299631        -8.1534
 171   2.0000      -0.286617        -7.7992
 172   2.0000      -0.283613        -7.7175
 173   2.0000      -0.260385        -7.0854
 174   2.0000      -0.244970        -6.6660
 175   2.0000      -0.189639        -5.1603
 176   2.0000      -0.179900        -4.8953
 177   2.0000      -0.073308        -1.9948
 178   2.0000      -0.057567        -1.5665
 179   0.0000       0.028833         0.7846
 180   0.0000       0.067333         1.8322
 181   0.0000       0.092009         2.5037
 182   0.0000       0.106750         2.9048
 183   0.0000       0.114665         3.1202

MULLIKEN ATOMIC CHARGES
-----------------------
   0 C :    0.208953
   1 N :   -0.453360
   2 C :   -0.064633
   3 N :   -0.336217
   4 C :   -0.053851
   5 N :   -0.560735
   6 C :   -0.105676
   7 N :   -0.339909
   8 C :    0.202773
   9 N :   -0.562695
  10 C :    0.118654
  11 N :   -0.437656
  12 C :   -0.080506
  13 N :   -0.432425
  14 C :    0.227874
  15 N :   -0.441421
  16 C :    0.229842
  17 C :   -0.114318
  18 C :   -0.174986
  19 C :    0.213897
  20 C :    0.213378
  21 C :   -0.092328
  22 C :   -0.088469
  23 C :   -0.042133
  24 C :    0.197959
  25 C :    0.114055
  26 C :   -0.074488
  27 C :    0.212925
  28 C :   -0.058869
  29 C :   -0.180852
  30 C :    0.242923
  31 C :    0.225807
  32 C :   -0.062041
  33 C :   -0.066557
  34 C :   -0.049630
  35 C :    0.220312
  36 C :    0.109920
  37 C :   -0.064964
  38 C :    0.233907
  39 C :   -0.059696
  40 C :   -0.182681
  41 C :    0.223177
  42 C :    0.198069
  43 C :   -0.072991
  44 C :   -0.090954
  45 C :   -0.059406
  46 C :    0.208234
  47 C :    0.115716
  48 C :   -0.069473
  49 C :    0.235019
  50 C :   -0.048093
  51 C :   -0.192726
  52 H :    0.042254
  53 H :   -0.016082
  54 H :    0.050766
  55 H :    0.040398
  56 H :    0.049931
  57 H :    0.049652
  58 H :    0.048311
  59 H :   -0.000302
  60 H :    0.049330
  61 H :    0.171221
  62 H :    0.175034
  63 H :    0.056699
  64 H :   -0.005706
  65 H :    0.046930
  66 H :    0.056866
  67 H :    0.063416
  68 H :    0.057923
  69 H :    0.057644
  70 H :   -0.027554
  71 H :    0.046668
  72 H :    0.067227
  73 H :   -0.009452
  74 H :    0.056657
  75 H :    0.066421
  76 H :    0.071362
  77 H :    0.065240
  78 H :    0.064393
  79 H :   -0.015281
  80 H :    0.057183
  81 H :    0.053597
  82 H :   -0.024960
  83 H :    0.041264
  84 H :    0.053046
  85 H :    0.059691
  86 H :    0.055206
  87 H :    0.056671
  88 H :   -0.016430
  89 H :    0.046111
Sum of atomic charges:   -0.0000000

LOEWDIN ATOMIC CHARGES
----------------------
   0 C :   -0.018140
   1 N :    0.117628
   2 C :   -0.101490
   3 N :    0.182717
   4 C :   -0.001984
   5 N :   -0.131168
   6 C :   -0.033894
   7 N :    0.176033
   8 C :   -0.023053
   9 N :   -0.140084
  10 C :    0.024562
  11 N :    0.144004
  12 C :   -0.108144
  13 N :    0.159282
  14 C :   -0.034919
  15 N :    0.137498
  16 C :   -0.056168
  17 C :   -0.041584
  18 C :   -0.101195
  19 C :   -0.085321
  20 C :    0.005089
  21 C :   -0.113022
  22 C :    0.040175
  23 C :   -0.015958
  24 C :   -0.008371
  25 C :    0.030307
  26 C :   -0.107049
  27 C :   -0.112332
  28 C :   -0.025145
  29 C :   -0.100062
  30 C :   -0.035263
  31 C :    0.018819
  32 C :   -0.094489
  33 C :    0.070078
  34 C :   -0.015637
  35 C :    0.014240
  36 C :    0.033671
  37 C :   -0.096026
  38 C :   -0.047342
  39 C :   -0.020299
  40 C :   -0.108097
  41 C :   -0.094070
  42 C :   -0.010090
  43 C :   -0.101236
  44 C :    0.031268
  45 C :   -0.027189
  46 C :   -0.001370
  47 C :    0.029168
  48 C :   -0.098350
  49 C :   -0.074620
  50 C :   -0.020153
  51 C :   -0.109696
  52 H :    0.024519
  53 H :    0.003339
  54 H :    0.041553
  55 H :    0.024082
  56 H :    0.021948
  57 H :    0.027175
  58 H :    0.027487
  59 H :    0.009025
  60 H :    0.040464
  61 H :    0.060011
  62 H :    0.061617
  63 H :    0.031319
  64 H :    0.004782
  65 H :    0.045710
  66 H :    0.029915
  67 H :    0.028735
  68 H :    0.031944
  69 H :    0.030878
  70 H :   -0.003609
  71 H :    0.044412
  72 H :    0.035832
  73 H :    0.006418
  74 H :    0.049174
  75 H :    0.035245
  76 H :    0.032944
  77 H :    0.034886
  78 H :    0.034516
  79 H :    0.003599
  80 H :    0.048880
  81 H :    0.028784
  82 H :   -0.002732
  83 H :    0.042341
  84 H :    0.029279
  85 H :    0.026809
  86 H :    0.029998
  87 H :    0.031150
  88 H :    0.001460
  89 H :    0.044578

  Mayer bond orders larger than 0.100000
B(  0-C ,  1-N ) :   1.0961 B(  0-C , 17-C ) :   1.6953 B(  0-C , 52-H ) :   0.9674
B(  1-N ,  8-C ) :   1.0860 B(  1-N , 10-C ) :   0.9759 B(  2-C , 12-C ) :   1.5158
B(  2-C , 16-C ) :   1.3480 B(  2-C , 53-H ) :   0.9765 B(  3-N , 14-C ) :   1.2160
B(  3-N , 16-C ) :   1.1926 B(  3-N , 61-H ) :   0.8994 B(  4-C ,  6-C ) :   1.2173
B(  4-C , 17-C ) :   1.2161 B(  4-C , 18-C ) :   1.4059 B(  5-N , 19-C ) :   1.4479
B(  5-N , 27-C ) :   1.3837 B(  6-C ,  8-C ) :   1.6984 B(  6-C , 54-H ) :   0.9637
B(  7-N , 30-C ) :   1.1937 B(  7-N , 38-C ) :   1.1943 B(  7-N , 62-H ) :   0.8970
B(  8-C , 55-H ) :   0.9690 B(  9-N , 41-C ) :   1.3951 B(  9-N , 49-C ) :   1.4262
B( 10-C , 56-H ) :   0.9767 B( 10-C , 57-H ) :   0.9830 B( 10-C , 58-H ) :   0.9834
B( 11-N , 20-C ) :   1.1312 B( 11-N , 24-C ) :   1.1131 B( 11-N , 25-C ) :   0.9586
B( 12-C , 14-C ) :   1.3502 B( 12-C , 59-H ) :   0.9747 B( 13-N , 31-C ) :   1.1518
B( 13-N , 35-C ) :   1.1460 B( 13-N , 36-C ) :   0.9466 B( 14-C , 18-C ) :   1.1436
B( 15-N , 42-C ) :   1.1080 B( 15-N , 46-C ) :   1.1198 B( 15-N , 47-C ) :   0.9624
B( 16-C , 51-C ) :   1.1775 B( 17-C , 60-H ) :   0.9640 B( 18-C , 19-C ) :   1.1482
B( 19-C , 21-C ) :   1.2367 B( 20-C , 28-C ) :   1.6249 B( 20-C , 63-H ) :   0.9702
B( 21-C , 26-C ) :   1.6215 B( 21-C , 64-H ) :   0.9714 B( 22-C , 23-C ) :   1.2902
B( 22-C , 28-C ) :   1.2689 B( 22-C , 29-C ) :   1.2205 B( 23-C , 24-C ) :   1.6169
B( 23-C , 65-H ) :   0.9705 B( 24-C , 66-H ) :   0.9694 B( 25-C , 67-H ) :   0.9760
B( 25-C , 68-H ) :   0.9828 B( 25-C , 69-H ) :   0.9822 B( 26-C , 27-C ) :   1.2315
B( 26-C , 70-H ) :   0.9712 B( 27-C , 29-C ) :   1.2179 B( 28-C , 71-H ) :   0.9718
B( 29-C , 30-C ) :   1.2368 B( 30-C , 32-C ) :   1.2871 B( 31-C , 39-C ) :   1.6003
B( 31-C , 72-H ) :   0.9685 B( 32-C , 37-C ) :   1.5721 B( 32-C , 73-H ) :   0.9783
B( 33-C , 34-C ) :   1.2995 B( 33-C , 39-C ) :   1.2927 B( 33-C , 40-C ) :   1.1948
B( 34-C , 35-C ) :   1.5968 B( 34-C , 74-H ) :   0.9698 B( 35-C , 75-H ) :   0.9686
B( 36-C , 76-H ) :   0.9766 B( 36-C , 77-H ) :   0.9817 B( 36-C , 78-H ) :   0.9826
B( 37-C , 38-C ) :   1.2907 B( 37-C , 79-H ) :   0.9769 B( 38-C , 40-C ) :   1.2280
B( 39-C , 80-H ) :   0.9709 B( 40-C , 41-C ) :   1.2416 B( 41-C , 43-C ) :   1.1947
B( 42-C , 50-C ) :   1.6357 B( 42-C , 81-H ) :   0.9697 B( 43-C , 48-C ) :   1.6570
B( 43-C , 82-H ) :   0.9725 B( 44-C , 45-C ) :   1.2633 B( 44-C , 50-C ) :   1.2688
B( 44-C , 51-C ) :   1.2639 B( 45-C , 46-C ) :   1.6365 B( 45-C , 83-H ) :   0.9717
B( 46-C , 84-H ) :   0.9701 B( 47-C , 85-H ) :   0.9762 B( 47-C , 86-H ) :   0.9829
B( 47-C , 87-H ) :   0.9825 B( 48-C , 49-C ) :   1.1977 B( 48-C , 88-H ) :   0.9747
B( 49-C , 51-C ) :   1.2324 B( 50-C , 89-H ) :   0.9710

MP2 TOTAL ENERGY:    -2130.908318821 Eh
FINAL SINGLE POINT ENERGY     -2130.908318821276

DIPOLE MOMENT
-------------
                                X             Y             Z
Electronic contribution:      1.75107      -3.53785      -0.06105
Nuclear contribution   :      0.00224       0.18833       0.07048
                        -----------------------------------------
Total Dipole Moment    :      1.75331      -3.34952       0.00942
                        -----------------------------------------
Magnitude (a.u.)       :      3.78067
Magnitude (Debye)      :      9.60970

Rotational constants in cm-1:     0.001501     0.001475     0.000761
Rotational constants in MHz :    45.010701    44.229334    22.815499

                             ****ORCA TERMINATED NORMALLY****
TOTAL RUN TIME: 0 days 1 hours 8 minutes 24 seconds 5 msec
