                         Program Version 5.0.4 -  RELEASE  -
|  1> ! PAL2
|  2> ! mp2 cc-pvdz TightSCF  NoKeepInts
|  3>
|  4> %scf
|  5>   MaxCore 2000
|  6> end
|  7> %mp2
|  8>   MaxCore 2000
|  9> end
| 10> * xyz 0 1
| 11>    C       -3.32400         6.31300        -0.74000
| 12>    C        1.47400         4.04100         0.05700
| 13>    C       -2.80200         4.09300         0.04900
| 14>    C       -3.89300         4.20300         0.92500
| 15>    C       -4.65800         5.35200         0.93900
| 16>    C       -5.23000         7.59000         0.12900
| 17>    C        0.13200         4.30700         0.06100
| 18>    C       -0.56900         3.05600         0.04700
| 19>    C        1.64900         2.61800         0.02300
| 20>    C       -2.53300         5.18200        -0.79400
| 21>    N       -4.36800         6.38800         0.11700
| 22>    N        0.38800         2.06700         0.02500
| 23>    N       -2.01000         0.39500        -0.07500
| 24>    N       -0.38800        -2.07400        -0.02700
| 25>    N        2.01000        -0.40100         0.06500
| 26>    C       -1.96000         2.86100         0.02400
| 27>    C       -2.62300         1.61500        -0.01800
| 28>    C       -5.57300        -4.32900         1.06600
| 29>    C       -4.07300         1.47100         0.05600
| 30>    C       -4.10600        -2.75600        -0.02600
| 31>    C       -4.99500        -2.75700        -1.11100
| 32>    C       -6.13200        -3.54200        -1.07600
| 33>    C       -7.65100        -5.11300         0.04000
| 34>    C       -4.32400         0.14100         0.03700
| 35>    C       -3.02500        -0.52000        -0.04800
| 36>    C       -4.42200        -3.56600         1.07500
| 37>    N       -6.40700        -4.31300         0.00100
| 38>    C       -2.86700        -1.92200        -0.04000
| 39>    C       -1.65000        -2.62400        -0.02700
| 40>    C        3.56800        -6.14200        -1.04000
| 41>    C       -1.47600        -4.04900        -0.03400
| 42>    C        2.80300        -4.09900        -0.00800
| 43>    C        3.65700        -4.38400         1.06900
| 44>    C        4.42700        -5.53000         1.05900
| 45>    C        5.24500        -7.58800         0.01400
| 46>    C       -0.13400        -4.31500        -0.02200
| 47>    C        0.56800        -3.06400        -0.02700
| 48>    C        2.77500        -5.01200        -1.07400
| 49>    N        4.37600        -6.39100         0.01700
| 50>    C        1.95900        -2.86900        -0.00900
| 51>    C        2.62100        -1.62200         0.00900
| 52>    C        5.54300         4.33900        -1.13000
| 53>    C        4.07000        -1.47900        -0.09400
| 54>    C        4.10400         2.75100        -0.02100
| 55>    C        5.02700         2.72900         1.03600
| 56>    C        6.16600         3.50900         0.97800
| 57>    C        7.61900         5.15300        -0.11500
| 58>    C        4.32100        -0.14800        -0.09200
| 59>    C        3.02500         0.51400         0.01500
| 60>    C        4.38700         3.58200        -1.11500
| 61>    C        2.86600         1.91600         0.01300
| 62>    N        6.41300         4.29600        -0.09500
| 63>    H       -3.14600         7.18200        -1.36200
| 64>    H        2.27400         4.76600         0.08100
| 65>    H       -4.15700         3.39300         1.59300
| 66>    H       -5.51300         5.48000         1.59000
| 67>    H       -6.07500         7.42900        -0.54500
| 68>    H       -5.58700         7.75600         1.14500
| 69>    H       -4.64300         8.44500        -0.20500
| 70>    H       -0.33200         5.28200         0.06900
| 71>    H       -1.69600         5.16400        -1.48300
| 72>    H        0.18200         1.07200         0.00500
| 73>    H       -0.18300        -1.08000        -0.02100
| 74>    H       -5.86400        -4.96200         1.89500
| 75>    H       -4.79400         2.27200         0.13900
| 76>    H       -4.80000        -2.16000        -1.99400
| 77>    H       -6.84100        -3.58200        -1.89300
| 78>    H       -8.42800        -4.53600         0.54600
| 79>    H       -7.95600        -5.33700        -0.98100
| 80>    H       -7.45600        -6.03700         0.58400
| 81>    H       -5.28700        -0.34400         0.10000
| 82>    H       -3.78000        -3.60100         1.94700
| 83>    H        3.58700        -6.86800        -1.84300
| 84>    H       -2.27600        -4.77400        -0.05000
| 85>    H        3.71400        -3.72400         1.92600
| 86>    H        5.09200        -5.79500         1.87100
| 87>    H        6.20500        -7.32900        -0.43900
| 88>    H        5.39300        -7.91700         1.04200
| 89>    H        4.75900        -8.37300        -0.56400
| 90>    H        0.32900        -5.29000        -0.00800
| 91>    H        2.14600        -4.84200        -1.94000
| 92>    H        5.80800         4.98600        -1.95600
| 93>    H        4.78800        -2.28100        -0.18500
| 94>    H        4.86000         2.11400         1.91200
| 95>    H        6.90100         3.53100         1.77200
| 96>    H        7.38300         6.10900         0.35600
| 97>    H        8.41400         4.65200         0.43500
| 98>    H        7.92100         5.31000        -1.15000
| 99>    H        5.28300         0.33600        -0.17900
|100>    H        3.72000         3.63200        -1.96700
|101> *
|102>
|103>                          ****END OF INPUT****

CARTESIAN COORDINATES (ANGSTROEM)
---------------------------------
  C     -3.324000    6.313000   -0.740000
  C      1.474000    4.041000    0.057000
  C     -2.802000    4.093000    0.049000
  C     -3.893000    4.203000    0.925000
  C     -4.658000    5.352000    0.939000
  C     -5.230000    7.590000    0.129000
  C      0.132000    4.307000    0.061000
  C     -0.569000    3.056000    0.047000
  C      1.649000    2.618000    0.023000
  C     -2.533000    5.182000   -0.794000
  N     -4.368000    6.388000    0.117000
  N      0.388000    2.067000    0.025000
  N     -2.010000    0.395000   -0.075000
  N     -0.388000   -2.074000   -0.027000
  N      2.010000   -0.401000    0.065000
  C     -1.960000    2.861000    0.024000
  C     -2.623000    1.615000   -0.018000
  C     -5.573000   -4.329000    1.066000
  C     -4.073000    1.471000    0.056000
  C     -4.106000   -2.756000   -0.026000
  C     -4.995000   -2.757000   -1.111000
  C     -6.132000   -3.542000   -1.076000
  C     -7.651000   -5.113000    0.040000
  C     -4.324000    0.141000    0.037000
  C     -3.025000   -0.520000   -0.048000
  C     -4.422000   -3.566000    1.075000
  N     -6.407000   -4.313000    0.001000
  C     -2.867000   -1.922000   -0.040000
  C     -1.650000   -2.624000   -0.027000
  C      3.568000   -6.142000   -1.040000
  C     -1.476000   -4.049000   -0.034000
  C      2.803000   -4.099000   -0.008000
  C      3.657000   -4.384000    1.069000
  C      4.427000   -5.530000    1.059000
  C      5.245000   -7.588000    0.014000
  C     -0.134000   -4.315000   -0.022000
  C      0.568000   -3.064000   -0.027000
  C      2.775000   -5.012000   -1.074000
  N      4.376000   -6.391000    0.017000
  C      1.959000   -2.869000   -0.009000
  C      2.621000   -1.622000    0.009000
  C      5.543000    4.339000   -1.130000
  C      4.070000   -1.479000   -0.094000
  C      4.104000    2.751000   -0.021000
  C      5.027000    2.729000    1.036000
  C      6.166000    3.509000    0.978000
  C      7.619000    5.153000   -0.115000
  C      4.321000   -0.148000   -0.092000
  C      3.025000    0.514000    0.015000
  C      4.387000    3.582000   -1.115000
  C      2.866000    1.916000    0.013000
  N      6.413000    4.296000   -0.095000
  H     -3.146000    7.182000   -1.362000
  H      2.274000    4.766000    0.081000
  H     -4.157000    3.393000    1.593000
  H     -5.513000    5.480000    1.590000
  H     -6.075000    7.429000   -0.545000
  H     -5.587000    7.756000    1.145000
  H     -4.643000    8.445000   -0.205000
  H     -0.332000    5.282000    0.069000
  H     -1.696000    5.164000   -1.483000
  H      0.182000    1.072000    0.005000
  H     -0.183000   -1.080000   -0.021000
  H     -5.864000   -4.962000    1.895000
  H     -4.794000    2.272000    0.139000
  H     -4.800000   -2.160000   -1.994000
  H     -6.841000   -3.582000   -1.893000
  H     -8.428000   -4.536000    0.546000
  H     -7.956000   -5.337000   -0.981000
  H     -7.456000   -6.037000    0.584000
  H     -5.287000   -0.344000    0.100000
  H     -3.780000   -3.601000    1.947000
  H      3.587000   -6.868000   -1.843000
  H     -2.276000   -4.774000   -0.050000
  H      3.714000   -3.724000    1.926000
  H      5.092000   -5.795000    1.871000
  H      6.205000   -7.329000   -0.439000
  H      5.393000   -7.917000    1.042000
  H      4.759000   -8.373000   -0.564000
  H      0.329000   -5.290000   -0.008000
  H      2.146000   -4.842000   -1.940000
  H      5.808000    4.986000   -1.956000
  H      4.788000   -2.281000   -0.185000
  H      4.860000    2.114000    1.912000
  H      6.901000    3.531000    1.772000
  H      7.383000    6.109000    0.356000
  H      8.414000    4.652000    0.435000
  H      7.921000    5.310000   -1.150000
  H      5.283000    0.336000   -0.179000
  H      3.720000    3.632000   -1.967000

 Total Charge           Charge          ....    0
 Multiplicity           Mult            ....    1
 Number of Electrons    NEL             ....  358
 Basis Dimension        Dim             ....  918

ORBITAL ENERGIES
----------------

  NO   OCC          E(Eh)            E(eV)
   0   2.0000     -15.657049      -426.0500
   1   2.0000     -15.636659      -425.4951
   2   2.0000     -15.630261      -425.3210
   3   2.0000     -15.605486      -424.6469
   4   2.0000     -15.522072      -422.3771
   5   2.0000     -15.516416      -422.2231
   6   2.0000     -15.448707      -420.3807
   7   2.0000     -15.442905      -420.2228
   8   2.0000     -11.313857      -307.8657
   9   2.0000     -11.310749      -307.7811
  10   2.0000     -11.308846      -307.7294
  11   2.0000     -11.300957      -307.5147
  12   2.0000     -11.297178      -307.4119
  13   2.0000     -11.293932      -307.3235
  14   2.0000     -11.290186      -307.2216
  15   2.0000     -11.288399      -307.1730
  16   2.0000     -11.286179      -307.1126
  17   2.0000     -11.282429      -307.0105
  18   2.0000     -11.268845      -306.6409
  19   2.0000     -11.267279      -306.5983
  20   2.0000     -11.260614      -306.4169
  21   2.0000     -11.247281      -306.0541
  22   2.0000     -11.246370      -306.0293
  23   2.0000     -11.240116      -305.8591
  24   2.0000     -11.234863      -305.7162
  25   2.0000     -11.232944      -305.6639
  26   2.0000     -11.232151      -305.6424
  27   2.0000     -11.228316      -305.5380
  28   2.0000     -11.228188      -305.5345
  29   2.0000     -11.214443      -305.1605
  30   2.0000     -11.209382      -305.0228
  31   2.0000     -11.208322      -304.9939
  32   2.0000     -11.205160      -304.9079
  33   2.0000     -11.204429      -304.8880
  34   2.0000     -11.192183      -304.5548
  35   2.0000     -11.191577      -304.5383
  36   2.0000     -11.180975      -304.2498
  37   2.0000     -11.179299      -304.2042
  38   2.0000     -11.178756      -304.1894
  39   2.0000     -11.172255      -304.0125
  40   2.0000     -11.168980      -303.9234
  41   2.0000     -11.166084      -303.8446
  42   2.0000     -11.165809      -303.8371
  43   2.0000     -11.164331      -303.7969
  44   2.0000     -11.163191      -303.7659
  45   2.0000     -11.162528      -303.7478
  46   2.0000     -11.151852      -303.4573
  47   2.0000     -11.150787      -303.4283
  48   2.0000     -11.148651      -303.3702
  49   2.0000     -11.146588      -303.3141
  50   2.0000     -11.137734      -303.0732
  51   2.0000     -11.132398      -302.9279
  52   2.0000      -1.341009       -36.4907
  53   2.0000      -1.323499       -36.0142
  54   2.0000      -1.318105       -35.8675
  55   2.0000      -1.297583       -35.3090
  56   2.0000      -1.221571       -33.2406
  57   2.0000      -1.211840       -32.9758
  58   2.0000      -1.166375       -31.7387
  59   2.0000      -1.155261       -31.4363
  60   2.0000      -1.127255       -30.6742
  61   2.0000      -1.111927       -30.2571
  62   2.0000      -1.107455       -30.1354
  63   2.0000      -1.091170       -29.6922
  64   2.0000      -1.064056       -28.9544
  65   2.0000      -1.047502       -28.5040
  66   2.0000      -1.042769       -28.3752
  67   2.0000      -1.031101       -28.0577
  68   2.0000      -1.024638       -27.8818
  69   2.0000      -1.012460       -27.5504
  70   2.0000      -1.009798       -27.4780
  71   2.0000      -0.994177       -27.0529
  72   2.0000      -0.985872       -26.8269
  73   2.0000      -0.974957       -26.5299
  74   2.0000      -0.973170       -26.4813
  75   2.0000      -0.959517       -26.1098
  76   2.0000      -0.950861       -25.8743
  77   2.0000      -0.947812       -25.7913
  78   2.0000      -0.937545       -25.5119
  79   2.0000      -0.922418       -25.1003
  80   2.0000      -0.897014       -24.4090
  81   2.0000      -0.887831       -24.1591
  82   2.0000      -0.874815       -23.8049
  83   2.0000      -0.870220       -23.6799
  84   2.0000      -0.863451       -23.4957
  85   2.0000      -0.855658       -23.2836
  86   2.0000      -0.847660       -23.0660
  87   2.0000      -0.839693       -22.8492
  88   2.0000      -0.822316       -22.3764
  89   2.0000      -0.798749       -21.7351
  90   2.0000      -0.796161       -21.6647
  91   2.0000      -0.742315       -20.1994
  92   2.0000      -0.735643       -20.0179
  93   2.0000      -0.730609       -19.8809
  94   2.0000      -0.721931       -19.6447
  95   2.0000      -0.720688       -19.6109
  96   2.0000      -0.713245       -19.4084
  97   2.0000      -0.706453       -19.2236
  98   2.0000      -0.701293       -19.0832
  99   2.0000      -0.694944       -18.9104
 100   2.0000      -0.691450       -18.8153
 101   2.0000      -0.681457       -18.5434
 102   2.0000      -0.678650       -18.4670
 103   2.0000      -0.674996       -18.3676
 104   2.0000      -0.671259       -18.2659
 105   2.0000      -0.669439       -18.2164
 106   2.0000      -0.663590       -18.0572
 107   2.0000      -0.662102       -18.0167
 108   2.0000      -0.655818       -17.8457
 109   2.0000      -0.654852       -17.8194
 110   2.0000      -0.651775       -17.7357
 111   2.0000      -0.648712       -17.6524
 112   2.0000      -0.644553       -17.5392
 113   2.0000      -0.637522       -17.3479
 114   2.0000      -0.633655       -17.2426
 115   2.0000      -0.629556       -17.1311
 116   2.0000      -0.624725       -16.9996
 117   2.0000      -0.614652       -16.7255
 118   2.0000      -0.613927       -16.7058
 119   2.0000      -0.610510       -16.6128
 120   2.0000      -0.609905       -16.5963
 121   2.0000      -0.602530       -16.3957
 122   2.0000      -0.596790       -16.2395
 123   2.0000      -0.591999       -16.1091
 124   2.0000      -0.589670       -16.0457
 125   2.0000      -0.583212       -15.8700
 126   2.0000      -0.579506       -15.7692
 127   2.0000      -0.575385       -15.6570
 128   2.0000      -0.564773       -15.3683
 129   2.0000      -0.558970       -15.2103
 130   2.0000      -0.554262       -15.0822
 131   2.0000      -0.549284       -14.9468
 132   2.0000      -0.541015       -14.7218
 133   2.0000      -0.537113       -14.6156
 134   2.0000      -0.535004       -14.5582
 135   2.0000      -0.531057       -14.4508
 136   2.0000      -0.526161       -14.3176
 137   2.0000      -0.523702       -14.2507
 138   2.0000      -0.518551       -14.1105
 139   2.0000      -0.516242       -14.0477
 140   2.0000      -0.511054       -13.9065
 141   2.0000      -0.508178       -13.8282
 142   2.0000      -0.507068       -13.7980
 143   2.0000      -0.501571       -13.6484
 144   2.0000      -0.501041       -13.6340
 145   2.0000      -0.498243       -13.5579
 146   2.0000      -0.494435       -13.4542
 147   2.0000      -0.488512       -13.2931
 148   2.0000      -0.488368       -13.2892
 149   2.0000      -0.469278       -12.7697
 150   2.0000      -0.462719       -12.5912
 151   2.0000      -0.454768       -12.3749
 152   2.0000      -0.447928       -12.1887
 153   2.0000      -0.447009       -12.1637
 154   2.0000      -0.446202       -12.1418
 155   2.0000      -0.440469       -11.9858
 156   2.0000      -0.433889       -11.8067
 157   2.0000      -0.428754       -11.6670
 158   2.0000      -0.396987       -10.8026
 159   2.0000      -0.386473       -10.5165
 160   2.0000      -0.378253       -10.2928
 161   2.0000      -0.372304       -10.1309
 162   2.0000      -0.370872       -10.0919
 163   2.0000      -0.358257        -9.7487
 164   2.0000      -0.354416        -9.6441
 165   2.0000      -0.337410        -9.1814
 166   2.0000      -0.336933        -9.1684
 167   2.0000      -0.336033        -9.1439
 168   2.0000      -0.328175        -8.9301
 169   2.0000      -0.300356        -8.1731
 170   2.0000      -0.299434        -8.1480
 171   2.0000      -0.287893        -7.8340
 172   2.0000      -0.285900        -7.7797
 173   2.0000      -0.258771        -7.0415
 174   2.0000      -0.246572        -6.7096
 175   2.0000      -0.189098        -5.1456
 176   2.0000      -0.179210        -4.8765
 177   2.0000      -0.070233        -1.9111
 178   2.0000      -0.056189        -1.5290
 179   0.0000       0.029662         0.8071
 180   0.0000       0.069157         1.8819
 181   0.0000       0.092420         2.5149
 182   0.0000       0.102165         2.7800
 183   0.0000       0.121555         3.3077

MULLIKEN ATOMIC CHARGES
-----------------------
   0 C :    0.206173
   1 N :   -0.450366
   2 C :   -0.062667
   3 N :   -0.336053
   4 C :   -0.052360
   5 N :   -0.562803
   6 C :   -0.091599
   7 N :   -0.339008
   8 C :    0.204967
   9 N :   -0.562757
  10 C :    0.117400
  11 N :   -0.437834
  12 C :   -0.080146
  13 N :   -0.434815
  14 C :    0.243962
  15 N :   -0.440883
  16 C :    0.229080
  17 C :   -0.098883
  18 C :   -0.213401
  19 C :    0.238037
  20 C :    0.210960
  21 C :   -0.093896
  22 C :   -0.089388
  23 C :   -0.043851
  24 C :    0.199389
  25 C :    0.114206
  26 C :   -0.073078
  27 C :    0.216171
  28 C :   -0.057332
  29 C :   -0.182030
  30 C :    0.240913
  31 C :    0.220427
  32 C :   -0.063695
  33 C :   -0.071119
  34 C :   -0.050579
  35 C :    0.216031
  36 C :    0.111230
  37 C :   -0.065636
  38 C :    0.234066
  39 C :   -0.059495
  40 C :   -0.185312
  41 C :    0.223664
  42 C :    0.200137
  43 C :   -0.072785
  44 C :   -0.089373
  45 C :   -0.057009
  46 C :    0.207597
  47 C :    0.115479
  48 C :   -0.070546
  49 C :    0.232656
  50 C :   -0.049607
  51 C :   -0.189825
  52 H :    0.045943
  53 H :   -0.015210
  54 H :    0.051108
  55 H :    0.044987
  56 H :    0.053241
  57 H :    0.051687
  58 H :    0.050652
  59 H :   -0.003882
  60 H :    0.046751
  61 H :    0.171933
  62 H :    0.174134
  63 H :    0.055983
  64 H :   -0.011348
  65 H :    0.047474
  66 H :    0.056836
  67 H :    0.062580
  68 H :    0.057819
  69 H :    0.057616
  70 H :   -0.026783
  71 H :    0.046212
  72 H :    0.063806
  73 H :   -0.011031
  74 H :    0.053449
  75 H :    0.063017
  76 H :    0.068333
  77 H :    0.062989
  78 H :    0.062253
  79 H :   -0.015199
  80 H :    0.054120
  81 H :    0.053757
  82 H :   -0.024003
  83 H :    0.042622
  84 H :    0.053795
  85 H :    0.060042
  86 H :    0.055955
  87 H :    0.056863
  88 H :   -0.017903
  89 H :    0.044990
Sum of atomic charges:    0.0000000

LOEWDIN ATOMIC CHARGES
----------------------
   0 C :   -0.014964
   1 N :    0.123337
   2 C :   -0.100585
   3 N :    0.181696
   4 C :    0.011007
   5 N :   -0.134884
   6 C :   -0.030697
   7 N :    0.176815
   8 C :   -0.015842
   9 N :   -0.139877
  10 C :    0.025669
  11 N :    0.143423
  12 C :   -0.106255
  13 N :    0.153713
  14 C :   -0.036568
  15 N :    0.138646
  16 C :   -0.053929
  17 C :   -0.035778
  18 C :   -0.104094
  19 C :   -0.084774
  20 C :    0.002785
  21 C :   -0.112221
  22 C :    0.039393
  23 C :   -0.016988
  24 C :   -0.007092
  25 C :    0.030144
  26 C :   -0.104617
  27 C :   -0.106542
  28 C :   -0.024503
  29 C :   -0.103563
  30 C :   -0.037597
  31 C :    0.012753
  32 C :   -0.097118
  33 C :    0.060714
  34 C :   -0.017435
  35 C :    0.009105
  36 C :    0.032419
  37 C :   -0.097825
  38 C :   -0.046980
  39 C :   -0.021373
  40 C :   -0.108480
  41 C :   -0.092205
  42 C :   -0.008238
  43 C :   -0.101698
  44 C :    0.033443
  45 C :   -0.025232
  46 C :   -0.001574
  47 C :    0.029398
  48 C :   -0.099266
  49 C :   -0.079328
  50 C :   -0.021156
  51 C :   -0.108307
  52 H :    0.026083
  53 H :    0.003753
  54 H :    0.042730
  55 H :    0.025929
  56 H :    0.023629
  57 H :    0.028162
  58 H :    0.028522
  59 H :    0.007046
  60 H :    0.040794
  61 H :    0.060281
  62 H :    0.061171
  63 H :    0.030916
  64 H :    0.002144
  65 H :    0.045803
  66 H :    0.029965
  67 H :    0.028351
  68 H :    0.031890
  69 H :    0.030837
  70 H :   -0.003114
  71 H :    0.044303
  72 H :    0.034191
  73 H :    0.005654
  74 H :    0.047758
  75 H :    0.033649
  76 H :    0.031384
  77 H :    0.033827
  78 H :    0.033505
  79 H :    0.003660
  80 H :    0.047588
  81 H :    0.028920
  82 H :   -0.002227
  83 H :    0.043054
  84 H :    0.029568
  85 H :    0.026997
  86 H :    0.030335
  87 H :    0.031237
  88 H :    0.000754
  89 H :    0.044075

  Mayer bond orders larger than 0.100000
B(  0-C ,  1-N ) :   1.1000 B(  0-C , 17-C ) :   1.6742 B(  0-C , 52-H ) :   0.9690
B(  1-N ,  8-C ) :   1.0950 B(  1-N , 10-C ) :   0.9718 B(  2-C , 12-C ) :   1.5225
B(  2-C , 16-C ) :   1.3410 B(  2-C , 53-H ) :   0.9768 B(  3-N , 14-C ) :   1.2126
B(  3-N , 16-C ) :   1.1933 B(  3-N , 61-H ) :   0.8988 B(  4-C ,  6-C ) :   1.2302
B(  4-C , 17-C ) :   1.2327 B(  4-C , 18-C ) :   1.3667 B(  5-N , 19-C ) :   1.4388
B(  5-N , 27-C ) :   1.3897 B(  6-C ,  8-C ) :   1.6790 B(  6-C , 54-H ) :   0.9669
B(  7-N , 30-C ) :   1.1952 B(  7-N , 38-C ) :   1.1959 B(  7-N , 62-H ) :   0.8976
B(  8-C , 55-H ) :   0.9691 B(  9-N , 41-C ) :   1.4008 B(  9-N , 49-C ) :   1.4207
B( 10-C , 56-H ) :   0.9765 B( 10-C , 57-H ) :   0.9820 B( 10-C , 58-H ) :   0.9840
B( 11-N , 20-C ) :   1.1283 B( 11-N , 24-C ) :   1.1145 B( 11-N , 25-C ) :   0.9591
B( 12-C , 14-C ) :   1.3425 B( 12-C , 59-H ) :   0.9747 B( 13-N , 31-C ) :   1.1420
B( 13-N , 35-C ) :   1.1375 B( 13-N , 36-C ) :   0.9507 B( 14-C , 18-C ) :   1.1587
B( 15-N , 42-C ) :   1.1114 B( 15-N , 46-C ) :   1.1192 B( 15-N , 47-C ) :   0.9618
B( 16-C , 51-C ) :   1.1838 B( 17-C , 60-H ) :   0.9682 B( 18-C , 19-C ) :   1.1691
B( 19-C , 21-C ) :   1.2278 B( 20-C , 28-C ) :   1.6257 B( 20-C , 63-H ) :   0.9703
B( 21-C , 26-C ) :   1.6287 B( 21-C , 64-H ) :   0.9699 B( 22-C , 23-C ) :   1.2875
B( 22-C , 28-C ) :   1.2692 B( 22-C , 29-C ) :   1.2245 B( 23-C , 24-C ) :   1.6186
B( 23-C , 65-H ) :   0.9706 B( 24-C , 66-H ) :   0.9693 B( 25-C , 67-H ) :   0.9761
B( 25-C , 68-H ) :   0.9829 B( 25-C , 69-H ) :   0.9822 B( 26-C , 27-C ) :   1.2250
B( 26-C , 70-H ) :   0.9722 B( 27-C , 29-C ) :   1.2239 B( 28-C , 71-H ) :   0.9717
B( 29-C , 30-C ) :   1.2255 B( 30-C , 32-C ) :   1.2978 B( 31-C , 39-C ) :   1.6098
B( 31-C , 72-H ) :   0.9689 B( 32-C , 37-C ) :   1.5607 B( 32-C , 73-H ) :   0.9782
B( 33-C , 34-C ) :   1.2910 B( 33-C , 39-C ) :   1.2855 B( 33-C , 40-C ) :   1.2129
B( 34-C , 35-C ) :   1.6068 B( 34-C , 74-H ) :   0.9701 B( 35-C , 75-H ) :   0.9689
B( 36-C , 76-H ) :   0.9765 B( 36-C , 77-H ) :   0.9818 B( 36-C , 78-H ) :   0.9827
B( 37-C , 38-C ) :   1.3009 B( 37-C , 79-H ) :   0.9771 B( 38-C , 40-C ) :   1.2192
B( 39-C , 80-H ) :   0.9710 B( 40-C , 41-C ) :   1.2354 B( 41-C , 43-C ) :   1.1986
B( 42-C , 50-C ) :   1.6332 B( 42-C , 81-H ) :   0.9697 B( 43-C , 48-C ) :   1.6535
B( 43-C , 82-H ) :   0.9730 B( 44-C , 45-C ) :   1.2670 B( 44-C , 50-C ) :   1.2698
B( 44-C , 51-C ) :   1.2576 B( 45-C , 46-C ) :   1.6338 B( 45-C , 83-H ) :   0.9715
B( 46-C , 84-H ) :   0.9701 B( 47-C , 85-H ) :   0.9761 B( 47-C , 86-H ) :   0.9829
B( 47-C , 87-H ) :   0.9825 B( 48-C , 49-C ) :   1.2004 B( 48-C , 88-H ) :   0.9744
B( 49-C , 51-C ) :   1.2316 B( 50-C , 89-H ) :   0.9712

MP2 TOTAL ENERGY:    -2130.910920875 Eh
FINAL SINGLE POINT ENERGY     -2130.910920874837

DIPOLE MOMENT
-------------
                                X             Y             Z
Electronic contribution:      1.33404      -2.52018      -0.12720
Nuclear contribution   :     -0.05008       0.15342       0.15674
                        -----------------------------------------
Total Dipole Moment    :      1.28396      -2.36676       0.02954
                        -----------------------------------------
Magnitude (a.u.)       :      2.69277
Magnitude (Debye)      :      6.84447

Rotational constants in cm-1:     0.001500     0.001475     0.000761
Rotational constants in MHz :    44.978729    44.224990    22.825296

                             ****ORCA TERMINATED NORMALLY****
TOTAL RUN TIME: 0 days 1 hours 24 minutes 14 seconds 713 msec
