                         Program Version 5.0.4 -  RELEASE  -
|  1> ! PAL2
|  2> ! mp2 cc-pvdz TightSCF  NoKeepInts
|  3>
|  4> %scf
|  5>   MaxCore 2000
|  6> end
|  7> %mp2
|  8>   MaxCore 2000
|  9> end
| 10> * xyz 0 1
| 11>    C       -4.91300         5.20400         0.41500
| 12>    C        1.47400         4.04100         0.05700
| 13>    C       -2.80200         4.09300         0.04900
| 14>    C       -2.26300         5.34200        -0.29700
| 15>    C       -3.05800         6.47100        -0.27300
| 16>    C       -5.17800         7.62600         0.12800
| 17>    C        0.13200         4.30700         0.06100
| 18>    C       -0.56900         3.05600         0.04700
| 19>    C        1.64900         2.61800         0.02300
| 20>    C       -4.15700         4.04800         0.41200
| 21>    N       -4.36300         6.39200         0.07600
| 22>    N        0.38800         2.06700         0.02500
| 23>    N       -2.01000         0.39500        -0.07500
| 24>    N       -0.38800        -2.07400        -0.02700
| 25>    N        2.01000        -0.40100         0.06500
| 26>    C       -1.96000         2.86100         0.02400
| 27>    C       -2.62300         1.61500        -0.01800
| 28>    C       -5.57300        -4.32900         1.06600
| 29>    C       -4.07300         1.47100         0.05600
| 30>    C       -4.10600        -2.75600        -0.02600
| 31>    C       -4.99500        -2.75700        -1.11100
| 32>    C       -6.13200        -3.54200        -1.07600
| 33>    C       -7.65100        -5.11300         0.04000
| 34>    C       -4.32400         0.14100         0.03700
| 35>    C       -3.02500        -0.52000        -0.04800
| 36>    C       -4.42200        -3.56600         1.07500
| 37>    N       -6.40700        -4.31300         0.00100
| 38>    C       -2.86700        -1.92200        -0.04000
| 39>    C       -1.65000        -2.62400        -0.02700
| 40>    C        3.56800        -6.14200        -1.04000
| 41>    C       -1.47600        -4.04900        -0.03400
| 42>    C        2.80300        -4.09900        -0.00800
| 43>    C        3.65700        -4.38400         1.06900
| 44>    C        4.42700        -5.53000         1.05900
| 45>    C        5.24500        -7.58800         0.01400
| 46>    C       -0.13400        -4.31500        -0.02200
| 47>    C        0.56800        -3.06400        -0.02700
| 48>    C        2.77500        -5.01200        -1.07400
| 49>    N        4.37600        -6.39100         0.01700
| 50>    C        1.95900        -2.86900        -0.00900
| 51>    C        2.62100        -1.62200         0.00900
| 52>    C        5.54300         4.33900        -1.13000
| 53>    C        4.07000        -1.47900        -0.09400
| 54>    C        4.10400         2.75100        -0.02100
| 55>    C        5.02700         2.72900         1.03600
| 56>    C        6.16600         3.50900         0.97800
| 57>    C        7.61900         5.15300        -0.11500
| 58>    C        4.32100        -0.14800        -0.09200
| 59>    C        3.02500         0.51400         0.01500
| 60>    C        4.38700         3.58200        -1.11500
| 61>    C        2.86600         1.91600         0.01300
| 62>    N        6.41300         4.29600        -0.09500
| 63>    H       -5.96400         5.21400         0.67500
| 64>    H        2.27400         4.76600         0.08100
| 65>    H       -1.22100         5.44300        -0.57600
| 66>    H       -2.68500         7.45600        -0.52200
| 67>    H       -5.05300         8.09400         1.10700
| 68>    H       -4.84100         8.30200        -0.65700
| 69>    H       -6.22400         7.36200        -0.03000
| 70>    H       -0.33200         5.28200         0.06900
| 71>    H       -4.63500         3.11100         0.67500
| 72>    H        0.18200         1.07200         0.00500
| 73>    H       -0.18300        -1.08000        -0.02100
| 74>    H       -5.86400        -4.96200         1.89500
| 75>    H       -4.79400         2.27200         0.13900
| 76>    H       -4.80000        -2.16000        -1.99400
| 77>    H       -6.84100        -3.58200        -1.89300
| 78>    H       -8.42800        -4.53600         0.54600
| 79>    H       -7.95600        -5.33700        -0.98100
| 80>    H       -7.45600        -6.03700         0.58400
| 81>    H       -5.28700        -0.34400         0.10000
| 82>    H       -3.78000        -3.60100         1.94700
| 83>    H        3.58700        -6.86800        -1.84300
| 84>    H       -2.27600        -4.77400        -0.05000
| 85>    H        3.71400        -3.72400         1.92600
| 86>    H        5.09200        -5.79500         1.87100
| 87>    H        6.20500        -7.32900        -0.43900
| 88>    H        5.39300        -7.91700         1.04200
| 89>    H        4.75900        -8.37300        -0.56400
| 90>    H        0.32900        -5.29000        -0.00800
| 91>    H        2.14600        -4.84200        -1.94000
| 92>    H        5.80800         4.98600        -1.95600
| 93>    H        4.78800        -2.28100        -0.18500
| 94>    H        4.86000         2.11400         1.91200
| 95>    H        6.90100         3.53100         1.77200
| 96>    H        7.38300         6.10900         0.35600
| 97>    H        8.41400         4.65200         0.43500
| 98>    H        7.92100         5.31000        -1.15000
| 99>    H        5.28300         0.33600        -0.17900
|100>    H        3.72000         3.63200        -1.96700
|101> *
|102>
|103>                          ****END OF INPUT****

CARTESIAN COORDINATES (ANGSTROEM)
---------------------------------
  C     -4.913000    5.204000    0.415000
  C      1.474000    4.041000    0.057000
  C     -2.802000    4.093000    0.049000
  C     -2.263000    5.342000   -0.297000
  C     -3.058000    6.471000   -0.273000
  C     -5.178000    7.626000    0.128000
  C      0.132000    4.307000    0.061000
  C     -0.569000    3.056000    0.047000
  C      1.649000    2.618000    0.023000
  C     -4.157000    4.048000    0.412000
  N     -4.363000    6.392000    0.076000
  N      0.388000    2.067000    0.025000
  N     -2.010000    0.395000   -0.075000
  N     -0.388000   -2.074000   -0.027000
  N      2.010000   -0.401000    0.065000
  C     -1.960000    2.861000    0.024000
  C     -2.623000    1.615000   -0.018000
  C     -5.573000   -4.329000    1.066000
  C     -4.073000    1.471000    0.056000
  C     -4.106000   -2.756000   -0.026000
  C     -4.995000   -2.757000   -1.111000
  C     -6.132000   -3.542000   -1.076000
  C     -7.651000   -5.113000    0.040000
  C     -4.324000    0.141000    0.037000
  C     -3.025000   -0.520000   -0.048000
  C     -4.422000   -3.566000    1.075000
  N     -6.407000   -4.313000    0.001000
  C     -2.867000   -1.922000   -0.040000
  C     -1.650000   -2.624000   -0.027000
  C      3.568000   -6.142000   -1.040000
  C     -1.476000   -4.049000   -0.034000
  C      2.803000   -4.099000   -0.008000
  C      3.657000   -4.384000    1.069000
  C      4.427000   -5.530000    1.059000
  C      5.245000   -7.588000    0.014000
  C     -0.134000   -4.315000   -0.022000
  C      0.568000   -3.064000   -0.027000
  C      2.775000   -5.012000   -1.074000
  N      4.376000   -6.391000    0.017000
  C      1.959000   -2.869000   -0.009000
  C      2.621000   -1.622000    0.009000
  C      5.543000    4.339000   -1.130000
  C      4.070000   -1.479000   -0.094000
  C      4.104000    2.751000   -0.021000
  C      5.027000    2.729000    1.036000
  C      6.166000    3.509000    0.978000
  C      7.619000    5.153000   -0.115000
  C      4.321000   -0.148000   -0.092000
  C      3.025000    0.514000    0.015000
  C      4.387000    3.582000   -1.115000
  C      2.866000    1.916000    0.013000
  N      6.413000    4.296000   -0.095000
  H     -5.964000    5.214000    0.675000
  H      2.274000    4.766000    0.081000
  H     -1.221000    5.443000   -0.576000
  H     -2.685000    7.456000   -0.522000
  H     -5.053000    8.094000    1.107000
  H     -4.841000    8.302000   -0.657000
  H     -6.224000    7.362000   -0.030000
  H     -0.332000    5.282000    0.069000
  H     -4.635000    3.111000    0.675000
  H      0.182000    1.072000    0.005000
  H     -0.183000   -1.080000   -0.021000
  H     -5.864000   -4.962000    1.895000
  H     -4.794000    2.272000    0.139000
  H     -4.800000   -2.160000   -1.994000
  H     -6.841000   -3.582000   -1.893000
  H     -8.428000   -4.536000    0.546000
  H     -7.956000   -5.337000   -0.981000
  H     -7.456000   -6.037000    0.584000
  H     -5.287000   -0.344000    0.100000
  H     -3.780000   -3.601000    1.947000
  H      3.587000   -6.868000   -1.843000
  H     -2.276000   -4.774000   -0.050000
  H      3.714000   -3.724000    1.926000
  H      5.092000   -5.795000    1.871000
  H      6.205000   -7.329000   -0.439000
  H      5.393000   -7.917000    1.042000
  H      4.759000   -8.373000   -0.564000
  H      0.329000   -5.290000   -0.008000
  H      2.146000   -4.842000   -1.940000
  H      5.808000    4.986000   -1.956000
  H      4.788000   -2.281000   -0.185000
  H      4.860000    2.114000    1.912000
  H      6.901000    3.531000    1.772000
  H      7.383000    6.109000    0.356000
  H      8.414000    4.652000    0.435000
  H      7.921000    5.310000   -1.150000
  H      5.283000    0.336000   -0.179000
  H      3.720000    3.632000   -1.967000

 Total Charge           Charge          ....    0
 Multiplicity           Mult            ....    1
 Number of Electrons    NEL             ....  358
 Basis Dimension        Dim             ....  918

ORBITAL ENERGIES
----------------

  NO   OCC          E(Eh)            E(eV)
   0   2.0000     -15.678685      -426.6387
   1   2.0000     -15.633719      -425.4151
   2   2.0000     -15.631923      -425.3663
   3   2.0000     -15.588821      -424.1934
   4   2.0000     -15.524996      -422.4566
   5   2.0000     -15.515770      -422.2056
   6   2.0000     -15.453678      -420.5159
   7   2.0000     -15.439877      -420.1404
   8   2.0000     -11.328498      -308.2641
   9   2.0000     -11.327436      -308.2352
  10   2.0000     -11.327246      -308.2300
  11   2.0000     -11.299161      -307.4658
  12   2.0000     -11.298420      -307.4456
  13   2.0000     -11.292748      -307.2913
  14   2.0000     -11.291206      -307.2493
  15   2.0000     -11.286717      -307.1272
  16   2.0000     -11.286355      -307.1173
  17   2.0000     -11.281007      -306.9718
  18   2.0000     -11.270711      -306.6916
  19   2.0000     -11.262600      -306.4709
  20   2.0000     -11.261610      -306.4440
  21   2.0000     -11.252172      -306.1872
  22   2.0000     -11.250968      -306.1544
  23   2.0000     -11.237465      -305.7870
  24   2.0000     -11.236696      -305.7660
  25   2.0000     -11.230954      -305.6098
  26   2.0000     -11.230168      -305.5884
  27   2.0000     -11.229819      -305.5789
  28   2.0000     -11.229678      -305.5751
  29   2.0000     -11.210742      -305.0598
  30   2.0000     -11.209400      -305.0233
  31   2.0000     -11.195439      -304.6434
  32   2.0000     -11.191056      -304.5241
  33   2.0000     -11.191048      -304.5239
  34   2.0000     -11.188475      -304.4539
  35   2.0000     -11.188109      -304.4439
  36   2.0000     -11.186767      -304.4074
  37   2.0000     -11.181136      -304.2542
  38   2.0000     -11.176782      -304.1357
  39   2.0000     -11.174284      -304.0677
  40   2.0000     -11.172021      -304.0062
  41   2.0000     -11.170774      -303.9722
  42   2.0000     -11.168068      -303.8986
  43   2.0000     -11.161535      -303.7208
  44   2.0000     -11.160321      -303.6878
  45   2.0000     -11.156903      -303.5948
  46   2.0000     -11.156412      -303.5814
  47   2.0000     -11.153699      -303.5076
  48   2.0000     -11.147120      -303.3286
  49   2.0000     -11.135861      -303.0222
  50   2.0000     -11.129771      -302.8565
  51   2.0000     -11.117637      -302.5263
  52   2.0000      -1.359440       -36.9922
  53   2.0000      -1.320996       -35.9461
  54   2.0000      -1.319698       -35.9108
  55   2.0000      -1.281772       -34.8788
  56   2.0000      -1.225975       -33.3605
  57   2.0000      -1.210382       -32.9362
  58   2.0000      -1.173223       -31.9250
  59   2.0000      -1.150736       -31.3131
  60   2.0000      -1.142877       -31.0993
  61   2.0000      -1.110195       -30.2099
  62   2.0000      -1.108884       -30.1743
  63   2.0000      -1.081202       -29.4210
  64   2.0000      -1.078057       -29.3354
  65   2.0000      -1.045182       -28.4409
  66   2.0000      -1.044360       -28.4185
  67   2.0000      -1.040607       -28.3164
  68   2.0000      -1.014849       -27.6155
  69   2.0000      -1.013227       -27.5713
  70   2.0000      -1.009165       -27.4608
  71   2.0000      -0.993346       -27.0303
  72   2.0000      -0.985918       -26.8282
  73   2.0000      -0.981360       -26.7042
  74   2.0000      -0.972811       -26.4715
  75   2.0000      -0.961895       -26.1745
  76   2.0000      -0.954392       -25.9703
  77   2.0000      -0.945897       -25.7392
  78   2.0000      -0.936537       -25.4845
  79   2.0000      -0.917553       -24.9679
  80   2.0000      -0.909721       -24.7548
  81   2.0000      -0.896158       -24.3857
  82   2.0000      -0.876115       -23.8403
  83   2.0000      -0.872016       -23.7288
  84   2.0000      -0.870383       -23.6843
  85   2.0000      -0.859040       -23.3757
  86   2.0000      -0.842522       -22.9262
  87   2.0000      -0.835871       -22.7452
  88   2.0000      -0.826637       -22.4939
  89   2.0000      -0.796899       -21.6847
  90   2.0000      -0.789642       -21.4872
  91   2.0000      -0.758303       -20.6345
  92   2.0000      -0.751842       -20.4587
  93   2.0000      -0.733445       -19.9581
  94   2.0000      -0.726388       -19.7660
  95   2.0000      -0.723113       -19.6769
  96   2.0000      -0.718248       -19.5445
  97   2.0000      -0.715794       -19.4777
  98   2.0000      -0.711476       -19.3602
  99   2.0000      -0.697953       -18.9923
 100   2.0000      -0.696885       -18.9632
 101   2.0000      -0.690657       -18.7937
 102   2.0000      -0.684701       -18.6317
 103   2.0000      -0.683592       -18.6015
 104   2.0000      -0.678611       -18.4659
 105   2.0000      -0.674255       -18.3474
 106   2.0000      -0.671984       -18.2856
 107   2.0000      -0.660458       -17.9720
 108   2.0000      -0.657866       -17.9014
 109   2.0000      -0.652824       -17.7642
 110   2.0000      -0.651864       -17.7381
 111   2.0000      -0.645384       -17.5618
 112   2.0000      -0.644940       -17.5497
 113   2.0000      -0.637654       -17.3515
 114   2.0000      -0.637052       -17.3351
 115   2.0000      -0.628153       -17.0929
 116   2.0000      -0.622431       -16.9372
 117   2.0000      -0.621679       -16.9167
 118   2.0000      -0.612991       -16.6803
 119   2.0000      -0.612136       -16.6571
 120   2.0000      -0.611584       -16.6421
 121   2.0000      -0.610600       -16.6153
 122   2.0000      -0.601030       -16.3549
 123   2.0000      -0.587645       -15.9906
 124   2.0000      -0.581493       -15.8232
 125   2.0000      -0.580783       -15.8039
 126   2.0000      -0.579986       -15.7822
 127   2.0000      -0.571104       -15.5405
 128   2.0000      -0.568569       -15.4716
 129   2.0000      -0.559711       -15.2305
 130   2.0000      -0.553457       -15.0603
 131   2.0000      -0.547689       -14.9034
 132   2.0000      -0.542461       -14.7611
 133   2.0000      -0.541432       -14.7331
 134   2.0000      -0.538521       -14.6539
 135   2.0000      -0.536058       -14.5869
 136   2.0000      -0.530869       -14.4457
 137   2.0000      -0.519920       -14.1478
 138   2.0000      -0.516829       -14.0636
 139   2.0000      -0.514762       -14.0074
 140   2.0000      -0.512140       -13.9360
 141   2.0000      -0.510439       -13.8897
 142   2.0000      -0.508848       -13.8465
 143   2.0000      -0.504383       -13.7250
 144   2.0000      -0.502507       -13.6739
 145   2.0000      -0.496266       -13.5041
 146   2.0000      -0.489662       -13.3244
 147   2.0000      -0.482053       -13.1173
 148   2.0000      -0.477995       -13.0069
 149   2.0000      -0.467375       -12.7179
 150   2.0000      -0.466381       -12.6909
 151   2.0000      -0.456869       -12.4321
 152   2.0000      -0.451413       -12.2836
 153   2.0000      -0.444787       -12.1033
 154   2.0000      -0.439215       -11.9517
 155   2.0000      -0.427635       -11.6365
 156   2.0000      -0.411525       -11.1982
 157   2.0000      -0.406208       -11.0535
 158   2.0000      -0.391858       -10.6630
 159   2.0000      -0.386957       -10.5296
 160   2.0000      -0.384731       -10.4690
 161   2.0000      -0.378437       -10.2978
 162   2.0000      -0.369896       -10.0654
 163   2.0000      -0.356511        -9.7012
 164   2.0000      -0.355891        -9.6843
 165   2.0000      -0.341710        -9.2984
 166   2.0000      -0.337662        -9.1882
 167   2.0000      -0.324805        -8.8384
 168   2.0000      -0.321812        -8.7570
 169   2.0000      -0.305095        -8.3020
 170   2.0000      -0.299471        -8.1490
 171   2.0000      -0.285506        -7.7690
 172   2.0000      -0.279454        -7.6043
 173   2.0000      -0.263598        -7.1729
 174   2.0000      -0.241589        -6.5740
 175   2.0000      -0.189975        -5.1695
 176   2.0000      -0.180803        -4.9199
 177   2.0000      -0.078697        -2.1414
 178   2.0000      -0.059376        -1.6157
 179   0.0000       0.028332         0.7709
 180   0.0000       0.065487         1.7820
 181   0.0000       0.090457         2.4615
 182   0.0000       0.106959         2.9105
 183   0.0000       0.114099         3.1048

MULLIKEN ATOMIC CHARGES
-----------------------
   0 C :    0.212116
   1 N :   -0.455577
   2 C :   -0.072052
   3 N :   -0.340165
   4 C :   -0.056559
   5 N :   -0.567150
   6 C :   -0.118128
   7 N :   -0.340748
   8 C :    0.213222
   9 N :   -0.562236
  10 C :    0.119025
  11 N :   -0.438489
  12 C :   -0.066337
  13 N :   -0.429621
  14 C :    0.224239
  15 N :   -0.440922
  16 C :    0.230145
  17 C :   -0.111718
  18 C :   -0.184889
  19 C :    0.217964
  20 C :    0.213410
  21 C :   -0.072656
  22 C :   -0.091042
  23 C :   -0.039581
  24 C :    0.193644
  25 C :    0.114636
  26 C :   -0.088602
  27 C :    0.214911
  28 C :   -0.061670
  29 C :   -0.181221
  30 C :    0.245925
  31 C :    0.229768
  32 C :   -0.061795
  33 C :   -0.060653
  34 C :   -0.051230
  35 C :    0.228054
  36 C :    0.108354
  37 C :   -0.064322
  38 C :    0.231143
  39 C :   -0.057661
  40 C :   -0.181540
  41 C :    0.225983
  42 C :    0.197518
  43 C :   -0.072356
  44 C :   -0.089288
  45 C :   -0.061317
  46 C :    0.211668
  47 C :    0.115323
  48 C :   -0.066912
  49 C :    0.238782
  50 C :   -0.046458
  51 C :   -0.192868
  52 H :    0.036728
  53 H :   -0.017603
  54 H :    0.045329
  55 H :    0.035434
  56 H :    0.049558
  57 H :    0.046969
  58 H :    0.047729
  59 H :   -0.005210
  60 H :    0.047066
  61 H :    0.171223
  62 H :    0.175445
  63 H :    0.055121
  64 H :   -0.020669
  65 H :    0.047206
  66 H :    0.055571
  67 H :    0.062295
  68 H :    0.057175
  69 H :    0.056278
  70 H :   -0.030466
  71 H :    0.044611
  72 H :    0.071098
  73 H :   -0.008027
  74 H :    0.060201
  75 H :    0.070537
  76 H :    0.074745
  77 H :    0.067857
  78 H :    0.067167
  79 H :   -0.016619
  80 H :    0.061133
  81 H :    0.054397
  82 H :   -0.024824
  83 H :    0.042092
  84 H :    0.054332
  85 H :    0.061002
  86 H :    0.055640
  87 H :    0.057258
  88 H :   -0.014492
  89 H :    0.046647
Sum of atomic charges:   -0.0000000

LOEWDIN ATOMIC CHARGES
----------------------
   0 C :   -0.021004
   1 N :    0.119887
   2 C :   -0.101391
   3 N :    0.182946
   4 C :   -0.011534
   5 N :   -0.133972
   6 C :   -0.038801
   7 N :    0.175227
   8 C :   -0.020438
   9 N :   -0.140576
  10 C :    0.023359
  11 N :    0.141752
  12 C :   -0.113413
  13 N :    0.165830
  14 C :   -0.020239
  15 N :    0.138958
  16 C :   -0.060172
  17 C :   -0.030855
  18 C :   -0.108647
  19 C :   -0.076498
  20 C :    0.004481
  21 C :   -0.114140
  22 C :    0.036793
  23 C :   -0.014531
  24 C :   -0.012694
  25 C :    0.029765
  26 C :   -0.108569
  27 C :   -0.116555
  28 C :   -0.027697
  29 C :   -0.099935
  30 C :   -0.029798
  31 C :    0.023868
  32 C :   -0.094531
  33 C :    0.081226
  34 C :   -0.015262
  35 C :    0.022688
  36 C :    0.035148
  37 C :   -0.094143
  38 C :   -0.052237
  39 C :   -0.017653
  40 C :   -0.108512
  41 C :   -0.091149
  42 C :   -0.010239
  43 C :   -0.099229
  44 C :    0.033880
  45 C :   -0.028019
  46 C :    0.002066
  47 C :    0.029547
  48 C :   -0.094837
  49 C :   -0.069597
  50 C :   -0.018821
  51 C :   -0.108692
  52 H :    0.022758
  53 H :    0.002645
  54 H :    0.023332
  55 H :    0.022422
  56 H :    0.021880
  57 H :    0.025936
  58 H :    0.027310
  59 H :    0.009520
  60 H :    0.015825
  61 H :    0.060148
  62 H :    0.061848
  63 H :    0.030654
  64 H :    0.000832
  65 H :    0.045934
  66 H :    0.029211
  67 H :    0.028157
  68 H :    0.031599
  69 H :    0.030251
  70 H :   -0.004892
  71 H :    0.043389
  72 H :    0.037608
  73 H :    0.007121
  74 H :    0.050592
  75 H :    0.037291
  76 H :    0.034713
  77 H :    0.036120
  78 H :    0.035808
  79 H :    0.002953
  80 H :    0.050675
  81 H :    0.029094
  82 H :   -0.002716
  83 H :    0.042587
  84 H :    0.029951
  85 H :    0.027447
  86 H :    0.030227
  87 H :    0.031427
  88 H :    0.002385
  89 H :    0.044919

  Mayer bond orders larger than 0.100000
B(  0-C ,  1-N ) :   1.0923 B(  0-C , 17-C ) :   1.7158 B(  0-C , 52-H ) :   0.9637
B(  1-N ,  8-C ) :   1.0953 B(  1-N , 10-C ) :   0.9773 B(  2-C , 12-C ) :   1.4943
B(  2-C , 16-C ) :   1.3673 B(  2-C , 53-H ) :   0.9733 B(  3-N , 14-C ) :   1.2208
B(  3-N , 16-C ) :   1.1833 B(  3-N , 61-H ) :   0.8988 B(  4-C ,  6-C ) :   1.2151
B(  4-C , 17-C ) :   1.2134 B(  4-C , 18-C ) :   1.4632 B(  5-N , 19-C ) :   1.4570
B(  5-N , 27-C ) :   1.3732 B(  6-C ,  8-C ) :   1.7107 B(  6-C , 54-H ) :   0.9220
B(  7-N , 30-C ) :   1.1957 B(  7-N , 38-C ) :   1.1897 B(  7-N , 62-H ) :   0.8968
B(  8-C , 55-H ) :   0.9649 B(  9-N , 41-C ) :   1.3945 B(  9-N , 49-C ) :   1.4251
B( 10-C , 56-H ) :   0.9775 B( 10-C , 57-H ) :   0.9823 B( 10-C , 58-H ) :   0.9842
B( 11-N , 20-C ) :   1.1308 B( 11-N , 24-C ) :   1.1068 B( 11-N , 25-C ) :   0.9603
B( 12-C , 14-C ) :   1.3571 B( 12-C , 59-H ) :   0.9523 B( 13-N , 31-C ) :   1.1606
B( 13-N , 35-C ) :   1.1595 B( 13-N , 36-C ) :   0.9417 B( 14-C , 18-C ) :   1.1221
B( 15-N , 42-C ) :   1.1080 B( 15-N , 46-C ) :   1.1244 B( 15-N , 47-C ) :   0.9612
B( 16-C , 51-C ) :   1.1685 B( 17-C , 60-H ) :   0.9076 B( 18-C , 19-C ) :   1.1223
B( 19-C , 21-C ) :   1.2514 B( 20-C , 28-C ) :   1.6289 B( 20-C , 63-H ) :   0.9703
B( 21-C , 26-C ) :   1.5871 B( 21-C , 64-H ) :   0.9359 B( 22-C , 23-C ) :   1.2890
B( 22-C , 28-C ) :   1.2636 B( 22-C , 29-C ) :   1.2255 B( 23-C , 24-C ) :   1.6205
B( 23-C , 65-H ) :   0.9703 B( 24-C , 66-H ) :   0.9695 B( 25-C , 67-H ) :   0.9761
B( 25-C , 68-H ) :   0.9828 B( 25-C , 69-H ) :   0.9823 B( 26-C , 27-C ) :   1.2564
B( 26-C , 70-H ) :   0.9686 B( 27-C , 29-C ) :   1.2073 B( 28-C , 71-H ) :   0.9720
B( 29-C , 30-C ) :   1.2457 B( 30-C , 32-C ) :   1.2797 B( 31-C , 39-C ) :   1.5885
B( 31-C , 72-H ) :   0.9681 B( 32-C , 37-C ) :   1.5790 B( 32-C , 73-H ) :   0.9786
B( 33-C , 34-C ) :   1.3064 B( 33-C , 39-C ) :   1.3035 B( 33-C , 40-C ) :   1.1775
B( 34-C , 35-C ) :   1.5862 B( 34-C , 74-H ) :   0.9696 B( 35-C , 75-H ) :   0.9681
B( 36-C , 76-H ) :   0.9768 B( 36-C , 77-H ) :   0.9816 B( 36-C , 78-H ) :   0.9823
B( 37-C , 38-C ) :   1.2857 B( 37-C , 79-H ) :   0.9765 B( 38-C , 40-C ) :   1.2333
B( 39-C , 80-H ) :   0.9705 B( 40-C , 41-C ) :   1.2502 B( 41-C , 43-C ) :   1.1846
B( 42-C , 50-C ) :   1.6328 B( 42-C , 81-H ) :   0.9696 B( 43-C , 48-C ) :   1.6682
B( 43-C , 82-H ) :   0.9722 B( 44-C , 45-C ) :   1.2639 B( 44-C , 50-C ) :   1.2726
B( 44-C , 51-C ) :   1.2603 B( 45-C , 46-C ) :   1.6343 B( 45-C , 83-H ) :   0.9718
B( 46-C , 84-H ) :   0.9700 B( 47-C , 85-H ) :   0.9762 B( 47-C , 86-H ) :   0.9829
B( 47-C , 87-H ) :   0.9824 B( 48-C , 49-C ) :   1.1881 B( 48-C , 88-H ) :   0.9748
B( 49-C , 51-C ) :   1.2441 B( 50-C , 89-H ) :   0.9709

MP2 TOTAL ENERGY:    -2130.820028286 Eh
FINAL SINGLE POINT ENERGY     -2130.820028286089

DIPOLE MOMENT
-------------
                                X             Y             Z
Electronic contribution:      2.69086      -4.26704      -0.18221
Nuclear contribution   :      0.07441       0.23601       0.17945
                        -----------------------------------------
Total Dipole Moment    :      2.76528      -4.03102      -0.00277
                        -----------------------------------------
Magnitude (a.u.)       :      4.88834
Magnitude (Debye)      :     12.42518

Rotational constants in cm-1:     0.001501     0.001479     0.000760
Rotational constants in MHz :    45.000869    44.344012    22.787268

                             ****ORCA TERMINATED NORMALLY****
TOTAL RUN TIME: 0 days 1 hours 25 minutes 19 seconds 482 msec
