                         Program Version 5.0.4 -  RELEASE  -
|  1> ! PAL2
|  2> ! mp2 cc-pvdz TightSCF  NoKeepInts
|  3>
|  4> %scf
|  5>   MaxCore 2000
|  6> end
|  7> %mp2
|  8>   MaxCore 2000
|  9> end
| 10> * xyz 0 1
| 11>    C       -3.20400         6.36500         0.75700
| 12>    C        1.47400         4.04100         0.05700
| 13>    C       -2.80200         4.09300         0.04900
| 14>    C       -4.03400         4.13800        -0.62100
| 15>    C       -4.80300         5.28400        -0.58300
| 16>    C       -5.21600         7.60100         0.09100
| 17>    C        0.13200         4.30700         0.06100
| 18>    C       -0.56900         3.05600         0.04700
| 19>    C        1.64900         2.61800         0.02300
| 20>    C       -2.39800         5.24300         0.74400
| 21>    N       -4.38700         6.37500         0.10100
| 22>    N        0.38800         2.06700         0.02500
| 23>    N       -2.01000         0.39500        -0.07500
| 24>    N       -0.38800        -2.07400        -0.02700
| 25>    N        2.01000        -0.40100         0.06500
| 26>    C       -1.96000         2.86100         0.02400
| 27>    C       -2.62300         1.61500        -0.01800
| 28>    C       -5.57300        -4.32900         1.06600
| 29>    C       -4.07300         1.47100         0.05600
| 30>    C       -4.10600        -2.75600        -0.02600
| 31>    C       -4.99500        -2.75700        -1.11100
| 32>    C       -6.13200        -3.54200        -1.07600
| 33>    C       -7.65100        -5.11300         0.04000
| 34>    C       -4.32400         0.14100         0.03700
| 35>    C       -3.02500        -0.52000        -0.04800
| 36>    C       -4.42200        -3.56600         1.07500
| 37>    N       -6.40700        -4.31300         0.00100
| 38>    C       -2.86700        -1.92200        -0.04000
| 39>    C       -1.65000        -2.62400        -0.02700
| 40>    C        3.56800        -6.14200        -1.04000
| 41>    C       -1.47600        -4.04900        -0.03400
| 42>    C        2.80300        -4.09900        -0.00800
| 43>    C        3.65700        -4.38400         1.06900
| 44>    C        4.42700        -5.53000         1.05900
| 45>    C        5.24500        -7.58800         0.01400
| 46>    C       -0.13400        -4.31500        -0.02200
| 47>    C        0.56800        -3.06400        -0.02700
| 48>    C        2.77500        -5.01200        -1.07400
| 49>    N        4.37600        -6.39100         0.01700
| 50>    C        1.95900        -2.86900        -0.00900
| 51>    C        2.62100        -1.62200         0.00900
| 52>    C        5.54300         4.33900        -1.13000
| 53>    C        4.07000        -1.47900        -0.09400
| 54>    C        4.10400         2.75100        -0.02100
| 55>    C        5.02700         2.72900         1.03600
| 56>    C        6.16600         3.50900         0.97800
| 57>    C        7.61900         5.15300        -0.11500
| 58>    C        4.32100        -0.14800        -0.09200
| 59>    C        3.02500         0.51400         0.01500
| 60>    C        4.38700         3.58200        -1.11500
| 61>    C        2.86600         1.91600         0.01300
| 62>    N        6.41300         4.29600        -0.09500
| 63>    H       -2.93800         7.26900         1.29000
| 64>    H        2.27400         4.76600         0.08100
| 65>    H       -4.39600         3.28500        -1.18300
| 66>    H       -5.75500         5.36900        -1.09200
| 67>    H       -4.96700         8.19100        -0.79400
| 68>    H       -6.26700         7.31300         0.06700
| 69>    H       -5.00600         8.17300         0.99400
| 70>    H       -0.33200         5.28200         0.06900
| 71>    H       -1.46300         5.26600         1.29300
| 72>    H        0.18200         1.07200         0.00500
| 73>    H       -0.18300        -1.08000        -0.02100
| 74>    H       -5.86400        -4.96200         1.89500
| 75>    H       -4.79400         2.27200         0.13900
| 76>    H       -4.80000        -2.16000        -1.99400
| 77>    H       -6.84100        -3.58200        -1.89300
| 78>    H       -8.42800        -4.53600         0.54600
| 79>    H       -7.95600        -5.33700        -0.98100
| 80>    H       -7.45600        -6.03700         0.58400
| 81>    H       -5.28700        -0.34400         0.10000
| 82>    H       -3.78000        -3.60100         1.94700
| 83>    H        3.58700        -6.86800        -1.84300
| 84>    H       -2.27600        -4.77400        -0.05000
| 85>    H        3.71400        -3.72400         1.92600
| 86>    H        5.09200        -5.79500         1.87100
| 87>    H        6.20500        -7.32900        -0.43900
| 88>    H        5.39300        -7.91700         1.04200
| 89>    H        4.75900        -8.37300        -0.56400
| 90>    H        0.32900        -5.29000        -0.00800
| 91>    H        2.14600        -4.84200        -1.94000
| 92>    H        5.80800         4.98600        -1.95600
| 93>    H        4.78800        -2.28100        -0.18500
| 94>    H        4.86000         2.11400         1.91200
| 95>    H        6.90100         3.53100         1.77200
| 96>    H        7.38300         6.10900         0.35600
| 97>    H        8.41400         4.65200         0.43500
| 98>    H        7.92100         5.31000        -1.15000
| 99>    H        5.28300         0.33600        -0.17900
|100>    H        3.72000         3.63200        -1.96700
|101> *
|102>
|103>                          ****END OF INPUT****

CARTESIAN COORDINATES (ANGSTROEM)
---------------------------------
  C     -3.204000    6.365000    0.757000
  C      1.474000    4.041000    0.057000
  C     -2.802000    4.093000    0.049000
  C     -4.034000    4.138000   -0.621000
  C     -4.803000    5.284000   -0.583000
  C     -5.216000    7.601000    0.091000
  C      0.132000    4.307000    0.061000
  C     -0.569000    3.056000    0.047000
  C      1.649000    2.618000    0.023000
  C     -2.398000    5.243000    0.744000
  N     -4.387000    6.375000    0.101000
  N      0.388000    2.067000    0.025000
  N     -2.010000    0.395000   -0.075000
  N     -0.388000   -2.074000   -0.027000
  N      2.010000   -0.401000    0.065000
  C     -1.960000    2.861000    0.024000
  C     -2.623000    1.615000   -0.018000
  C     -5.573000   -4.329000    1.066000
  C     -4.073000    1.471000    0.056000
  C     -4.106000   -2.756000   -0.026000
  C     -4.995000   -2.757000   -1.111000
  C     -6.132000   -3.542000   -1.076000
  C     -7.651000   -5.113000    0.040000
  C     -4.324000    0.141000    0.037000
  C     -3.025000   -0.520000   -0.048000
  C     -4.422000   -3.566000    1.075000
  N     -6.407000   -4.313000    0.001000
  C     -2.867000   -1.922000   -0.040000
  C     -1.650000   -2.624000   -0.027000
  C      3.568000   -6.142000   -1.040000
  C     -1.476000   -4.049000   -0.034000
  C      2.803000   -4.099000   -0.008000
  C      3.657000   -4.384000    1.069000
  C      4.427000   -5.530000    1.059000
  C      5.245000   -7.588000    0.014000
  C     -0.134000   -4.315000   -0.022000
  C      0.568000   -3.064000   -0.027000
  C      2.775000   -5.012000   -1.074000
  N      4.376000   -6.391000    0.017000
  C      1.959000   -2.869000   -0.009000
  C      2.621000   -1.622000    0.009000
  C      5.543000    4.339000   -1.130000
  C      4.070000   -1.479000   -0.094000
  C      4.104000    2.751000   -0.021000
  C      5.027000    2.729000    1.036000
  C      6.166000    3.509000    0.978000
  C      7.619000    5.153000   -0.115000
  C      4.321000   -0.148000   -0.092000
  C      3.025000    0.514000    0.015000
  C      4.387000    3.582000   -1.115000
  C      2.866000    1.916000    0.013000
  N      6.413000    4.296000   -0.095000
  H     -2.938000    7.269000    1.290000
  H      2.274000    4.766000    0.081000
  H     -4.396000    3.285000   -1.183000
  H     -5.755000    5.369000   -1.092000
  H     -4.967000    8.191000   -0.794000
  H     -6.267000    7.313000    0.067000
  H     -5.006000    8.173000    0.994000
  H     -0.332000    5.282000    0.069000
  H     -1.463000    5.266000    1.293000
  H      0.182000    1.072000    0.005000
  H     -0.183000   -1.080000   -0.021000
  H     -5.864000   -4.962000    1.895000
  H     -4.794000    2.272000    0.139000
  H     -4.800000   -2.160000   -1.994000
  H     -6.841000   -3.582000   -1.893000
  H     -8.428000   -4.536000    0.546000
  H     -7.956000   -5.337000   -0.981000
  H     -7.456000   -6.037000    0.584000
  H     -5.287000   -0.344000    0.100000
  H     -3.780000   -3.601000    1.947000
  H      3.587000   -6.868000   -1.843000
  H     -2.276000   -4.774000   -0.050000
  H      3.714000   -3.724000    1.926000
  H      5.092000   -5.795000    1.871000
  H      6.205000   -7.329000   -0.439000
  H      5.393000   -7.917000    1.042000
  H      4.759000   -8.373000   -0.564000
  H      0.329000   -5.290000   -0.008000
  H      2.146000   -4.842000   -1.940000
  H      5.808000    4.986000   -1.956000
  H      4.788000   -2.281000   -0.185000
  H      4.860000    2.114000    1.912000
  H      6.901000    3.531000    1.772000
  H      7.383000    6.109000    0.356000
  H      8.414000    4.652000    0.435000
  H      7.921000    5.310000   -1.150000
  H      5.283000    0.336000   -0.179000
  H      3.720000    3.632000   -1.967000

 Total Charge           Charge          ....    0
 Multiplicity           Mult            ....    1
 Number of Electrons    NEL             ....  358
 Basis Dimension        Dim             ....  918

ORBITAL ENERGIES
----------------

  NO   OCC          E(Eh)            E(eV)
   0   2.0000     -15.670832      -426.4250
   1   2.0000     -15.637513      -425.5184
   2   2.0000     -15.628764      -425.2803
   3   2.0000     -15.591749      -424.2731
   4   2.0000     -15.524909      -422.4542
   5   2.0000     -15.515818      -422.2069
   6   2.0000     -15.451367      -420.4531
   7   2.0000     -15.443043      -420.2266
   8   2.0000     -11.322447      -308.0995
   9   2.0000     -11.322397      -308.0981
  10   2.0000     -11.320314      -308.0414
  11   2.0000     -11.301538      -307.5305
  12   2.0000     -11.296364      -307.3897
  13   2.0000     -11.295469      -307.3653
  14   2.0000     -11.290274      -307.2240
  15   2.0000     -11.288064      -307.1638
  16   2.0000     -11.284299      -307.0614
  17   2.0000     -11.273929      -306.7792
  18   2.0000     -11.273655      -306.7718
  19   2.0000     -11.257878      -306.3424
  20   2.0000     -11.257112      -306.3216
  21   2.0000     -11.256174      -306.2961
  22   2.0000     -11.255132      -306.2677
  23   2.0000     -11.241159      -305.8875
  24   2.0000     -11.233845      -305.6885
  25   2.0000     -11.233554      -305.6805
  26   2.0000     -11.233277      -305.6730
  27   2.0000     -11.227387      -305.5127
  28   2.0000     -11.227090      -305.5046
  29   2.0000     -11.210156      -305.0439
  30   2.0000     -11.208741      -305.0054
  31   2.0000     -11.201602      -304.8111
  32   2.0000     -11.195503      -304.6451
  33   2.0000     -11.195036      -304.6324
  34   2.0000     -11.189546      -304.4830
  35   2.0000     -11.189115      -304.4713
  36   2.0000     -11.187602      -304.4301
  37   2.0000     -11.183754      -304.3254
  38   2.0000     -11.182786      -304.2991
  39   2.0000     -11.174526      -304.0743
  40   2.0000     -11.172378      -304.0159
  41   2.0000     -11.168502      -303.9104
  42   2.0000     -11.168106      -303.8996
  43   2.0000     -11.162394      -303.7442
  44   2.0000     -11.160920      -303.7041
  45   2.0000     -11.159031      -303.6527
  46   2.0000     -11.156990      -303.5971
  47   2.0000     -11.152173      -303.4661
  48   2.0000     -11.147713      -303.3447
  49   2.0000     -11.141098      -303.1647
  50   2.0000     -11.134446      -302.9837
  51   2.0000     -11.126664      -302.7719
  52   2.0000      -1.352760       -36.8105
  53   2.0000      -1.324292       -36.0358
  54   2.0000      -1.316926       -35.8354
  55   2.0000      -1.285801       -34.9884
  56   2.0000      -1.225479       -33.3470
  57   2.0000      -1.210270       -32.9331
  58   2.0000      -1.169911       -31.8349
  59   2.0000      -1.153599       -31.3910
  60   2.0000      -1.137225       -30.9455
  61   2.0000      -1.112794       -30.2807
  62   2.0000      -1.106671       -30.1141
  63   2.0000      -1.081836       -29.4382
  64   2.0000      -1.075009       -29.2525
  65   2.0000      -1.048360       -28.5273
  66   2.0000      -1.041692       -28.3459
  67   2.0000      -1.036998       -28.2181
  68   2.0000      -1.014963       -27.6185
  69   2.0000      -1.014014       -27.5927
  70   2.0000      -1.009430       -27.4680
  71   2.0000      -0.992985       -27.0205
  72   2.0000      -0.987143       -26.8615
  73   2.0000      -0.979224       -26.6461
  74   2.0000      -0.972034       -26.4504
  75   2.0000      -0.959845       -26.1187
  76   2.0000      -0.952145       -25.9092
  77   2.0000      -0.946746       -25.7623
  78   2.0000      -0.935524       -25.4569
  79   2.0000      -0.919814       -25.0294
  80   2.0000      -0.904351       -24.6086
  81   2.0000      -0.892919       -24.2976
  82   2.0000      -0.875637       -23.8273
  83   2.0000      -0.871652       -23.7189
  84   2.0000      -0.867132       -23.5959
  85   2.0000      -0.855724       -23.2854
  86   2.0000      -0.840313       -22.8661
  87   2.0000      -0.837208       -22.7816
  88   2.0000      -0.823097       -22.3976
  89   2.0000      -0.798242       -21.7213
  90   2.0000      -0.792444       -21.5635
  91   2.0000      -0.748631       -20.3713
  92   2.0000      -0.739684       -20.1278
  93   2.0000      -0.732985       -19.9455
  94   2.0000      -0.724118       -19.7043
  95   2.0000      -0.720434       -19.6040
  96   2.0000      -0.714935       -19.4544
  97   2.0000      -0.708781       -19.2869
  98   2.0000      -0.704484       -19.1700
  99   2.0000      -0.696404       -18.9501
 100   2.0000      -0.695898       -18.9363
 101   2.0000      -0.683133       -18.5890
 102   2.0000      -0.679734       -18.4965
 103   2.0000      -0.678361       -18.4591
 104   2.0000      -0.675571       -18.3832
 105   2.0000      -0.671264       -18.2660
 106   2.0000      -0.667542       -18.1648
 107   2.0000      -0.662010       -18.0142
 108   2.0000      -0.655665       -17.8415
 109   2.0000      -0.653691       -17.7878
 110   2.0000      -0.649107       -17.6631
 111   2.0000      -0.643150       -17.5010
 112   2.0000      -0.641518       -17.4566
 113   2.0000      -0.639584       -17.4040
 114   2.0000      -0.636843       -17.3294
 115   2.0000      -0.626215       -17.0402
 116   2.0000      -0.624680       -16.9984
 117   2.0000      -0.616560       -16.7775
 118   2.0000      -0.615064       -16.7367
 119   2.0000      -0.612991       -16.6803
 120   2.0000      -0.609071       -16.5737
 121   2.0000      -0.605714       -16.4823
 122   2.0000      -0.599629       -16.3167
 123   2.0000      -0.586572       -15.9614
 124   2.0000      -0.583579       -15.8800
 125   2.0000      -0.581685       -15.8285
 126   2.0000      -0.578814       -15.7503
 127   2.0000      -0.577744       -15.7212
 128   2.0000      -0.565636       -15.3917
 129   2.0000      -0.558645       -15.2015
 130   2.0000      -0.551374       -15.0037
 131   2.0000      -0.547871       -14.9083
 132   2.0000      -0.543348       -14.7852
 133   2.0000      -0.539503       -14.6806
 134   2.0000      -0.539283       -14.6746
 135   2.0000      -0.534221       -14.5369
 136   2.0000      -0.526045       -14.3144
 137   2.0000      -0.523621       -14.2485
 138   2.0000      -0.518165       -14.1000
 139   2.0000      -0.512795       -13.9538
 140   2.0000      -0.512555       -13.9473
 141   2.0000      -0.510253       -13.8847
 142   2.0000      -0.510027       -13.8785
 143   2.0000      -0.503278       -13.6949
 144   2.0000      -0.500676       -13.6241
 145   2.0000      -0.496538       -13.5115
 146   2.0000      -0.494209       -13.4481
 147   2.0000      -0.484348       -13.1798
 148   2.0000      -0.480316       -13.0700
 149   2.0000      -0.467190       -12.7129
 150   2.0000      -0.465435       -12.6651
 151   2.0000      -0.457164       -12.4401
 152   2.0000      -0.449558       -12.2331
 153   2.0000      -0.446360       -12.1461
 154   2.0000      -0.442782       -12.0487
 155   2.0000      -0.437709       -11.9107
 156   2.0000      -0.429951       -11.6996
 157   2.0000      -0.424473       -11.5505
 158   2.0000      -0.404085       -10.9957
 159   2.0000      -0.386566       -10.5190
 160   2.0000      -0.381773       -10.3886
 161   2.0000      -0.378499       -10.2995
 162   2.0000      -0.371036       -10.0964
 163   2.0000      -0.359107        -9.7718
 164   2.0000      -0.353631        -9.6228
 165   2.0000      -0.339159        -9.2290
 166   2.0000      -0.337641        -9.1877
 167   2.0000      -0.327604        -8.9145
 168   2.0000      -0.326250        -8.8777
 169   2.0000      -0.304331        -8.2813
 170   2.0000      -0.299552        -8.1512
 171   2.0000      -0.286109        -7.7854
 172   2.0000      -0.282609        -7.6902
 173   2.0000      -0.261310        -7.1106
 174   2.0000      -0.244164        -6.6440
 175   2.0000      -0.189857        -5.1663
 176   2.0000      -0.180182        -4.9030
 177   2.0000      -0.074831        -2.0362
 178   2.0000      -0.058082        -1.5805
 179   0.0000       0.028552         0.7769
 180   0.0000       0.066641         1.8134
 181   0.0000       0.091661         2.4942
 182   0.0000       0.108586         2.9548
 183   0.0000       0.112126         3.0511

MULLIKEN ATOMIC CHARGES
-----------------------
   0 C :    0.210611
   1 N :   -0.455042
   2 C :   -0.065961
   3 N :   -0.336671
   4 C :   -0.053861
   5 N :   -0.561286
   6 C :   -0.111930
   7 N :   -0.340176
   8 C :    0.204175
   9 N :   -0.562666
  10 C :    0.118884
  11 N :   -0.437771
  12 C :   -0.080558
  13 N :   -0.431516
  14 C :    0.223966
  15 N :   -0.441471
  16 C :    0.230014
  17 C :   -0.120821
  18 C :   -0.167115
  19 C :    0.209722
  20 C :    0.213791
  21 C :   -0.093110
  22 C :   -0.088825
  23 C :   -0.041406
  24 C :    0.196921
  25 C :    0.114131
  26 C :   -0.076002
  27 C :    0.212383
  28 C :   -0.059676
  29 C :   -0.180838
  30 C :    0.243852
  31 C :    0.227490
  32 C :   -0.061706
  33 C :   -0.064738
  34 C :   -0.049713
  35 C :    0.222371
  36 C :    0.109417
  37 C :   -0.064754
  38 C :    0.233416
  39 C :   -0.059403
  40 C :   -0.182009
  41 C :    0.223606
  42 C :    0.197619
  43 C :   -0.072881
  44 C :   -0.091075
  45 C :   -0.060101
  46 C :    0.208825
  47 C :    0.115707
  48 C :   -0.068793
  49 C :    0.236111
  50 C :   -0.047575
  51 C :   -0.193346
  52 H :    0.040898
  53 H :   -0.016457
  54 H :    0.052635
  55 H :    0.039148
  56 H :    0.049330
  57 H :    0.049027
  58 H :    0.047584
  59 H :    0.001035
  60 H :    0.050509
  61 H :    0.171083
  62 H :    0.175269
  63 H :    0.056542
  64 H :   -0.004281
  65 H :    0.046968
  66 H :    0.056676
  67 H :    0.063353
  68 H :    0.057825
  69 H :    0.057410
  70 H :   -0.028004
  71 H :    0.046363
  72 H :    0.068512
  73 H :   -0.008899
  74 H :    0.057840
  75 H :    0.067738
  76 H :    0.072487
  77 H :    0.066094
  78 H :    0.065253
  79 H :   -0.015513
  80 H :    0.058414
  81 H :    0.053648
  82 H :   -0.025078
  83 H :    0.041135
  84 H :    0.053097
  85 H :    0.059826
  86 H :    0.055123
  87 H :    0.056698
  88 H :   -0.015781
  89 H :    0.046273
Sum of atomic charges:    0.0000000

LOEWDIN ATOMIC CHARGES
----------------------
   0 C :   -0.018783
   1 N :    0.116207
   2 C :   -0.101903
   3 N :    0.183140
   4 C :   -0.006459
   5 N :   -0.130719
   6 C :   -0.036451
   7 N :    0.175808
   8 C :   -0.024835
   9 N :   -0.140266
  10 C :    0.024177
  11 N :    0.143706
  12 C :   -0.110820
  13 N :    0.161402
  14 C :   -0.032771
  15 N :    0.137463
  16 C :   -0.057032
  17 C :   -0.044192
  18 C :   -0.101050
  19 C :   -0.084389
  20 C :    0.005361
  21 C :   -0.116033
  22 C :    0.039564
  23 C :   -0.015505
  24 C :   -0.009353
  25 C :    0.030241
  26 C :   -0.107698
  27 C :   -0.114123
  28 C :   -0.025718
  29 C :   -0.099384
  30 C :   -0.033901
  31 C :    0.020808
  32 C :   -0.094023
  33 C :    0.073650
  34 C :   -0.015238
  35 C :    0.016574
  36 C :    0.034150
  37 C :   -0.095427
  38 C :   -0.048213
  39 C :   -0.019666
  40 C :   -0.108086
  41 C :   -0.093883
  42 C :   -0.010474
  43 C :   -0.100744
  44 C :    0.031166
  45 C :   -0.027674
  46 C :   -0.000858
  47 C :    0.029177
  48 C :   -0.097502
  49 C :   -0.072847
  50 C :   -0.019827
  51 C :   -0.109872
  52 H :    0.023991
  53 H :    0.003149
  54 H :    0.042041
  55 H :    0.023726
  56 H :    0.021655
  57 H :    0.026913
  58 H :    0.027118
  59 H :    0.010123
  60 H :    0.040599
  61 H :    0.059984
  62 H :    0.061738
  63 H :    0.031269
  64 H :    0.006184
  65 H :    0.045759
  66 H :    0.029795
  67 H :    0.028695
  68 H :    0.031900
  69 H :    0.030776
  70 H :   -0.003831
  71 H :    0.044238
  72 H :    0.036436
  73 H :    0.006686
  74 H :    0.049672
  75 H :    0.035881
  76 H :    0.033527
  77 H :    0.035288
  78 H :    0.034919
  79 H :    0.003481
  80 H :    0.049420
  81 H :    0.028790
  82 H :   -0.002808
  83 H :    0.042245
  84 H :    0.029324
  85 H :    0.026870
  86 H :    0.029966
  87 H :    0.031164
  88 H :    0.001769
  89 H :    0.044674

  Mayer bond orders larger than 0.100000
B(  0-C ,  1-N ) :   1.0946 B(  0-C , 17-C ) :   1.7016 B(  0-C , 52-H ) :   0.9668
B(  1-N ,  8-C ) :   1.0847 B(  1-N , 10-C ) :   0.9770 B(  2-C , 12-C ) :   1.5111
B(  2-C , 16-C ) :   1.3522 B(  2-C , 53-H ) :   0.9761 B(  3-N , 14-C ) :   1.2171
B(  3-N , 16-C ) :   1.1919 B(  3-N , 61-H ) :   0.8994 B(  4-C ,  6-C ) :   1.2141
B(  4-C , 17-C ) :   1.2130 B(  4-C , 18-C ) :   1.4218 B(  5-N , 19-C ) :   1.4506
B(  5-N , 27-C ) :   1.3814 B(  6-C ,  8-C ) :   1.7048 B(  6-C , 54-H ) :   0.9600
B(  7-N , 30-C ) :   1.1938 B(  7-N , 38-C ) :   1.1933 B(  7-N , 62-H ) :   0.8969
B(  8-C , 55-H ) :   0.9684 B(  9-N , 41-C ) :   1.3939 B(  9-N , 49-C ) :   1.4270
B( 10-C , 56-H ) :   0.9768 B( 10-C , 57-H ) :   0.9831 B( 10-C , 58-H ) :   0.9835
B( 11-N , 20-C ) :   1.1316 B( 11-N , 24-C ) :   1.1117 B( 11-N , 25-C ) :   0.9588
B( 12-C , 14-C ) :   1.3536 B( 12-C , 59-H ) :   0.9745 B( 13-N , 31-C ) :   1.1552
B( 13-N , 35-C ) :   1.1497 B( 13-N , 36-C ) :   0.9450 B( 14-C , 18-C ) :   1.1362
B( 15-N , 42-C ) :   1.1074 B( 15-N , 46-C ) :   1.1205 B( 15-N , 47-C ) :   0.9624
B( 16-C , 51-C ) :   1.1744 B( 17-C , 60-H ) :   0.9603 B( 18-C , 19-C ) :   1.1395
B( 19-C , 21-C ) :   1.2407 B( 20-C , 28-C ) :   1.6254 B( 20-C , 63-H ) :   0.9702
B( 21-C , 26-C ) :   1.6161 B( 21-C , 64-H ) :   0.9716 B( 22-C , 23-C ) :   1.2906
B( 22-C , 28-C ) :   1.2679 B( 22-C , 29-C ) :   1.2205 B( 23-C , 24-C ) :   1.6172
B( 23-C , 65-H ) :   0.9705 B( 24-C , 66-H ) :   0.9694 B( 25-C , 67-H ) :   0.9760
B( 25-C , 68-H ) :   0.9828 B( 25-C , 69-H ) :   0.9822 B( 26-C , 27-C ) :   1.2353
B( 26-C , 70-H ) :   0.9707 B( 27-C , 29-C ) :   1.2157 B( 28-C , 71-H ) :   0.9718
B( 29-C , 30-C ) :   1.2400 B( 30-C , 32-C ) :   1.2842 B( 31-C , 39-C ) :   1.5966
B( 31-C , 72-H ) :   0.9684 B( 32-C , 37-C ) :   1.5751 B( 32-C , 73-H ) :   0.9784
B( 33-C , 34-C ) :   1.3023 B( 33-C , 39-C ) :   1.2958 B( 33-C , 40-C ) :   1.1886
B( 34-C , 35-C ) :   1.5931 B( 34-C , 74-H ) :   0.9697 B( 35-C , 75-H ) :   0.9685
B( 36-C , 76-H ) :   0.9766 B( 36-C , 77-H ) :   0.9816 B( 36-C , 78-H ) :   0.9825
B( 37-C , 38-C ) :   1.2882 B( 37-C , 79-H ) :   0.9768 B( 38-C , 40-C ) :   1.2303
B( 39-C , 80-H ) :   0.9708 B( 40-C , 41-C ) :   1.2443 B( 41-C , 43-C ) :   1.1922
B( 42-C , 50-C ) :   1.6358 B( 42-C , 81-H ) :   0.9697 B( 43-C , 48-C ) :   1.6597
B( 43-C , 82-H ) :   0.9723 B( 44-C , 45-C ) :   1.2627 B( 44-C , 50-C ) :   1.2691
B( 44-C , 51-C ) :   1.2646 B( 45-C , 46-C ) :   1.6368 B( 45-C , 83-H ) :   0.9717
B( 46-C , 84-H ) :   0.9701 B( 47-C , 85-H ) :   0.9762 B( 47-C , 86-H ) :   0.9829
B( 47-C , 87-H ) :   0.9825 B( 48-C , 49-C ) :   1.1954 B( 48-C , 88-H ) :   0.9748
B( 49-C , 51-C ) :   1.2349 B( 50-C , 89-H ) :   0.9710

MP2 TOTAL ENERGY:    -2130.901187668 Eh
FINAL SINGLE POINT ENERGY     -2130.901187667647

DIPOLE MOMENT
-------------
                                X             Y             Z
Electronic contribution:      2.01127      -3.83144      -0.06355
Nuclear contribution   :     -0.00332       0.18365       0.07341
                        -----------------------------------------
Total Dipole Moment    :      2.00795      -3.64779       0.00986
                        -----------------------------------------
Magnitude (a.u.)       :      4.16393
Magnitude (Debye)      :     10.58388

Rotational constants in cm-1:     0.001502     0.001476     0.000761
Rotational constants in MHz :    45.023353    44.243326    22.808587

                             ****ORCA TERMINATED NORMALLY****
TOTAL RUN TIME: 0 days 1 hours 6 minutes 32 seconds 8 msec
