                         Program Version 5.0.4 -  RELEASE  -
|  1> ! PAL2
|  2> ! mp2 cc-pvdz TightSCF  NoKeepInts
|  3>
|  4> %scf
|  5>   MaxCore 2000
|  6> end
|  7> %mp2
|  8>   MaxCore 2000
|  9> end
| 10> * xyz 0 1
| 11>    C       -4.49000         5.48000         1.07500
| 12>    C        1.47400         4.04100         0.05700
| 13>    C       -2.80200         4.09300         0.04900
| 14>    C       -2.70800         5.05100        -0.97200
| 15>    C       -3.49800         6.18300        -0.93600
| 16>    C       -5.18100         7.62400         0.10500
| 17>    C        0.13200         4.30700         0.06100
| 18>    C       -0.56900         3.05600         0.04700
| 19>    C        1.64900         2.61800         0.02300
| 20>    C       -3.71700         4.33500         1.08500
| 21>    N       -4.37600         6.38300         0.07500
| 22>    N        0.38800         2.06700         0.02500
| 23>    N       -2.01000         0.39500        -0.07500
| 24>    N       -0.38800        -2.07400        -0.02700
| 25>    N        2.01000        -0.40100         0.06500
| 26>    C       -1.96000         2.86100         0.02400
| 27>    C       -2.62300         1.61500        -0.01800
| 28>    C       -5.57300        -4.32900         1.06600
| 29>    C       -4.07300         1.47100         0.05600
| 30>    C       -4.10600        -2.75600        -0.02600
| 31>    C       -4.99500        -2.75700        -1.11100
| 32>    C       -6.13200        -3.54200        -1.07600
| 33>    C       -7.65100        -5.11300         0.04000
| 34>    C       -4.32400         0.14100         0.03700
| 35>    C       -3.02500        -0.52000        -0.04800
| 36>    C       -4.42200        -3.56600         1.07500
| 37>    N       -6.40700        -4.31300         0.00100
| 38>    C       -2.86700        -1.92200        -0.04000
| 39>    C       -1.65000        -2.62400        -0.02700
| 40>    C        3.56800        -6.14200        -1.04000
| 41>    C       -1.47600        -4.04900        -0.03400
| 42>    C        2.80300        -4.09900        -0.00800
| 43>    C        3.65700        -4.38400         1.06900
| 44>    C        4.42700        -5.53000         1.05900
| 45>    C        5.24500        -7.58800         0.01400
| 46>    C       -0.13400        -4.31500        -0.02200
| 47>    C        0.56800        -3.06400        -0.02700
| 48>    C        2.77500        -5.01200        -1.07400
| 49>    N        4.37600        -6.39100         0.01700
| 50>    C        1.95900        -2.86900        -0.00900
| 51>    C        2.62100        -1.62200         0.00900
| 52>    C        5.54300         4.33900        -1.13000
| 53>    C        4.07000        -1.47900        -0.09400
| 54>    C        4.10400         2.75100        -0.02100
| 55>    C        5.02700         2.72900         1.03600
| 56>    C        6.16600         3.50900         0.97800
| 57>    C        7.61900         5.15300        -0.11500
| 58>    C        4.32100        -0.14800        -0.09200
| 59>    C        3.02500         0.51400         0.01500
| 60>    C        4.38700         3.58200        -1.11500
| 61>    C        2.86600         1.91600         0.01300
| 62>    N        6.41300         4.29600        -0.09500
| 63>    H       -5.21700         5.70100         1.84700
| 64>    H        2.27400         4.76600         0.08100
| 65>    H       -2.01400         4.92600        -1.79400
| 66>    H       -3.45500         6.95300        -1.69500
| 67>    H       -4.60100         8.41200         0.59100
| 68>    H       -5.42100         7.91200        -0.91900
| 69>    H       -6.09700         7.43400         0.66400
| 70>    H       -0.33200         5.28200         0.06900
| 71>    H       -3.84600         3.62600         1.89500
| 72>    H        0.18200         1.07200         0.00500
| 73>    H       -0.18300        -1.08000        -0.02100
| 74>    H       -5.86400        -4.96200         1.89500
| 75>    H       -4.79400         2.27200         0.13900
| 76>    H       -4.80000        -2.16000        -1.99400
| 77>    H       -6.84100        -3.58200        -1.89300
| 78>    H       -8.42800        -4.53600         0.54600
| 79>    H       -7.95600        -5.33700        -0.98100
| 80>    H       -7.45600        -6.03700         0.58400
| 81>    H       -5.28700        -0.34400         0.10000
| 82>    H       -3.78000        -3.60100         1.94700
| 83>    H        3.58700        -6.86800        -1.84300
| 84>    H       -2.27600        -4.77400        -0.05000
| 85>    H        3.71400        -3.72400         1.92600
| 86>    H        5.09200        -5.79500         1.87100
| 87>    H        6.20500        -7.32900        -0.43900
| 88>    H        5.39300        -7.91700         1.04200
| 89>    H        4.75900        -8.37300        -0.56400
| 90>    H        0.32900        -5.29000        -0.00800
| 91>    H        2.14600        -4.84200        -1.94000
| 92>    H        5.80800         4.98600        -1.95600
| 93>    H        4.78800        -2.28100        -0.18500
| 94>    H        4.86000         2.11400         1.91200
| 95>    H        6.90100         3.53100         1.77200
| 96>    H        7.38300         6.10900         0.35600
| 97>    H        8.41400         4.65200         0.43500
| 98>    H        7.92100         5.31000        -1.15000
| 99>    H        5.28300         0.33600        -0.17900
|100>    H        3.72000         3.63200        -1.96700
|101> *
|102>
|103>                          ****END OF INPUT****

CARTESIAN COORDINATES (ANGSTROEM)
---------------------------------
  C     -4.490000    5.480000    1.075000
  C      1.474000    4.041000    0.057000
  C     -2.802000    4.093000    0.049000
  C     -2.708000    5.051000   -0.972000
  C     -3.498000    6.183000   -0.936000
  C     -5.181000    7.624000    0.105000
  C      0.132000    4.307000    0.061000
  C     -0.569000    3.056000    0.047000
  C      1.649000    2.618000    0.023000
  C     -3.717000    4.335000    1.085000
  N     -4.376000    6.383000    0.075000
  N      0.388000    2.067000    0.025000
  N     -2.010000    0.395000   -0.075000
  N     -0.388000   -2.074000   -0.027000
  N      2.010000   -0.401000    0.065000
  C     -1.960000    2.861000    0.024000
  C     -2.623000    1.615000   -0.018000
  C     -5.573000   -4.329000    1.066000
  C     -4.073000    1.471000    0.056000
  C     -4.106000   -2.756000   -0.026000
  C     -4.995000   -2.757000   -1.111000
  C     -6.132000   -3.542000   -1.076000
  C     -7.651000   -5.113000    0.040000
  C     -4.324000    0.141000    0.037000
  C     -3.025000   -0.520000   -0.048000
  C     -4.422000   -3.566000    1.075000
  N     -6.407000   -4.313000    0.001000
  C     -2.867000   -1.922000   -0.040000
  C     -1.650000   -2.624000   -0.027000
  C      3.568000   -6.142000   -1.040000
  C     -1.476000   -4.049000   -0.034000
  C      2.803000   -4.099000   -0.008000
  C      3.657000   -4.384000    1.069000
  C      4.427000   -5.530000    1.059000
  C      5.245000   -7.588000    0.014000
  C     -0.134000   -4.315000   -0.022000
  C      0.568000   -3.064000   -0.027000
  C      2.775000   -5.012000   -1.074000
  N      4.376000   -6.391000    0.017000
  C      1.959000   -2.869000   -0.009000
  C      2.621000   -1.622000    0.009000
  C      5.543000    4.339000   -1.130000
  C      4.070000   -1.479000   -0.094000
  C      4.104000    2.751000   -0.021000
  C      5.027000    2.729000    1.036000
  C      6.166000    3.509000    0.978000
  C      7.619000    5.153000   -0.115000
  C      4.321000   -0.148000   -0.092000
  C      3.025000    0.514000    0.015000
  C      4.387000    3.582000   -1.115000
  C      2.866000    1.916000    0.013000
  N      6.413000    4.296000   -0.095000
  H     -5.217000    5.701000    1.847000
  H      2.274000    4.766000    0.081000
  H     -2.014000    4.926000   -1.794000
  H     -3.455000    6.953000   -1.695000
  H     -4.601000    8.412000    0.591000
  H     -5.421000    7.912000   -0.919000
  H     -6.097000    7.434000    0.664000
  H     -0.332000    5.282000    0.069000
  H     -3.846000    3.626000    1.895000
  H      0.182000    1.072000    0.005000
  H     -0.183000   -1.080000   -0.021000
  H     -5.864000   -4.962000    1.895000
  H     -4.794000    2.272000    0.139000
  H     -4.800000   -2.160000   -1.994000
  H     -6.841000   -3.582000   -1.893000
  H     -8.428000   -4.536000    0.546000
  H     -7.956000   -5.337000   -0.981000
  H     -7.456000   -6.037000    0.584000
  H     -5.287000   -0.344000    0.100000
  H     -3.780000   -3.601000    1.947000
  H      3.587000   -6.868000   -1.843000
  H     -2.276000   -4.774000   -0.050000
  H      3.714000   -3.724000    1.926000
  H      5.092000   -5.795000    1.871000
  H      6.205000   -7.329000   -0.439000
  H      5.393000   -7.917000    1.042000
  H      4.759000   -8.373000   -0.564000
  H      0.329000   -5.290000   -0.008000
  H      2.146000   -4.842000   -1.940000
  H      5.808000    4.986000   -1.956000
  H      4.788000   -2.281000   -0.185000
  H      4.860000    2.114000    1.912000
  H      6.901000    3.531000    1.772000
  H      7.383000    6.109000    0.356000
  H      8.414000    4.652000    0.435000
  H      7.921000    5.310000   -1.150000
  H      5.283000    0.336000   -0.179000
  H      3.720000    3.632000   -1.967000

 Total Charge           Charge          ....    0
 Multiplicity           Mult            ....    1
 Number of Electrons    NEL             ....  358
 Basis Dimension        Dim             ....  918

ORBITAL ENERGIES
----------------

  NO   OCC          E(Eh)            E(eV)
   0   2.0000     -15.638955      -425.5576
   1   2.0000     -15.633286      -425.4033
   2   2.0000     -15.631637      -425.3585
   3   2.0000     -15.628717      -425.2790
   4   2.0000     -15.517501      -422.2527
   5   2.0000     -15.516618      -422.2286
   6   2.0000     -15.444493      -420.2660
   7   2.0000     -15.442611      -420.2148
   8   2.0000     -11.302342      -307.5523
   9   2.0000     -11.299026      -307.4621
  10   2.0000     -11.298295      -307.4422
  11   2.0000     -11.295987      -307.3794
  12   2.0000     -11.294136      -307.3291
  13   2.0000     -11.293830      -307.3207
  14   2.0000     -11.290883      -307.2406
  15   2.0000     -11.289379      -307.1996
  16   2.0000     -11.288443      -307.1742
  17   2.0000     -11.288260      -307.1692
  18   2.0000     -11.285993      -307.1075
  19   2.0000     -11.285239      -307.0870
  20   2.0000     -11.242174      -305.9151
  21   2.0000     -11.237979      -305.8010
  22   2.0000     -11.236867      -305.7707
  23   2.0000     -11.234142      -305.6965
  24   2.0000     -11.233354      -305.6751
  25   2.0000     -11.233079      -305.6676
  26   2.0000     -11.230097      -305.5865
  27   2.0000     -11.229306      -305.5650
  28   2.0000     -11.229227      -305.5628
  29   2.0000     -11.228086      -305.5318
  30   2.0000     -11.226727      -305.4948
  31   2.0000     -11.226527      -305.4893
  32   2.0000     -11.198046      -304.7143
  33   2.0000     -11.197942      -304.7115
  34   2.0000     -11.195808      -304.6534
  35   2.0000     -11.195437      -304.6433
  36   2.0000     -11.172881      -304.0296
  37   2.0000     -11.172174      -304.0103
  38   2.0000     -11.170733      -303.9711
  39   2.0000     -11.169790      -303.9454
  40   2.0000     -11.169506      -303.9377
  41   2.0000     -11.169165      -303.9284
  42   2.0000     -11.168402      -303.9077
  43   2.0000     -11.166612      -303.8590
  44   2.0000     -11.157542      -303.6121
  45   2.0000     -11.155814      -303.5651
  46   2.0000     -11.154494      -303.5292
  47   2.0000     -11.153118      -303.4918
  48   2.0000     -11.144435      -303.2555
  49   2.0000     -11.142295      -303.1973
  50   2.0000     -11.141038      -303.1631
  51   2.0000     -11.139498      -303.1211
  52   2.0000      -1.325411       -36.0663
  53   2.0000      -1.320660       -35.9370
  54   2.0000      -1.319447       -35.9040
  55   2.0000      -1.316558       -35.8254
  56   2.0000      -1.216099       -33.0917
  57   2.0000      -1.213575       -33.0231
  58   2.0000      -1.161736       -31.6124
  59   2.0000      -1.156538       -31.4710
  60   2.0000      -1.114441       -30.3255
  61   2.0000      -1.109760       -30.1981
  62   2.0000      -1.107981       -30.1497
  63   2.0000      -1.104654       -30.0592
  64   2.0000      -1.049185       -28.5498
  65   2.0000      -1.045022       -28.4365
  66   2.0000      -1.044217       -28.4146
  67   2.0000      -1.041148       -28.3311
  68   2.0000      -1.025955       -27.9176
  69   2.0000      -1.010038       -27.4845
  70   2.0000      -1.008228       -27.4353
  71   2.0000      -0.999085       -27.1865
  72   2.0000      -0.979885       -26.6640
  73   2.0000      -0.977146       -26.5895
  74   2.0000      -0.967202       -26.3189
  75   2.0000      -0.961951       -26.1760
  76   2.0000      -0.952252       -25.9121
  77   2.0000      -0.943294       -25.6683
  78   2.0000      -0.939974       -25.5780
  79   2.0000      -0.923533       -25.1306
  80   2.0000      -0.892503       -24.2863
  81   2.0000      -0.876383       -23.8476
  82   2.0000      -0.873316       -23.7641
  83   2.0000      -0.870542       -23.6887
  84   2.0000      -0.867196       -23.5976
  85   2.0000      -0.856651       -23.3106
  86   2.0000      -0.847944       -23.0737
  87   2.0000      -0.844812       -22.9885
  88   2.0000      -0.821914       -22.3654
  89   2.0000      -0.798366       -21.7246
  90   2.0000      -0.798005       -21.7148
  91   2.0000      -0.739015       -20.1096
  92   2.0000      -0.728153       -19.8141
  93   2.0000      -0.727557       -19.7978
  94   2.0000      -0.722092       -19.6491
  95   2.0000      -0.719025       -19.5657
  96   2.0000      -0.711939       -19.3728
  97   2.0000      -0.711076       -19.3494
  98   2.0000      -0.698171       -18.9982
  99   2.0000      -0.691295       -18.8111
 100   2.0000      -0.683152       -18.5895
 101   2.0000      -0.680255       -18.5107
 102   2.0000      -0.677370       -18.4322
 103   2.0000      -0.675046       -18.3689
 104   2.0000      -0.669717       -18.2239
 105   2.0000      -0.667173       -18.1547
 106   2.0000      -0.663014       -18.0415
 107   2.0000      -0.658006       -17.9053
 108   2.0000      -0.655004       -17.8236
 109   2.0000      -0.654322       -17.8050
 110   2.0000      -0.652316       -17.7504
 111   2.0000      -0.651154       -17.7188
 112   2.0000      -0.650131       -17.6910
 113   2.0000      -0.647920       -17.6308
 114   2.0000      -0.634524       -17.2663
 115   2.0000      -0.623853       -16.9759
 116   2.0000      -0.616052       -16.7636
 117   2.0000      -0.612691       -16.6722
 118   2.0000      -0.612045       -16.6546
 119   2.0000      -0.609280       -16.5794
 120   2.0000      -0.608046       -16.5458
 121   2.0000      -0.607446       -16.5295
 122   2.0000      -0.603195       -16.4138
 123   2.0000      -0.594836       -16.1863
 124   2.0000      -0.584824       -15.9139
 125   2.0000      -0.581349       -15.8193
 126   2.0000      -0.580148       -15.7866
 127   2.0000      -0.578300       -15.7363
 128   2.0000      -0.569080       -15.4855
 129   2.0000      -0.563626       -15.3370
 130   2.0000      -0.553604       -15.0643
 131   2.0000      -0.541255       -14.7283
 132   2.0000      -0.538538       -14.6544
 133   2.0000      -0.536362       -14.5951
 134   2.0000      -0.535032       -14.5590
 135   2.0000      -0.530937       -14.4475
 136   2.0000      -0.524754       -14.2793
 137   2.0000      -0.523421       -14.2430
 138   2.0000      -0.516318       -14.0497
 139   2.0000      -0.512852       -13.9554
 140   2.0000      -0.512364       -13.9421
 141   2.0000      -0.507647       -13.8138
 142   2.0000      -0.503056       -13.6888
 143   2.0000      -0.502567       -13.6755
 144   2.0000      -0.498880       -13.5752
 145   2.0000      -0.498054       -13.5527
 146   2.0000      -0.496554       -13.5119
 147   2.0000      -0.494499       -13.4560
 148   2.0000      -0.491411       -13.3720
 149   2.0000      -0.468751       -12.7554
 150   2.0000      -0.460009       -12.5175
 151   2.0000      -0.451130       -12.2759
 152   2.0000      -0.447722       -12.1831
 153   2.0000      -0.445869       -12.1327
 154   2.0000      -0.444838       -12.1047
 155   2.0000      -0.440009       -11.9733
 156   2.0000      -0.435098       -11.8396
 157   2.0000      -0.431805       -11.7500
 158   2.0000      -0.391489       -10.6530
 159   2.0000      -0.380009       -10.3406
 160   2.0000      -0.377044       -10.2599
 161   2.0000      -0.375294       -10.2123
 162   2.0000      -0.359546        -9.7837
 163   2.0000      -0.356183        -9.6922
 164   2.0000      -0.354808        -9.6548
 165   2.0000      -0.352796        -9.6001
 166   2.0000      -0.337320        -9.1790
 167   2.0000      -0.332027        -9.0349
 168   2.0000      -0.328710        -8.9447
 169   2.0000      -0.300341        -8.1727
 170   2.0000      -0.292923        -7.9708
 171   2.0000      -0.290627        -7.9083
 172   2.0000      -0.287533        -7.8242
 173   2.0000      -0.255246        -6.9456
 174   2.0000      -0.247936        -6.7467
 175   2.0000      -0.187736        -5.1086
 176   2.0000      -0.177581        -4.8322
 177   2.0000      -0.065753        -1.7892
 178   2.0000      -0.053734        -1.4622
 179   0.0000       0.031481         0.8566
 180   0.0000       0.070757         1.9254
 181   0.0000       0.092581         2.5192
 182   0.0000       0.096043         2.6135
 183   0.0000       0.134383         3.6567

MULLIKEN ATOMIC CHARGES
-----------------------
   0 C :    0.211461
   1 N :   -0.441136
   2 C :   -0.064371
   3 N :   -0.337753
   4 C :   -0.065400
   5 N :   -0.563785
   6 C :   -0.062411
   7 N :   -0.337818
   8 C :    0.205701
   9 N :   -0.563563
  10 C :    0.113719
  11 N :   -0.437332
  12 C :   -0.071030
  13 N :   -0.440158
  14 C :    0.241748
  15 N :   -0.440700
  16 C :    0.235304
  17 C :   -0.070948
  18 C :   -0.213493
  19 C :    0.241388
  20 C :    0.207317
  21 C :   -0.083559
  22 C :   -0.086721
  23 C :   -0.049491
  24 C :    0.206394
  25 C :    0.113812
  26 C :   -0.071411
  27 C :    0.224704
  28 C :   -0.051931
  29 C :   -0.186177
  30 C :    0.234814
  31 C :    0.209801
  32 C :   -0.065534
  33 C :   -0.081875
  34 C :   -0.050539
  35 C :    0.203766
  36 C :    0.114350
  37 C :   -0.067067
  38 C :    0.236995
  39 C :   -0.061217
  40 C :   -0.190516
  41 C :    0.221424
  42 C :    0.203979
  43 C :   -0.073597
  44 C :   -0.088836
  45 C :   -0.051668
  46 C :    0.202396
  47 C :    0.115608
  48 C :   -0.074413
  49 C :    0.225599
  50 C :   -0.053791
  51 C :   -0.189176
  52 H :    0.055995
  53 H :   -0.013615
  54 H :    0.047203
  55 H :    0.053599
  56 H :    0.060533
  57 H :    0.057786
  58 H :    0.056869
  59 H :   -0.012907
  60 H :    0.049804
  61 H :    0.173177
  62 H :    0.172508
  63 H :    0.056620
  64 H :   -0.019248
  65 H :    0.047230
  66 H :    0.057823
  67 H :    0.062671
  68 H :    0.058270
  69 H :    0.058989
  70 H :   -0.024053
  71 H :    0.047893
  72 H :    0.055598
  73 H :   -0.014627
  74 H :    0.045959
  75 H :    0.054674
  76 H :    0.061322
  77 H :    0.057642
  78 H :    0.056883
  79 H :   -0.013989
  80 H :    0.046335
  81 H :    0.053292
  82 H :   -0.023317
  83 H :    0.043326
  84 H :    0.053176
  85 H :    0.058961
  86 H :    0.056422
  87 H :    0.056527
  88 H :   -0.021967
  89 H :    0.043770
Sum of atomic charges:   -0.0000000

LOEWDIN ATOMIC CHARGES
----------------------
   0 C :   -0.001114
   1 N :    0.139313
   2 C :   -0.100823
   3 N :    0.178511
   4 C :    0.037376
   5 N :   -0.139273
   6 C :   -0.022609
   7 N :    0.177679
   8 C :   -0.004632
   9 N :   -0.139370
  10 C :    0.029087
  11 N :    0.144823
  12 C :   -0.102781
  13 N :    0.140776
  14 C :   -0.044586
  15 N :    0.138528
  16 C :   -0.044649
  17 C :   -0.025514
  18 C :   -0.109017
  19 C :   -0.085581
  20 C :    0.000012
  21 C :   -0.106046
  22 C :    0.043112
  23 C :   -0.020482
  24 C :   -0.000539
  25 C :    0.030451
  26 C :   -0.101724
  27 C :   -0.092929
  28 C :   -0.020877
  29 C :   -0.108426
  30 C :   -0.046320
  31 C :    0.000116
  32 C :   -0.099928
  33 C :    0.038955
  34 C :   -0.020317
  35 C :   -0.005054
  36 C :    0.029454
  37 C :   -0.101668
  38 C :   -0.041717
  39 C :   -0.025380
  40 C :   -0.109488
  41 C :   -0.092621
  42 C :   -0.005034
  43 C :   -0.104723
  44 C :    0.033987
  45 C :   -0.021807
  46 C :   -0.006205
  47 C :    0.029265
  48 C :   -0.104190
  49 C :   -0.090524
  50 C :   -0.023934
  51 C :   -0.108331
  52 H :    0.030415
  53 H :    0.004512
  54 H :    0.043889
  55 H :    0.029388
  56 H :    0.027251
  57 H :    0.031086
  58 H :    0.031316
  59 H :    0.004100
  60 H :    0.044773
  61 H :    0.060777
  62 H :    0.060318
  63 H :    0.031040
  64 H :   -0.000901
  65 H :    0.045419
  66 H :    0.030659
  67 H :    0.028467
  68 H :    0.032092
  69 H :    0.031429
  70 H :   -0.001864
  71 H :    0.045331
  72 H :    0.030356
  73 H :    0.003931
  74 H :    0.044604
  75 H :    0.029679
  76 H :    0.027765
  77 H :    0.031317
  78 H :    0.030993
  79 H :    0.004302
  80 H :    0.044205
  81 H :    0.028872
  82 H :   -0.001777
  83 H :    0.043662
  84 H :    0.029101
  85 H :    0.026508
  86 H :    0.030505
  87 H :    0.031073
  88 H :   -0.001179
  89 H :    0.043354

  Mayer bond orders larger than 0.100000
B(  0-C ,  1-N ) :   1.1207 B(  0-C , 17-C ) :   1.6343 B(  0-C , 52-H ) :   0.9691
B(  1-N ,  8-C ) :   1.1144 B(  1-N , 10-C ) :   0.9611 B(  2-C , 12-C ) :   1.5352
B(  2-C , 16-C ) :   1.3246 B(  2-C , 53-H ) :   0.9777 B(  3-N , 14-C ) :   1.2016
B(  3-N , 16-C ) :   1.1965 B(  3-N , 61-H ) :   0.8981 B(  4-C ,  6-C ) :   1.2654
B(  4-C , 17-C ) :   1.2660 B(  4-C , 18-C ) :   1.2725 B(  5-N , 19-C ) :   1.4191
B(  5-N , 27-C ) :   1.4047 B(  6-C ,  8-C ) :   1.6364 B(  6-C , 54-H ) :   0.9708
B(  7-N , 30-C ) :   1.1933 B(  7-N , 38-C ) :   1.2020 B(  7-N , 62-H ) :   0.8985
B(  8-C , 55-H ) :   0.9699 B(  9-N , 41-C ) :   1.4102 B(  9-N , 49-C ) :   1.4134
B( 10-C , 56-H ) :   0.9763 B( 10-C , 57-H ) :   0.9817 B( 10-C , 58-H ) :   0.9835
B( 11-N , 20-C ) :   1.1244 B( 11-N , 24-C ) :   1.1238 B( 11-N , 25-C ) :   0.9580
B( 12-C , 14-C ) :   1.3252 B( 12-C , 59-H ) :   0.9765 B( 13-N , 31-C ) :   1.1223
B( 13-N , 35-C ) :   1.1159 B( 13-N , 36-C ) :   0.9605 B( 14-C , 18-C ) :   1.1924
B( 15-N , 42-C ) :   1.1166 B( 15-N , 46-C ) :   1.1132 B( 15-N , 47-C ) :   0.9623
B( 16-C , 51-C ) :   1.1990 B( 17-C , 60-H ) :   0.9707 B( 18-C , 19-C ) :   1.2125
B( 19-C , 21-C ) :   1.2081 B( 20-C , 28-C ) :   1.6226 B( 20-C , 63-H ) :   0.9703
B( 21-C , 26-C ) :   1.6449 B( 21-C , 64-H ) :   0.9717 B( 22-C , 23-C ) :   1.2833
B( 22-C , 28-C ) :   1.2752 B( 22-C , 29-C ) :   1.2289 B( 23-C , 24-C ) :   1.6182
B( 23-C , 65-H ) :   0.9709 B( 24-C , 66-H ) :   0.9691 B( 25-C , 67-H ) :   0.9762
B( 25-C , 68-H ) :   0.9829 B( 25-C , 69-H ) :   0.9821 B( 26-C , 27-C ) :   1.2083
B( 26-C , 70-H ) :   0.9733 B( 27-C , 29-C ) :   1.2330 B( 28-C , 71-H ) :   0.9714
B( 29-C , 30-C ) :   1.2082 B( 30-C , 32-C ) :   1.3154 B( 31-C , 39-C ) :   1.6325
B( 31-C , 72-H ) :   0.9697 B( 32-C , 37-C ) :   1.5429 B( 32-C , 73-H ) :   0.9778
B( 33-C , 34-C ) :   1.2733 B( 33-C , 39-C ) :   1.2668 B( 33-C , 40-C ) :   1.2537
B( 34-C , 35-C ) :   1.6296 B( 34-C , 74-H ) :   0.9705 B( 35-C , 75-H ) :   0.9697
B( 36-C , 76-H ) :   0.9762 B( 36-C , 77-H ) :   0.9821 B( 36-C , 78-H ) :   0.9831
B( 37-C , 38-C ) :   1.3165 B( 37-C , 79-H ) :   0.9778 B( 38-C , 40-C ) :   1.2055
B( 39-C , 80-H ) :   0.9715 B( 40-C , 41-C ) :   1.2171 B( 41-C , 43-C ) :   1.2144
B( 42-C , 50-C ) :   1.6337 B( 42-C , 81-H ) :   0.9696 B( 43-C , 48-C ) :   1.6373
B( 43-C , 82-H ) :   0.9738 B( 44-C , 45-C ) :   1.2718 B( 44-C , 50-C ) :   1.2661
B( 44-C , 51-C ) :   1.2543 B( 45-C , 46-C ) :   1.6321 B( 45-C , 83-H ) :   0.9711
B( 46-C , 84-H ) :   0.9702 B( 47-C , 85-H ) :   0.9761 B( 47-C , 86-H ) :   0.9828
B( 47-C , 87-H ) :   0.9826 B( 48-C , 49-C ) :   1.2138 B( 48-C , 88-H ) :   0.9738
B( 49-C , 51-C ) :   1.2207 B( 50-C , 89-H ) :   0.9714

MP2 TOTAL ENERGY:    -2130.912471437 Eh
FINAL SINGLE POINT ENERGY     -2130.912471436911

DIPOLE MOMENT
-------------
                                X             Y             Z
Electronic contribution:     -0.48107      -0.58831      -0.11186
Nuclear contribution   :      0.07492       0.23803       0.12439
                        -----------------------------------------
Total Dipole Moment    :     -0.40615      -0.35028       0.01253
                        -----------------------------------------
Magnitude (a.u.)       :      0.53648
Magnitude (Debye)      :      1.36363

Rotational constants in cm-1:     0.001499     0.001474     0.000762
Rotational constants in MHz :    44.925599    44.203261    22.844455

                             ****ORCA TERMINATED NORMALLY****
TOTAL RUN TIME: 0 days 1 hours 17 minutes 24 seconds 516 msec
