                         Program Version 5.0.4 -  RELEASE  -
|  1> ! PAL2
|  2> ! mp2 cc-pvdz TightSCF  NoKeepInts
|  3>
|  4> %scf
|  5>   MaxCore 2000
|  6> end
|  7> %mp2
|  8>   MaxCore 2000
|  9> end
| 10> * xyz 0 1
| 11>    C       -4.54100         5.44600         1.03500
| 12>    C        1.47400         4.04100         0.05700
| 13>    C       -2.80200         4.09300         0.04900
| 14>    C       -2.65600         5.08600        -0.93100
| 15>    C       -3.44600         6.21700        -0.89600
| 16>    C       -5.18000         7.62500         0.10700
| 17>    C        0.13200         4.30700         0.06100
| 18>    C       -0.56900         3.05600         0.04700
| 19>    C        1.64900         2.61800         0.02300
| 20>    C       -3.76900         4.30000         1.04500
| 21>    N       -4.37500         6.38400         0.07500
| 22>    N        0.38800         2.06700         0.02500
| 23>    N       -2.01000         0.39500        -0.07500
| 24>    N       -0.38800        -2.07400        -0.02700
| 25>    N        2.01000        -0.40100         0.06500
| 26>    C       -1.96000         2.86100         0.02400
| 27>    C       -2.62300         1.61500        -0.01800
| 28>    C       -5.57300        -4.32900         1.06600
| 29>    C       -4.07300         1.47100         0.05600
| 30>    C       -4.10600        -2.75600        -0.02600
| 31>    C       -4.99500        -2.75700        -1.11100
| 32>    C       -6.13200        -3.54200        -1.07600
| 33>    C       -7.65100        -5.11300         0.04000
| 34>    C       -4.32400         0.14100         0.03700
| 35>    C       -3.02500        -0.52000        -0.04800
| 36>    C       -4.42200        -3.56600         1.07500
| 37>    N       -6.40700        -4.31300         0.00100
| 38>    C       -2.86700        -1.92200        -0.04000
| 39>    C       -1.65000        -2.62400        -0.02700
| 40>    C        3.56800        -6.14200        -1.04000
| 41>    C       -1.47600        -4.04900        -0.03400
| 42>    C        2.80300        -4.09900        -0.00800
| 43>    C        3.65700        -4.38400         1.06900
| 44>    C        4.42700        -5.53000         1.05900
| 45>    C        5.24500        -7.58800         0.01400
| 46>    C       -0.13400        -4.31500        -0.02200
| 47>    C        0.56800        -3.06400        -0.02700
| 48>    C        2.77500        -5.01200        -1.07400
| 49>    N        4.37600        -6.39100         0.01700
| 50>    C        1.95900        -2.86900        -0.00900
| 51>    C        2.62100        -1.62200         0.00900
| 52>    C        5.54300         4.33900        -1.13000
| 53>    C        4.07000        -1.47900        -0.09400
| 54>    C        4.10400         2.75100        -0.02100
| 55>    C        5.02700         2.72900         1.03600
| 56>    C        6.16600         3.50900         0.97800
| 57>    C        7.61900         5.15300        -0.11500
| 58>    C        4.32100        -0.14800        -0.09200
| 59>    C        3.02500         0.51400         0.01500
| 60>    C        4.38700         3.58200        -1.11500
| 61>    C        2.86600         1.91600         0.01300
| 62>    N        6.41300         4.29600        -0.09500
| 63>    H       -5.30600         5.64100         1.77500
| 64>    H        2.27400         4.76600         0.08100
| 65>    H       -1.92000         4.98900        -1.72100
| 66>    H       -3.36400         7.01400        -1.62500
| 67>    H       -4.62600         8.39400         0.64900
| 68>    H       -5.36700         7.94800        -0.91700
| 69>    H       -6.12400         7.41700         0.61100
| 70>    H       -0.33200         5.28200         0.06900
| 71>    H       -3.94000         3.56300         1.82100
| 72>    H        0.18200         1.07200         0.00500
| 73>    H       -0.18300        -1.08000        -0.02100
| 74>    H       -5.86400        -4.96200         1.89500
| 75>    H       -4.79400         2.27200         0.13900
| 76>    H       -4.80000        -2.16000        -1.99400
| 77>    H       -6.84100        -3.58200        -1.89300
| 78>    H       -8.42800        -4.53600         0.54600
| 79>    H       -7.95600        -5.33700        -0.98100
| 80>    H       -7.45600        -6.03700         0.58400
| 81>    H       -5.28700        -0.34400         0.10000
| 82>    H       -3.78000        -3.60100         1.94700
| 83>    H        3.58700        -6.86800        -1.84300
| 84>    H       -2.27600        -4.77400        -0.05000
| 85>    H        3.71400        -3.72400         1.92600
| 86>    H        5.09200        -5.79500         1.87100
| 87>    H        6.20500        -7.32900        -0.43900
| 88>    H        5.39300        -7.91700         1.04200
| 89>    H        4.75900        -8.37300        -0.56400
| 90>    H        0.32900        -5.29000        -0.00800
| 91>    H        2.14600        -4.84200        -1.94000
| 92>    H        5.80800         4.98600        -1.95600
| 93>    H        4.78800        -2.28100        -0.18500
| 94>    H        4.86000         2.11400         1.91200
| 95>    H        6.90100         3.53100         1.77200
| 96>    H        7.38300         6.10900         0.35600
| 97>    H        8.41400         4.65200         0.43500
| 98>    H        7.92100         5.31000        -1.15000
| 99>    H        5.28300         0.33600        -0.17900
|100>    H        3.72000         3.63200        -1.96700
|101> *
|102>
|103>                          ****END OF INPUT****

CARTESIAN COORDINATES (ANGSTROEM)
---------------------------------
  C     -4.541000    5.446000    1.035000
  C      1.474000    4.041000    0.057000
  C     -2.802000    4.093000    0.049000
  C     -2.656000    5.086000   -0.931000
  C     -3.446000    6.217000   -0.896000
  C     -5.180000    7.625000    0.107000
  C      0.132000    4.307000    0.061000
  C     -0.569000    3.056000    0.047000
  C      1.649000    2.618000    0.023000
  C     -3.769000    4.300000    1.045000
  N     -4.375000    6.384000    0.075000
  N      0.388000    2.067000    0.025000
  N     -2.010000    0.395000   -0.075000
  N     -0.388000   -2.074000   -0.027000
  N      2.010000   -0.401000    0.065000
  C     -1.960000    2.861000    0.024000
  C     -2.623000    1.615000   -0.018000
  C     -5.573000   -4.329000    1.066000
  C     -4.073000    1.471000    0.056000
  C     -4.106000   -2.756000   -0.026000
  C     -4.995000   -2.757000   -1.111000
  C     -6.132000   -3.542000   -1.076000
  C     -7.651000   -5.113000    0.040000
  C     -4.324000    0.141000    0.037000
  C     -3.025000   -0.520000   -0.048000
  C     -4.422000   -3.566000    1.075000
  N     -6.407000   -4.313000    0.001000
  C     -2.867000   -1.922000   -0.040000
  C     -1.650000   -2.624000   -0.027000
  C      3.568000   -6.142000   -1.040000
  C     -1.476000   -4.049000   -0.034000
  C      2.803000   -4.099000   -0.008000
  C      3.657000   -4.384000    1.069000
  C      4.427000   -5.530000    1.059000
  C      5.245000   -7.588000    0.014000
  C     -0.134000   -4.315000   -0.022000
  C      0.568000   -3.064000   -0.027000
  C      2.775000   -5.012000   -1.074000
  N      4.376000   -6.391000    0.017000
  C      1.959000   -2.869000   -0.009000
  C      2.621000   -1.622000    0.009000
  C      5.543000    4.339000   -1.130000
  C      4.070000   -1.479000   -0.094000
  C      4.104000    2.751000   -0.021000
  C      5.027000    2.729000    1.036000
  C      6.166000    3.509000    0.978000
  C      7.619000    5.153000   -0.115000
  C      4.321000   -0.148000   -0.092000
  C      3.025000    0.514000    0.015000
  C      4.387000    3.582000   -1.115000
  C      2.866000    1.916000    0.013000
  N      6.413000    4.296000   -0.095000
  H     -5.306000    5.641000    1.775000
  H      2.274000    4.766000    0.081000
  H     -1.920000    4.989000   -1.721000
  H     -3.364000    7.014000   -1.625000
  H     -4.626000    8.394000    0.649000
  H     -5.367000    7.948000   -0.917000
  H     -6.124000    7.417000    0.611000
  H     -0.332000    5.282000    0.069000
  H     -3.940000    3.563000    1.821000
  H      0.182000    1.072000    0.005000
  H     -0.183000   -1.080000   -0.021000
  H     -5.864000   -4.962000    1.895000
  H     -4.794000    2.272000    0.139000
  H     -4.800000   -2.160000   -1.994000
  H     -6.841000   -3.582000   -1.893000
  H     -8.428000   -4.536000    0.546000
  H     -7.956000   -5.337000   -0.981000
  H     -7.456000   -6.037000    0.584000
  H     -5.287000   -0.344000    0.100000
  H     -3.780000   -3.601000    1.947000
  H      3.587000   -6.868000   -1.843000
  H     -2.276000   -4.774000   -0.050000
  H      3.714000   -3.724000    1.926000
  H      5.092000   -5.795000    1.871000
  H      6.205000   -7.329000   -0.439000
  H      5.393000   -7.917000    1.042000
  H      4.759000   -8.373000   -0.564000
  H      0.329000   -5.290000   -0.008000
  H      2.146000   -4.842000   -1.940000
  H      5.808000    4.986000   -1.956000
  H      4.788000   -2.281000   -0.185000
  H      4.860000    2.114000    1.912000
  H      6.901000    3.531000    1.772000
  H      7.383000    6.109000    0.356000
  H      8.414000    4.652000    0.435000
  H      7.921000    5.310000   -1.150000
  H      5.283000    0.336000   -0.179000
  H      3.720000    3.632000   -1.967000

 Total Charge           Charge          ....    0
 Multiplicity           Mult            ....    1
 Number of Electrons    NEL             ....  358
 Basis Dimension        Dim             ....  918

ORBITAL ENERGIES
----------------

  NO   OCC          E(Eh)            E(eV)
   0   2.0000     -15.640831      -425.6086
   1   2.0000     -15.638677      -425.5500
   2   2.0000     -15.629118      -425.2899
   3   2.0000     -15.622756      -425.1168
   4   2.0000     -15.519082      -422.2957
   5   2.0000     -15.516424      -422.2234
   6   2.0000     -15.444530      -420.2670
   7   2.0000     -15.443984      -420.2522
   8   2.0000     -11.303747      -307.5906
   9   2.0000     -11.302174      -307.5478
  10   2.0000     -11.297234      -307.4134
  11   2.0000     -11.296302      -307.3880
  12   2.0000     -11.294904      -307.3500
  13   2.0000     -11.294483      -307.3385
  14   2.0000     -11.293006      -307.2983
  15   2.0000     -11.292925      -307.2961
  16   2.0000     -11.286200      -307.1131
  17   2.0000     -11.285946      -307.1062
  18   2.0000     -11.282343      -307.0082
  19   2.0000     -11.281311      -306.9801
  20   2.0000     -11.245185      -305.9971
  21   2.0000     -11.241938      -305.9087
  22   2.0000     -11.235586      -305.7358
  23   2.0000     -11.234705      -305.7119
  24   2.0000     -11.234080      -305.6949
  25   2.0000     -11.233553      -305.6805
  26   2.0000     -11.233299      -305.6736
  27   2.0000     -11.229344      -305.5660
  28   2.0000     -11.227153      -305.5064
  29   2.0000     -11.226972      -305.5014
  30   2.0000     -11.222976      -305.3927
  31   2.0000     -11.221671      -305.3572
  32   2.0000     -11.200436      -304.7794
  33   2.0000     -11.200134      -304.7711
  34   2.0000     -11.194476      -304.6172
  35   2.0000     -11.194053      -304.6057
  36   2.0000     -11.173137      -304.0365
  37   2.0000     -11.172398      -304.0164
  38   2.0000     -11.172098      -304.0082
  39   2.0000     -11.171711      -303.9977
  40   2.0000     -11.170659      -303.9691
  41   2.0000     -11.169433      -303.9357
  42   2.0000     -11.167264      -303.8767
  43   2.0000     -11.166853      -303.8655
  44   2.0000     -11.160009      -303.6793
  45   2.0000     -11.158668      -303.6428
  46   2.0000     -11.152887      -303.4855
  47   2.0000     -11.151227      -303.4403
  48   2.0000     -11.144378      -303.2539
  49   2.0000     -11.142426      -303.2008
  50   2.0000     -11.142367      -303.1992
  51   2.0000     -11.139301      -303.1158
  52   2.0000      -1.327129       -36.1130
  53   2.0000      -1.325184       -36.0601
  54   2.0000      -1.316971       -35.8366
  55   2.0000      -1.311978       -35.7007
  56   2.0000      -1.217794       -33.1379
  57   2.0000      -1.213023       -33.0080
  58   2.0000      -1.161968       -31.6188
  59   2.0000      -1.157328       -31.4925
  60   2.0000      -1.115987       -30.3676
  61   2.0000      -1.112803       -30.2809
  62   2.0000      -1.106078       -30.0979
  63   2.0000      -1.102214       -29.9928
  64   2.0000      -1.051081       -28.6014
  65   2.0000      -1.049004       -28.5449
  66   2.0000      -1.041585       -28.3430
  67   2.0000      -1.037573       -28.2338
  68   2.0000      -1.026734       -27.9388
  69   2.0000      -1.009699       -27.4753
  70   2.0000      -1.009589       -27.4723
  71   2.0000      -0.998201       -27.1624
  72   2.0000      -0.981867       -26.7180
  73   2.0000      -0.976140       -26.5621
  74   2.0000      -0.968809       -26.3626
  75   2.0000      -0.960634       -26.1402
  76   2.0000      -0.952525       -25.9195
  77   2.0000      -0.943097       -25.6630
  78   2.0000      -0.940935       -25.6041
  79   2.0000      -0.923544       -25.1309
  80   2.0000      -0.893298       -24.3079
  81   2.0000      -0.878059       -23.8932
  82   2.0000      -0.875699       -23.8290
  83   2.0000      -0.869071       -23.6486
  84   2.0000      -0.865042       -23.5390
  85   2.0000      -0.857054       -23.3216
  86   2.0000      -0.847594       -23.0642
  87   2.0000      -0.844795       -22.9880
  88   2.0000      -0.821875       -22.3644
  89   2.0000      -0.798596       -21.7309
  90   2.0000      -0.797976       -21.7140
  91   2.0000      -0.739449       -20.1214
  92   2.0000      -0.729335       -19.8462
  93   2.0000      -0.728860       -19.8333
  94   2.0000      -0.720967       -19.6185
  95   2.0000      -0.720436       -19.6041
  96   2.0000      -0.712217       -19.3804
  97   2.0000      -0.709987       -19.3197
  98   2.0000      -0.698786       -19.0149
  99   2.0000      -0.692367       -18.8403
 100   2.0000      -0.683888       -18.6095
 101   2.0000      -0.680577       -18.5194
 102   2.0000      -0.679316       -18.4851
 103   2.0000      -0.673844       -18.3362
 104   2.0000      -0.667963       -18.1762
 105   2.0000      -0.667568       -18.1654
 106   2.0000      -0.662566       -18.0293
 107   2.0000      -0.659141       -17.9361
 108   2.0000      -0.657321       -17.8866
 109   2.0000      -0.654668       -17.8144
 110   2.0000      -0.652313       -17.7503
 111   2.0000      -0.651381       -17.7250
 112   2.0000      -0.648368       -17.6430
 113   2.0000      -0.645248       -17.5581
 114   2.0000      -0.635060       -17.2809
 115   2.0000      -0.623888       -16.9769
 116   2.0000      -0.617680       -16.8079
 117   2.0000      -0.615844       -16.7580
 118   2.0000      -0.611215       -16.6320
 119   2.0000      -0.608790       -16.5660
 120   2.0000      -0.608363       -16.5544
 121   2.0000      -0.605487       -16.4761
 122   2.0000      -0.602250       -16.3881
 123   2.0000      -0.593848       -16.1594
 124   2.0000      -0.586350       -15.9554
 125   2.0000      -0.584579       -15.9072
 126   2.0000      -0.578662       -15.7462
 127   2.0000      -0.574895       -15.6437
 128   2.0000      -0.570766       -15.5313
 129   2.0000      -0.561787       -15.2870
 130   2.0000      -0.553796       -15.0696
 131   2.0000      -0.542694       -14.7675
 132   2.0000      -0.540800       -14.7159
 133   2.0000      -0.535424       -14.5696
 134   2.0000      -0.533987       -14.5305
 135   2.0000      -0.531147       -14.4533
 136   2.0000      -0.524473       -14.2716
 137   2.0000      -0.523808       -14.2535
 138   2.0000      -0.517206       -14.0739
 139   2.0000      -0.516385       -14.0516
 140   2.0000      -0.510574       -13.8934
 141   2.0000      -0.505786       -13.7631
 142   2.0000      -0.503775       -13.7084
 143   2.0000      -0.502803       -13.6820
 144   2.0000      -0.499031       -13.5793
 145   2.0000      -0.498529       -13.5657
 146   2.0000      -0.497542       -13.5388
 147   2.0000      -0.493182       -13.4202
 148   2.0000      -0.491476       -13.3737
 149   2.0000      -0.469265       -12.7694
 150   2.0000      -0.460417       -12.5286
 151   2.0000      -0.451582       -12.2882
 152   2.0000      -0.448392       -12.2014
 153   2.0000      -0.446581       -12.1521
 154   2.0000      -0.445049       -12.1104
 155   2.0000      -0.439744       -11.9660
 156   2.0000      -0.435325       -11.8458
 157   2.0000      -0.432174       -11.7600
 158   2.0000      -0.392059       -10.6685
 159   2.0000      -0.382686       -10.4134
 160   2.0000      -0.377382       -10.2691
 161   2.0000      -0.373986       -10.1767
 162   2.0000      -0.361333        -9.8324
 163   2.0000      -0.359419        -9.7803
 164   2.0000      -0.353245        -9.6123
 165   2.0000      -0.348993        -9.4966
 166   2.0000      -0.337174        -9.1750
 167   2.0000      -0.332340        -9.0434
 168   2.0000      -0.329535        -8.9671
 169   2.0000      -0.300342        -8.1727
 170   2.0000      -0.295132        -8.0309
 171   2.0000      -0.289453        -7.8764
 172   2.0000      -0.287518        -7.8238
 173   2.0000      -0.255399        -6.9498
 174   2.0000      -0.248531        -6.7629
 175   2.0000      -0.188191        -5.1209
 176   2.0000      -0.178109        -4.8466
 177   2.0000      -0.066922        -1.8210
 178   2.0000      -0.054419        -1.4808
 179   0.0000       0.030906         0.8410
 180   0.0000       0.070766         1.9257
 181   0.0000       0.092762         2.5242
 182   0.0000       0.097217         2.6454
 183   0.0000       0.133025         3.6198

MULLIKEN ATOMIC CHARGES
-----------------------
   0 C :    0.210745
   1 N :   -0.444637
   2 C :   -0.063843
   3 N :   -0.337122
   4 C :   -0.061149
   5 N :   -0.563399
   6 C :   -0.071244
   7 N :   -0.338140
   8 C :    0.203476
   9 N :   -0.563296
  10 C :    0.115300
  11 N :   -0.437371
  12 C :   -0.073655
  13 N :   -0.438483
  14 C :    0.243423
  15 N :   -0.440774
  16 C :    0.233092
  17 C :   -0.079067
  18 C :   -0.215775
  19 C :    0.241540
  20 C :    0.208813
  21 C :   -0.086444
  22 C :   -0.087344
  23 C :   -0.047522
  24 C :    0.204237
  25 C :    0.113879
  26 C :   -0.071734
  27 C :    0.221805
  28 C :   -0.053680
  29 C :   -0.184651
  30 C :    0.236720
  31 C :    0.213236
  32 C :   -0.064989
  33 C :   -0.078541
  34 C :   -0.050451
  35 C :    0.207532
  36 C :    0.113363
  37 C :   -0.066618
  38 C :    0.236129
  39 C :   -0.060736
  40 C :   -0.188746
  41 C :    0.222033
  42 C :    0.202648
  43 C :   -0.073313
  44 C :   -0.088985
  45 C :   -0.053431
  46 C :    0.204142
  47 C :    0.115575
  48 C :   -0.073245
  49 C :    0.227893
  50 C :   -0.052352
  51 C :   -0.189389
  52 H :    0.052388
  53 H :   -0.014155
  54 H :    0.046935
  55 H :    0.050907
  56 H :    0.057943
  57 H :    0.055557
  58 H :    0.054941
  59 H :   -0.010306
  60 H :    0.049259
  61 H :    0.172726
  62 H :    0.173078
  63 H :    0.056590
  64 H :   -0.016942
  65 H :    0.047475
  66 H :    0.057664
  67 H :    0.062784
  68 H :    0.058231
  69 H :    0.058650
  70 H :   -0.024975
  71 H :    0.047519
  72 H :    0.058224
  73 H :   -0.013526
  74 H :    0.048361
  75 H :    0.057335
  76 H :    0.063552
  77 H :    0.059342
  78 H :    0.058579
  79 H :   -0.014328
  80 H :    0.048811
  81 H :    0.053411
  82 H :   -0.023545
  83 H :    0.043085
  84 H :    0.053363
  85 H :    0.059301
  86 H :    0.056251
  87 H :    0.056620
  88 H :   -0.020683
  89 H :    0.044124
Sum of atomic charges:   -0.0000000

LOEWDIN ATOMIC CHARGES
----------------------
   0 C :   -0.005058
   1 N :    0.133627
   2 C :   -0.100804
   3 N :    0.179486
   4 C :    0.028819
   5 N :   -0.137903
   6 C :   -0.025692
   7 N :    0.177481
   8 C :   -0.009289
   9 N :   -0.139517
  10 C :    0.028100
  11 N :    0.144650
  12 C :   -0.103611
  13 N :    0.144864
  14 C :   -0.042256
  15 N :    0.138539
  16 C :   -0.047737
  17 C :   -0.028017
  18 C :   -0.107492
  19 C :   -0.085088
  20 C :    0.001266
  21 C :   -0.107474
  22 C :    0.042377
  23 C :   -0.019188
  24 C :   -0.002491
  25 C :    0.030413
  26 C :   -0.102515
  27 C :   -0.097543
  28 C :   -0.021974
  29 C :   -0.106752
  30 C :   -0.043609
  31 C :    0.004193
  32 C :   -0.099053
  33 C :    0.045811
  34 C :   -0.019329
  35 C :   -0.000661
  36 C :    0.030394
  37 C :   -0.100454
  38 C :   -0.043277
  39 C :   -0.024140
  40 C :   -0.109073
  41 C :   -0.092673
  42 C :   -0.006158
  43 C :   -0.103724
  44 C :    0.033825
  45 C :   -0.022943
  46 C :   -0.004651
  47 C :    0.029302
  48 C :   -0.102705
  49 C :   -0.086859
  50 C :   -0.022999
  51 C :   -0.108406
  52 H :    0.028778
  53 H :    0.004251
  54 H :    0.043063
  55 H :    0.028333
  56 H :    0.025846
  57 H :    0.030002
  58 H :    0.030548
  59 H :    0.004873
  60 H :    0.043674
  61 H :    0.060580
  62 H :    0.060622
  63 H :    0.031086
  64 H :   -0.000142
  65 H :    0.045621
  66 H :    0.030504
  67 H :    0.028501
  68 H :    0.032076
  69 H :    0.031288
  70 H :   -0.002287
  71 H :    0.045070
  72 H :    0.031582
  73 H :    0.004457
  74 H :    0.045618
  75 H :    0.030936
  76 H :    0.028914
  77 H :    0.032114
  78 H :    0.031786
  79 H :    0.004117
  80 H :    0.045274
  81 H :    0.028871
  82 H :   -0.001926
  83 H :    0.043459
  84 H :    0.029249
  85 H :    0.026660
  86 H :    0.030441
  87 H :    0.031119
  88 H :   -0.000568
  89 H :    0.043578

  Mayer bond orders larger than 0.100000
B(  0-C ,  1-N ) :   1.1135 B(  0-C , 17-C ) :   1.6480 B(  0-C , 52-H ) :   0.9691
B(  1-N ,  8-C ) :   1.1068 B(  1-N , 10-C ) :   0.9646 B(  2-C , 12-C ) :   1.5309
B(  2-C , 16-C ) :   1.3300 B(  2-C , 53-H ) :   0.9775 B(  3-N , 14-C ) :   1.2051
B(  3-N , 16-C ) :   1.1956 B(  3-N , 61-H ) :   0.8983 B(  4-C ,  6-C ) :   1.2545
B(  4-C , 17-C ) :   1.2543 B(  4-C , 18-C ) :   1.3026 B(  5-N , 19-C ) :   1.4261
B(  5-N , 27-C ) :   1.3993 B(  6-C ,  8-C ) :   1.6495 B(  6-C , 54-H ) :   0.9702
B(  7-N , 30-C ) :   1.1940 B(  7-N , 38-C ) :   1.2002 B(  7-N , 62-H ) :   0.8981
B(  8-C , 55-H ) :   0.9699 B(  9-N , 41-C ) :   1.4068 B(  9-N , 49-C ) :   1.4161
B( 10-C , 56-H ) :   0.9764 B( 10-C , 57-H ) :   0.9818 B( 10-C , 58-H ) :   0.9837
B( 11-N , 20-C ) :   1.1262 B( 11-N , 24-C ) :   1.1211 B( 11-N , 25-C ) :   0.9582
B( 12-C , 14-C ) :   1.3310 B( 12-C , 59-H ) :   0.9759 B( 13-N , 31-C ) :   1.1285
B( 13-N , 35-C ) :   1.1225 B( 13-N , 36-C ) :   0.9574 B( 14-C , 18-C ) :   1.1823
B( 15-N , 42-C ) :   1.1148 B( 15-N , 46-C ) :   1.1152 B( 15-N , 47-C ) :   0.9622
B( 16-C , 51-C ) :   1.1940 B( 17-C , 60-H ) :   0.9701 B( 18-C , 19-C ) :   1.1988
B( 19-C , 21-C ) :   1.2140 B( 20-C , 28-C ) :   1.6231 B( 20-C , 63-H ) :   0.9703
B( 21-C , 26-C ) :   1.6405 B( 21-C , 64-H ) :   0.9711 B( 22-C , 23-C ) :   1.2853
B( 22-C , 28-C ) :   1.2736 B( 22-C , 29-C ) :   1.2265 B( 23-C , 24-C ) :   1.6177
B( 23-C , 65-H ) :   0.9708 B( 24-C , 66-H ) :   0.9691 B( 25-C , 67-H ) :   0.9761
B( 25-C , 68-H ) :   0.9829 B( 25-C , 69-H ) :   0.9821 B( 26-C , 27-C ) :   1.2131
B( 26-C , 70-H ) :   0.9730 B( 27-C , 29-C ) :   1.2310 B( 28-C , 71-H ) :   0.9715
B( 29-C , 30-C ) :   1.2134 B( 30-C , 32-C ) :   1.3098 B( 31-C , 39-C ) :   1.6253
B( 31-C , 72-H ) :   0.9694 B( 32-C , 37-C ) :   1.5485 B( 32-C , 73-H ) :   0.9779
B( 33-C , 34-C ) :   1.2791 B( 33-C , 39-C ) :   1.2726 B( 33-C , 40-C ) :   1.2403
B( 34-C , 35-C ) :   1.6223 B( 34-C , 74-H ) :   0.9704 B( 35-C , 75-H ) :   0.9694
B( 36-C , 76-H ) :   0.9763 B( 36-C , 77-H ) :   0.9820 B( 36-C , 78-H ) :   0.9830
B( 37-C , 38-C ) :   1.3115 B( 37-C , 79-H ) :   0.9776 B( 38-C , 40-C ) :   1.2098
B( 39-C , 80-H ) :   0.9714 B( 40-C , 41-C ) :   1.2231 B( 41-C , 43-C ) :   1.2094
B( 42-C , 50-C ) :   1.6335 B( 42-C , 81-H ) :   0.9696 B( 43-C , 48-C ) :   1.6424
B( 43-C , 82-H ) :   0.9735 B( 44-C , 45-C ) :   1.2701 B( 44-C , 50-C ) :   1.2674
B( 44-C , 51-C ) :   1.2557 B( 45-C , 46-C ) :   1.6328 B( 45-C , 83-H ) :   0.9712
B( 46-C , 84-H ) :   0.9702 B( 47-C , 85-H ) :   0.9761 B( 47-C , 86-H ) :   0.9828
B( 47-C , 87-H ) :   0.9826 B( 48-C , 49-C ) :   1.2096 B( 48-C , 88-H ) :   0.9740
B( 49-C , 51-C ) :   1.2238 B( 50-C , 89-H ) :   0.9713

MP2 TOTAL ENERGY:    -2130.913495247 Eh
FINAL SINGLE POINT ENERGY     -2130.913495247306

DIPOLE MOMENT
-------------
                                X             Y             Z
Electronic contribution:      0.04134      -1.26591      -0.11482
Nuclear contribution   :      0.07647       0.23843       0.12604
                        -----------------------------------------
Total Dipole Moment    :      0.11781      -1.02748       0.01122
                        -----------------------------------------
Magnitude (a.u.)       :      1.03427
Magnitude (Debye)      :      2.62890

Rotational constants in cm-1:     0.001499     0.001475     0.000762
Rotational constants in MHz :    44.930799    44.217131    22.839387

                             ****ORCA TERMINATED NORMALLY****
TOTAL RUN TIME: 0 days 1 hours 11 minutes 31 seconds 562 msec
