                         Program Version 5.0.4 -  RELEASE  -
|  1> ! PAL2
|  2> ! mp2 cc-pvdz TightSCF  NoKeepInts
|  3>
|  4> %scf
|  5>   MaxCore 2000
|  6> end
|  7> %mp2
|  8>   MaxCore 2000
|  9> end
| 10> * xyz 0 1
| 11>    C       -3.12500         6.42200         0.59300
| 12>    C        1.47400         4.04100         0.05700
| 13>    C       -2.80200         4.09300         0.04900
| 14>    C       -4.11400         4.08000        -0.45000
| 15>    C       -4.88000         5.22800        -0.41400
| 16>    C       -5.22000         7.59800         0.09400
| 17>    C        0.13200         4.30700         0.06100
| 18>    C       -0.56900         3.05600         0.04700
| 19>    C        1.64900         2.61800         0.02300
| 20>    C       -2.31800         5.30100         0.57400
| 21>    N       -4.38600         6.37600         0.10500
| 22>    N        0.38800         2.06700         0.02500
| 23>    N       -2.01000         0.39500        -0.07500
| 24>    N       -0.38800        -2.07400        -0.02700
| 25>    N        2.01000        -0.40100         0.06500
| 26>    C       -1.96000         2.86100         0.02400
| 27>    C       -2.62300         1.61500        -0.01800
| 28>    C       -5.57300        -4.32900         1.06600
| 29>    C       -4.07300         1.47100         0.05600
| 30>    C       -4.10600        -2.75600        -0.02600
| 31>    C       -4.99500        -2.75700        -1.11100
| 32>    C       -6.13200        -3.54200        -1.07600
| 33>    C       -7.65100        -5.11300         0.04000
| 34>    C       -4.32400         0.14100         0.03700
| 35>    C       -3.02500        -0.52000        -0.04800
| 36>    C       -4.42200        -3.56600         1.07500
| 37>    N       -6.40700        -4.31300         0.00100
| 38>    C       -2.86700        -1.92200        -0.04000
| 39>    C       -1.65000        -2.62400        -0.02700
| 40>    C        3.56800        -6.14200        -1.04000
| 41>    C       -1.47600        -4.04900        -0.03400
| 42>    C        2.80300        -4.09900        -0.00800
| 43>    C        3.65700        -4.38400         1.06900
| 44>    C        4.42700        -5.53000         1.05900
| 45>    C        5.24500        -7.58800         0.01400
| 46>    C       -0.13400        -4.31500        -0.02200
| 47>    C        0.56800        -3.06400        -0.02700
| 48>    C        2.77500        -5.01200        -1.07400
| 49>    N        4.37600        -6.39100         0.01700
| 50>    C        1.95900        -2.86900        -0.00900
| 51>    C        2.62100        -1.62200         0.00900
| 52>    C        5.54300         4.33900        -1.13000
| 53>    C        4.07000        -1.47900        -0.09400
| 54>    C        4.10400         2.75100        -0.02100
| 55>    C        5.02700         2.72900         1.03600
| 56>    C        6.16600         3.50900         0.97800
| 57>    C        7.61900         5.15300        -0.11500
| 58>    C        4.32100        -0.14800        -0.09200
| 59>    C        3.02500         0.51400         0.01500
| 60>    C        4.38700         3.58200        -1.11500
| 61>    C        2.86600         1.91600         0.01300
| 62>    N        6.41300         4.29600        -0.09500
| 63>    H       -2.79800         7.37100         0.99900
| 64>    H        2.27400         4.76600         0.08100
| 65>    H       -4.54100         3.18100        -0.87600
| 66>    H       -5.89300         5.26900        -0.79400
| 67>    H       -5.09800         8.10300        -0.86800
| 68>    H       -6.26200         7.31300         0.23900
| 69>    H       -4.89500         8.25100         0.90300
| 70>    H       -0.33200         5.28200         0.06900
| 71>    H       -1.31800         5.37200         0.98700
| 72>    H        0.18200         1.07200         0.00500
| 73>    H       -0.18300        -1.08000        -0.02100
| 74>    H       -5.86400        -4.96200         1.89500
| 75>    H       -4.79400         2.27200         0.13900
| 76>    H       -4.80000        -2.16000        -1.99400
| 77>    H       -6.84100        -3.58200        -1.89300
| 78>    H       -8.42800        -4.53600         0.54600
| 79>    H       -7.95600        -5.33700        -0.98100
| 80>    H       -7.45600        -6.03700         0.58400
| 81>    H       -5.28700        -0.34400         0.10000
| 82>    H       -3.78000        -3.60100         1.94700
| 83>    H        3.58700        -6.86800        -1.84300
| 84>    H       -2.27600        -4.77400        -0.05000
| 85>    H        3.71400        -3.72400         1.92600
| 86>    H        5.09200        -5.79500         1.87100
| 87>    H        6.20500        -7.32900        -0.43900
| 88>    H        5.39300        -7.91700         1.04200
| 89>    H        4.75900        -8.37300        -0.56400
| 90>    H        0.32900        -5.29000        -0.00800
| 91>    H        2.14600        -4.84200        -1.94000
| 92>    H        5.80800         4.98600        -1.95600
| 93>    H        4.78800        -2.28100        -0.18500
| 94>    H        4.86000         2.11400         1.91200
| 95>    H        6.90100         3.53100         1.77200
| 96>    H        7.38300         6.10900         0.35600
| 97>    H        8.41400         4.65200         0.43500
| 98>    H        7.92100         5.31000        -1.15000
| 99>    H        5.28300         0.33600        -0.17900
|100>    H        3.72000         3.63200        -1.96700
|101> *
|102>
|103>                          ****END OF INPUT****

CARTESIAN COORDINATES (ANGSTROEM)
---------------------------------
  C     -3.125000    6.422000    0.593000
  C      1.474000    4.041000    0.057000
  C     -2.802000    4.093000    0.049000
  C     -4.114000    4.080000   -0.450000
  C     -4.880000    5.228000   -0.414000
  C     -5.220000    7.598000    0.094000
  C      0.132000    4.307000    0.061000
  C     -0.569000    3.056000    0.047000
  C      1.649000    2.618000    0.023000
  C     -2.318000    5.301000    0.574000
  N     -4.386000    6.376000    0.105000
  N      0.388000    2.067000    0.025000
  N     -2.010000    0.395000   -0.075000
  N     -0.388000   -2.074000   -0.027000
  N      2.010000   -0.401000    0.065000
  C     -1.960000    2.861000    0.024000
  C     -2.623000    1.615000   -0.018000
  C     -5.573000   -4.329000    1.066000
  C     -4.073000    1.471000    0.056000
  C     -4.106000   -2.756000   -0.026000
  C     -4.995000   -2.757000   -1.111000
  C     -6.132000   -3.542000   -1.076000
  C     -7.651000   -5.113000    0.040000
  C     -4.324000    0.141000    0.037000
  C     -3.025000   -0.520000   -0.048000
  C     -4.422000   -3.566000    1.075000
  N     -6.407000   -4.313000    0.001000
  C     -2.867000   -1.922000   -0.040000
  C     -1.650000   -2.624000   -0.027000
  C      3.568000   -6.142000   -1.040000
  C     -1.476000   -4.049000   -0.034000
  C      2.803000   -4.099000   -0.008000
  C      3.657000   -4.384000    1.069000
  C      4.427000   -5.530000    1.059000
  C      5.245000   -7.588000    0.014000
  C     -0.134000   -4.315000   -0.022000
  C      0.568000   -3.064000   -0.027000
  C      2.775000   -5.012000   -1.074000
  N      4.376000   -6.391000    0.017000
  C      1.959000   -2.869000   -0.009000
  C      2.621000   -1.622000    0.009000
  C      5.543000    4.339000   -1.130000
  C      4.070000   -1.479000   -0.094000
  C      4.104000    2.751000   -0.021000
  C      5.027000    2.729000    1.036000
  C      6.166000    3.509000    0.978000
  C      7.619000    5.153000   -0.115000
  C      4.321000   -0.148000   -0.092000
  C      3.025000    0.514000    0.015000
  C      4.387000    3.582000   -1.115000
  C      2.866000    1.916000    0.013000
  N      6.413000    4.296000   -0.095000
  H     -2.798000    7.371000    0.999000
  H      2.274000    4.766000    0.081000
  H     -4.541000    3.181000   -0.876000
  H     -5.893000    5.269000   -0.794000
  H     -5.098000    8.103000   -0.868000
  H     -6.262000    7.313000    0.239000
  H     -4.895000    8.251000    0.903000
  H     -0.332000    5.282000    0.069000
  H     -1.318000    5.372000    0.987000
  H      0.182000    1.072000    0.005000
  H     -0.183000   -1.080000   -0.021000
  H     -5.864000   -4.962000    1.895000
  H     -4.794000    2.272000    0.139000
  H     -4.800000   -2.160000   -1.994000
  H     -6.841000   -3.582000   -1.893000
  H     -8.428000   -4.536000    0.546000
  H     -7.956000   -5.337000   -0.981000
  H     -7.456000   -6.037000    0.584000
  H     -5.287000   -0.344000    0.100000
  H     -3.780000   -3.601000    1.947000
  H      3.587000   -6.868000   -1.843000
  H     -2.276000   -4.774000   -0.050000
  H      3.714000   -3.724000    1.926000
  H      5.092000   -5.795000    1.871000
  H      6.205000   -7.329000   -0.439000
  H      5.393000   -7.917000    1.042000
  H      4.759000   -8.373000   -0.564000
  H      0.329000   -5.290000   -0.008000
  H      2.146000   -4.842000   -1.940000
  H      5.808000    4.986000   -1.956000
  H      4.788000   -2.281000   -0.185000
  H      4.860000    2.114000    1.912000
  H      6.901000    3.531000    1.772000
  H      7.383000    6.109000    0.356000
  H      8.414000    4.652000    0.435000
  H      7.921000    5.310000   -1.150000
  H      5.283000    0.336000   -0.179000
  H      3.720000    3.632000   -1.967000

 Total Charge           Charge          ....    0
 Multiplicity           Mult            ....    1
 Number of Electrons    NEL             ....  358
 Basis Dimension        Dim             ....  918

ORBITAL ENERGIES
----------------

  NO   OCC          E(Eh)            E(eV)
   0   2.0000     -15.676600      -426.5820
   1   2.0000     -15.636385      -425.4877
   2   2.0000     -15.629537      -425.3013
   3   2.0000     -15.588127      -424.1745
   4   2.0000     -15.525549      -422.4717
   5   2.0000     -15.515634      -422.2019
   6   2.0000     -15.452727      -420.4901
   7   2.0000     -15.441967      -420.1973
   8   2.0000     -11.327117      -308.2265
   9   2.0000     -11.325964      -308.1951
  10   2.0000     -11.325314      -308.1775
  11   2.0000     -11.300843      -307.5116
  12   2.0000     -11.296901      -307.4043
  13   2.0000     -11.294849      -307.3485
  14   2.0000     -11.289066      -307.1911
  15   2.0000     -11.288955      -307.1881
  16   2.0000     -11.284744      -307.0735
  17   2.0000     -11.279083      -306.9195
  18   2.0000     -11.271179      -306.7044
  19   2.0000     -11.261178      -306.4322
  20   2.0000     -11.260216      -306.4061
  21   2.0000     -11.254185      -306.2419
  22   2.0000     -11.250847      -306.1511
  23   2.0000     -11.240097      -305.8586
  24   2.0000     -11.234373      -305.7028
  25   2.0000     -11.233037      -305.6665
  26   2.0000     -11.232437      -305.6502
  27   2.0000     -11.228037      -305.5304
  28   2.0000     -11.227710      -305.5215
  29   2.0000     -11.211418      -305.0782
  30   2.0000     -11.209932      -305.0378
  31   2.0000     -11.196730      -304.6785
  32   2.0000     -11.190274      -304.5028
  33   2.0000     -11.189460      -304.4807
  34   2.0000     -11.188413      -304.4522
  35   2.0000     -11.187005      -304.4139
  36   2.0000     -11.186264      -304.3937
  37   2.0000     -11.186057      -304.3881
  38   2.0000     -11.185072      -304.3613
  39   2.0000     -11.174406      -304.0711
  40   2.0000     -11.174115      -304.0631
  41   2.0000     -11.169126      -303.9274
  42   2.0000     -11.169103      -303.9267
  43   2.0000     -11.160908      -303.7037
  44   2.0000     -11.159754      -303.6724
  45   2.0000     -11.158820      -303.6469
  46   2.0000     -11.156492      -303.5836
  47   2.0000     -11.154444      -303.5279
  48   2.0000     -11.146569      -303.3136
  49   2.0000     -11.137500      -303.0668
  50   2.0000     -11.132119      -302.9203
  51   2.0000     -11.121770      -302.6388
  52   2.0000      -1.357668       -36.9440
  53   2.0000      -1.323325       -36.0095
  54   2.0000      -1.317632       -35.8546
  55   2.0000      -1.282062       -34.8867
  56   2.0000      -1.226497       -33.3747
  57   2.0000      -1.209935       -32.9240
  58   2.0000      -1.171874       -31.8883
  59   2.0000      -1.152258       -31.3545
  60   2.0000      -1.141379       -31.0585
  61   2.0000      -1.111969       -30.2582
  62   2.0000      -1.107365       -30.1329
  63   2.0000      -1.079571       -29.3766
  64   2.0000      -1.078591       -29.3499
  65   2.0000      -1.047446       -28.5025
  66   2.0000      -1.042380       -28.3646
  67   2.0000      -1.039708       -28.2919
  68   2.0000      -1.015229       -27.6258
  69   2.0000      -1.011937       -27.5362
  70   2.0000      -1.009012       -27.4566
  71   2.0000      -0.993813       -27.0430
  72   2.0000      -0.986129       -26.8339
  73   2.0000      -0.981007       -26.6946
  74   2.0000      -0.971806       -26.4442
  75   2.0000      -0.960804       -26.1448
  76   2.0000      -0.953463       -25.9450
  77   2.0000      -0.945831       -25.7374
  78   2.0000      -0.935147       -25.4466
  79   2.0000      -0.918282       -24.9877
  80   2.0000      -0.908252       -24.7148
  81   2.0000      -0.894727       -24.3468
  82   2.0000      -0.875512       -23.8239
  83   2.0000      -0.873315       -23.7641
  84   2.0000      -0.868497       -23.6330
  85   2.0000      -0.856954       -23.3189
  86   2.0000      -0.839120       -22.8336
  87   2.0000      -0.836387       -22.7592
  88   2.0000      -0.824430       -22.4339
  89   2.0000      -0.797485       -21.7007
  90   2.0000      -0.790448       -21.5092
  91   2.0000      -0.752068       -20.4648
  92   2.0000      -0.744507       -20.2591
  93   2.0000      -0.733670       -19.9642
  94   2.0000      -0.724896       -19.7254
  95   2.0000      -0.722026       -19.6473
  96   2.0000      -0.716546       -19.4982
  97   2.0000      -0.712599       -19.3908
  98   2.0000      -0.707614       -19.2552
  99   2.0000      -0.697571       -18.9819
 100   2.0000      -0.696280       -18.9467
 101   2.0000      -0.684951       -18.6385
 102   2.0000      -0.682175       -18.5629
 103   2.0000      -0.679528       -18.4909
 104   2.0000      -0.679014       -18.4769
 105   2.0000      -0.672629       -18.3032
 106   2.0000      -0.670213       -18.2374
 107   2.0000      -0.660921       -17.9846
 108   2.0000      -0.655288       -17.8313
 109   2.0000      -0.654469       -17.8090
 110   2.0000      -0.649817       -17.6824
 111   2.0000      -0.643879       -17.5208
 112   2.0000      -0.643601       -17.5133
 113   2.0000      -0.638878       -17.3848
 114   2.0000      -0.636872       -17.3302
 115   2.0000      -0.626929       -17.0596
 116   2.0000      -0.622304       -16.9337
 117   2.0000      -0.619005       -16.8440
 118   2.0000      -0.614323       -16.7166
 119   2.0000      -0.613279       -16.6882
 120   2.0000      -0.609812       -16.5938
 121   2.0000      -0.609214       -16.5776
 122   2.0000      -0.599376       -16.3099
 123   2.0000      -0.586211       -15.9516
 124   2.0000      -0.582863       -15.8605
 125   2.0000      -0.580458       -15.7951
 126   2.0000      -0.578817       -15.7504
 127   2.0000      -0.574596       -15.6356
 128   2.0000      -0.568538       -15.4707
 129   2.0000      -0.559145       -15.2151
 130   2.0000      -0.550693       -14.9851
 131   2.0000      -0.547704       -14.9038
 132   2.0000      -0.543420       -14.7872
 133   2.0000      -0.542062       -14.7503
 134   2.0000      -0.539482       -14.6800
 135   2.0000      -0.534654       -14.5487
 136   2.0000      -0.528268       -14.3749
 137   2.0000      -0.521242       -14.1837
 138   2.0000      -0.518316       -14.1041
 139   2.0000      -0.514157       -13.9909
 140   2.0000      -0.511807       -13.9270
 141   2.0000      -0.510647       -13.8954
 142   2.0000      -0.510061       -13.8795
 143   2.0000      -0.503768       -13.7082
 144   2.0000      -0.500729       -13.6255
 145   2.0000      -0.495819       -13.4919
 146   2.0000      -0.493098       -13.4179
 147   2.0000      -0.482697       -13.1349
 148   2.0000      -0.478361       -13.0169
 149   2.0000      -0.466994       -12.7075
 150   2.0000      -0.465968       -12.6796
 151   2.0000      -0.457233       -12.4419
 152   2.0000      -0.450509       -12.2590
 153   2.0000      -0.445924       -12.1342
 154   2.0000      -0.441011       -12.0005
 155   2.0000      -0.428283       -11.6542
 156   2.0000      -0.424136       -11.5413
 157   2.0000      -0.414739       -11.2856
 158   2.0000      -0.407102       -11.0778
 159   2.0000      -0.387300       -10.5390
 160   2.0000      -0.385551       -10.4914
 161   2.0000      -0.378095       -10.2885
 162   2.0000      -0.371376       -10.1056
 163   2.0000      -0.358366        -9.7516
 164   2.0000      -0.354265        -9.6400
 165   2.0000      -0.340642        -9.2693
 166   2.0000      -0.337864        -9.1938
 167   2.0000      -0.326511        -8.8848
 168   2.0000      -0.322195        -8.7674
 169   2.0000      -0.305594        -8.3156
 170   2.0000      -0.299393        -8.1469
 171   2.0000      -0.285265        -7.7624
 172   2.0000      -0.280544        -7.6340
 173   2.0000      -0.262613        -7.1461
 174   2.0000      -0.242622        -6.6021
 175   2.0000      -0.190094        -5.1727
 176   2.0000      -0.180605        -4.9145
 177   2.0000      -0.077555        -2.1104
 178   2.0000      -0.058953        -1.6042
 179   0.0000       0.028221         0.7679
 180   0.0000       0.065622         1.7857
 181   0.0000       0.090943         2.4747
 182   0.0000       0.108230         2.9451
 183   0.0000       0.112000         3.0477

MULLIKEN ATOMIC CHARGES
-----------------------
   0 C :    0.214605
   1 N :   -0.456647
   2 C :   -0.071189
   3 N :   -0.338419
   4 C :   -0.056470
   5 N :   -0.563526
   6 C :   -0.115307
   7 N :   -0.340627
   8 C :    0.206498
   9 N :   -0.562557
  10 C :    0.118936
  11 N :   -0.438006
  12 C :   -0.074934
  13 N :   -0.430115
  14 C :    0.217521
  15 N :   -0.441407
  16 C :    0.231095
  17 C :   -0.127126
  18 C :   -0.156911
  19 C :    0.203430
  20 C :    0.214251
  21 C :   -0.088449
  22 C :   -0.089226
  23 C :   -0.040333
  24 C :    0.195251
  25 C :    0.114288
  26 C :   -0.082126
  27 C :    0.212435
  28 C :   -0.060894
  29 C :   -0.181703
  30 C :    0.245380
  31 C :    0.229831
  32 C :   -0.061375
  33 C :   -0.061912
  34 C :   -0.050080
  35 C :    0.225755
  36 C :    0.108648
  37 C :   -0.064388
  38 C :    0.232389
  39 C :   -0.058765
  40 C :   -0.181106
  41 C :    0.224465
  42 C :    0.197159
  43 C :   -0.072677
  44 C :   -0.090867
  45 C :   -0.061112
  46 C :    0.210015
  47 C :    0.115623
  48 C :   -0.067702
  49 C :    0.237722
  50 C :   -0.046706
  51 C :   -0.194497
  52 H :    0.038447
  53 H :   -0.017319
  54 H :    0.053096
  55 H :    0.036485
  56 H :    0.048699
  57 H :    0.048447
  58 H :    0.046488
  59 H :    0.000391
  60 H :    0.050139
  61 H :    0.170938
  62 H :    0.175591
  63 H :    0.056161
  64 H :   -0.004863
  65 H :    0.047000
  66 H :    0.056277
  67 H :    0.063149
  68 H :    0.057609
  69 H :    0.056977
  70 H :   -0.028993
  71 H :    0.045778
  72 H :    0.070440
  73 H :   -0.008149
  74 H :    0.059620
  75 H :    0.069745
  76 H :    0.074185
  77 H :    0.067389
  78 H :    0.066580
  79 H :   -0.015974
  80 H :    0.060307
  81 H :    0.053890
  82 H :   -0.025192
  83 H :    0.041149
  84 H :    0.053374
  85 H :    0.060193
  86 H :    0.055123
  87 H :    0.056853
  88 H :   -0.014852
  89 H :    0.046687
Sum of atomic charges:   -0.0000000

LOEWDIN ATOMIC CHARGES
----------------------
   0 C :   -0.018645
   1 N :    0.116228
   2 C :   -0.102535
   3 N :    0.183337
   4 C :   -0.012154
   5 N :   -0.131024
   6 C :   -0.039030
   7 N :    0.175396
   8 C :   -0.026080
   9 N :   -0.140530
  10 C :    0.023340
  11 N :    0.143091
  12 C :   -0.115433
  13 N :    0.164647
  14 C :   -0.027271
  15 N :    0.137730
  16 C :   -0.058388
  17 C :   -0.047603
  18 C :   -0.102991
  19 C :   -0.081438
  20 C :    0.005584
  21 C :   -0.122108
  22 C :    0.038671
  23 C :   -0.014857
  24 C :   -0.010948
  25 C :    0.030098
  26 C :   -0.108899
  27 C :   -0.116419
  28 C :   -0.026656
  29 C :   -0.098776
  30 C :   -0.031594
  31 C :    0.023634
  32 C :   -0.093607
  33 C :    0.079138
  34 C :   -0.014786
  35 C :    0.020348
  36 C :    0.034879
  37 C :   -0.094450
  38 C :   -0.049956
  39 C :   -0.018588
  40 C :   -0.108133
  41 C :   -0.093241
  42 C :   -0.010798
  43 C :   -0.099906
  44 C :    0.031692
  45 C :   -0.028308
  46 C :    0.000266
  47 C :    0.029258
  48 C :   -0.096137
  49 C :   -0.070198
  50 C :   -0.019198
  51 C :   -0.110022
  52 H :    0.023212
  53 H :    0.002735
  54 H :    0.039439
  55 H :    0.022801
  56 H :    0.021525
  57 H :    0.026617
  58 H :    0.026588
  59 H :    0.011548
  60 H :    0.037172
  61 H :    0.059976
  62 H :    0.061904
  63 H :    0.031126
  64 H :    0.008699
  65 H :    0.045825
  66 H :    0.029564
  67 H :    0.028581
  68 H :    0.031801
  69 H :    0.030582
  70 H :   -0.004315
  71 H :    0.043927
  72 H :    0.037335
  73 H :    0.007053
  74 H :    0.050409
  75 H :    0.036862
  76 H :    0.034411
  77 H :    0.035898
  78 H :    0.035541
  79 H :    0.003255
  80 H :    0.050262
  81 H :    0.028875
  82 H :   -0.002888
  83 H :    0.042193
  84 H :    0.029486
  85 H :    0.027046
  86 H :    0.029976
  87 H :    0.031238
  88 H :    0.002212
  89 H :    0.044897

  Mayer bond orders larger than 0.100000
B(  0-C ,  1-N ) :   1.0954 B(  0-C , 17-C ) :   1.7102 B(  0-C , 52-H ) :   0.9652
B(  1-N ,  8-C ) :   1.0837 B(  1-N , 10-C ) :   0.9784 B(  2-C , 12-C ) :   1.5009
B(  2-C , 16-C ) :   1.3609 B(  2-C , 53-H ) :   0.9752 B(  3-N , 14-C ) :   1.2187
B(  3-N , 16-C ) :   1.1891 B(  3-N , 61-H ) :   0.8993 B(  4-C ,  6-C ) :   1.2117
B(  4-C , 17-C ) :   1.2105 B(  4-C , 18-C ) :   1.4493 B(  5-N , 19-C ) :   1.4543
B(  5-N , 27-C ) :   1.3773 B(  6-C ,  8-C ) :   1.7149 B(  6-C , 54-H ) :   0.9461
B(  7-N , 30-C ) :   1.1943 B(  7-N , 38-C ) :   1.1914 B(  7-N , 62-H ) :   0.8967
B(  8-C , 55-H ) :   0.9668 B(  9-N , 41-C ) :   1.3926 B(  9-N , 49-C ) :   1.4277
B( 10-C , 56-H ) :   0.9770 B( 10-C , 57-H ) :   0.9831 B( 10-C , 58-H ) :   0.9835
B( 11-N , 20-C ) :   1.1320 B( 11-N , 24-C ) :   1.1094 B( 11-N , 25-C ) :   0.9593
B( 12-C , 14-C ) :   1.3577 B( 12-C , 59-H ) :   0.9694 B( 13-N , 31-C ) :   1.1600
B( 13-N , 35-C ) :   1.1559 B( 13-N , 36-C ) :   0.9426 B( 14-C , 18-C ) :   1.1251
B( 15-N , 42-C ) :   1.1068 B( 15-N , 46-C ) :   1.1221 B( 15-N , 47-C ) :   0.9621
B( 16-C , 51-C ) :   1.1697 B( 17-C , 60-H ) :   0.9458 B( 18-C , 19-C ) :   1.1256
B( 19-C , 21-C ) :   1.2480 B( 20-C , 28-C ) :   1.6266 B( 20-C , 63-H ) :   0.9702
B( 21-C , 26-C ) :   1.6024 B( 21-C , 64-H ) :   0.9679 B( 22-C , 23-C ) :   1.2907
B( 22-C , 28-C ) :   1.2662 B( 22-C , 29-C ) :   1.2219 B( 23-C , 24-C ) :   1.6181
B( 23-C , 65-H ) :   0.9704 B( 24-C , 66-H ) :   0.9695 B( 25-C , 67-H ) :   0.9760
B( 25-C , 68-H ) :   0.9828 B( 25-C , 69-H ) :   0.9823 B( 26-C , 27-C ) :   1.2445
B( 26-C , 70-H ) :   0.9694 B( 27-C , 29-C ) :   1.2109 B( 28-C , 71-H ) :   0.9719
B( 29-C , 30-C ) :   1.2449 B( 30-C , 32-C ) :   1.2798 B( 31-C , 39-C ) :   1.5909
B( 31-C , 72-H ) :   0.9682 B( 32-C , 37-C ) :   1.5795 B( 32-C , 73-H ) :   0.9785
B( 33-C , 34-C ) :   1.3062 B( 33-C , 39-C ) :   1.3008 B( 33-C , 40-C ) :   1.1795
B( 34-C , 35-C ) :   1.5876 B( 34-C , 74-H ) :   0.9696 B( 35-C , 75-H ) :   0.9682
B( 36-C , 76-H ) :   0.9767 B( 36-C , 77-H ) :   0.9816 B( 36-C , 78-H ) :   0.9824
B( 37-C , 38-C ) :   1.2847 B( 37-C , 79-H ) :   0.9766 B( 38-C , 40-C ) :   1.2336
B( 39-C , 80-H ) :   0.9706 B( 40-C , 41-C ) :   1.2485 B( 41-C , 43-C ) :   1.1880
B( 42-C , 50-C ) :   1.6354 B( 42-C , 81-H ) :   0.9697 B( 43-C , 48-C ) :   1.6642
B( 43-C , 82-H ) :   0.9721 B( 44-C , 45-C ) :   1.2623 B( 44-C , 50-C ) :   1.2700
B( 44-C , 51-C ) :   1.2646 B( 45-C , 46-C ) :   1.6365 B( 45-C , 83-H ) :   0.9718
B( 46-C , 84-H ) :   0.9701 B( 47-C , 85-H ) :   0.9762 B( 47-C , 86-H ) :   0.9829
B( 47-C , 87-H ) :   0.9825 B( 48-C , 49-C ) :   1.1915 B( 48-C , 88-H ) :   0.9749
B( 49-C , 51-C ) :   1.2395 B( 50-C , 89-H ) :   0.9709

MP2 TOTAL ENERGY:    -2130.874408848 Eh
FINAL SINGLE POINT ENERGY     -2130.874408847586

DIPOLE MOMENT
-------------
                                X             Y             Z
Electronic contribution:      2.44188      -4.23602      -0.06764
Nuclear contribution   :     -0.01430       0.17887       0.07808
                        -----------------------------------------
Total Dipole Moment    :      2.42758      -4.05715       0.01045
                        -----------------------------------------
Magnitude (a.u.)       :      4.72797
Magnitude (Debye)      :     12.01754

Rotational constants in cm-1:     0.001503     0.001477     0.000760
Rotational constants in MHz :    45.046353    44.267834    22.796110

                             ****ORCA TERMINATED NORMALLY****
TOTAL RUN TIME: 0 days 1 hours 5 minutes 17 seconds 403 msec
