                         Program Version 5.0.4 -  RELEASE  -
|  1> ! PAL2
|  2> ! mp2 cc-pvdz TightSCF  NoKeepInts
|  3>
|  4> %scf
|  5>   MaxCore 2000
|  6> end
|  7> %mp2
|  8>   MaxCore 2000
|  9> end
| 10> * xyz 0 1
| 11>    C       -3.11100         6.45100        -0.36000
| 12>    C        1.47400         4.04100         0.05700
| 13>    C       -2.80200         4.09300         0.04900
| 14>    C       -4.11800         4.05700         0.53600
| 15>    C       -4.88100         5.20800         0.55600
| 16>    C       -5.23100         7.59000         0.11600
| 17>    C        0.13200         4.30700         0.06100
| 18>    C       -0.56900         3.05600         0.04700
| 19>    C        1.64900         2.61800         0.02300
| 20>    C       -2.31000         5.32600        -0.40600
| 21>    N       -4.37500         6.38300         0.11600
| 22>    N        0.38800         2.06700         0.02500
| 23>    N       -2.01000         0.39500        -0.07500
| 24>    N       -0.38800        -2.07400        -0.02700
| 25>    N        2.01000        -0.40100         0.06500
| 26>    C       -1.96000         2.86100         0.02400
| 27>    C       -2.62300         1.61500        -0.01800
| 28>    C       -5.57300        -4.32900         1.06600
| 29>    C       -4.07300         1.47100         0.05600
| 30>    C       -4.10600        -2.75600        -0.02600
| 31>    C       -4.99500        -2.75700        -1.11100
| 32>    C       -6.13200        -3.54200        -1.07600
| 33>    C       -7.65100        -5.11300         0.04000
| 34>    C       -4.32400         0.14100         0.03700
| 35>    C       -3.02500        -0.52000        -0.04800
| 36>    C       -4.42200        -3.56600         1.07500
| 37>    N       -6.40700        -4.31300         0.00100
| 38>    C       -2.86700        -1.92200        -0.04000
| 39>    C       -1.65000        -2.62400        -0.02700
| 40>    C        3.56800        -6.14200        -1.04000
| 41>    C       -1.47600        -4.04900        -0.03400
| 42>    C        2.80300        -4.09900        -0.00800
| 43>    C        3.65700        -4.38400         1.06900
| 44>    C        4.42700        -5.53000         1.05900
| 45>    C        5.24500        -7.58800         0.01400
| 46>    C       -0.13400        -4.31500        -0.02200
| 47>    C        0.56800        -3.06400        -0.02700
| 48>    C        2.77500        -5.01200        -1.07400
| 49>    N        4.37600        -6.39100         0.01700
| 50>    C        1.95900        -2.86900        -0.00900
| 51>    C        2.62100        -1.62200         0.00900
| 52>    C        5.54300         4.33900        -1.13000
| 53>    C        4.07000        -1.47900        -0.09400
| 54>    C        4.10400         2.75100        -0.02100
| 55>    C        5.02700         2.72900         1.03600
| 56>    C        6.16600         3.50900         0.97800
| 57>    C        7.61900         5.15300        -0.11500
| 58>    C        4.32100        -0.14800        -0.09200
| 59>    C        3.02500         0.51400         0.01500
| 60>    C        4.38700         3.58200        -1.11500
| 61>    C        2.86600         1.91600         0.01300
| 62>    N        6.41300         4.29600        -0.09500
| 63>    H       -2.76900         7.42500        -0.68800
| 64>    H        2.27400         4.76600         0.08100
| 65>    H       -4.55700         3.13300         0.89200
| 66>    H       -5.90200         5.22800         0.91400
| 67>    H       -5.81200         7.61400        -0.80800
| 68>    H       -5.89800         7.54700         0.97700
| 69>    H       -4.59400         8.47100         0.18100
| 70>    H       -0.33200         5.28200         0.06900
| 71>    H       -1.29800         5.42200        -0.78000
| 72>    H        0.18200         1.07200         0.00500
| 73>    H       -0.18300        -1.08000        -0.02100
| 74>    H       -5.86400        -4.96200         1.89500
| 75>    H       -4.79400         2.27200         0.13900
| 76>    H       -4.80000        -2.16000        -1.99400
| 77>    H       -6.84100        -3.58200        -1.89300
| 78>    H       -8.42800        -4.53600         0.54600
| 79>    H       -7.95600        -5.33700        -0.98100
| 80>    H       -7.45600        -6.03700         0.58400
| 81>    H       -5.28700        -0.34400         0.10000
| 82>    H       -3.78000        -3.60100         1.94700
| 83>    H        3.58700        -6.86800        -1.84300
| 84>    H       -2.27600        -4.77400        -0.05000
| 85>    H        3.71400        -3.72400         1.92600
| 86>    H        5.09200        -5.79500         1.87100
| 87>    H        6.20500        -7.32900        -0.43900
| 88>    H        5.39300        -7.91700         1.04200
| 89>    H        4.75900        -8.37300        -0.56400
| 90>    H        0.32900        -5.29000        -0.00800
| 91>    H        2.14600        -4.84200        -1.94000
| 92>    H        5.80800         4.98600        -1.95600
| 93>    H        4.78800        -2.28100        -0.18500
| 94>    H        4.86000         2.11400         1.91200
| 95>    H        6.90100         3.53100         1.77200
| 96>    H        7.38300         6.10900         0.35600
| 97>    H        8.41400         4.65200         0.43500
| 98>    H        7.92100         5.31000        -1.15000
| 99>    H        5.28300         0.33600        -0.17900
|100>    H        3.72000         3.63200        -1.96700
|101> *
|102>
|103>                          ****END OF INPUT****

CARTESIAN COORDINATES (ANGSTROEM)
---------------------------------
  C     -3.111000    6.451000   -0.360000
  C      1.474000    4.041000    0.057000
  C     -2.802000    4.093000    0.049000
  C     -4.118000    4.057000    0.536000
  C     -4.881000    5.208000    0.556000
  C     -5.231000    7.590000    0.116000
  C      0.132000    4.307000    0.061000
  C     -0.569000    3.056000    0.047000
  C      1.649000    2.618000    0.023000
  C     -2.310000    5.326000   -0.406000
  N     -4.375000    6.383000    0.116000
  N      0.388000    2.067000    0.025000
  N     -2.010000    0.395000   -0.075000
  N     -0.388000   -2.074000   -0.027000
  N      2.010000   -0.401000    0.065000
  C     -1.960000    2.861000    0.024000
  C     -2.623000    1.615000   -0.018000
  C     -5.573000   -4.329000    1.066000
  C     -4.073000    1.471000    0.056000
  C     -4.106000   -2.756000   -0.026000
  C     -4.995000   -2.757000   -1.111000
  C     -6.132000   -3.542000   -1.076000
  C     -7.651000   -5.113000    0.040000
  C     -4.324000    0.141000    0.037000
  C     -3.025000   -0.520000   -0.048000
  C     -4.422000   -3.566000    1.075000
  N     -6.407000   -4.313000    0.001000
  C     -2.867000   -1.922000   -0.040000
  C     -1.650000   -2.624000   -0.027000
  C      3.568000   -6.142000   -1.040000
  C     -1.476000   -4.049000   -0.034000
  C      2.803000   -4.099000   -0.008000
  C      3.657000   -4.384000    1.069000
  C      4.427000   -5.530000    1.059000
  C      5.245000   -7.588000    0.014000
  C     -0.134000   -4.315000   -0.022000
  C      0.568000   -3.064000   -0.027000
  C      2.775000   -5.012000   -1.074000
  N      4.376000   -6.391000    0.017000
  C      1.959000   -2.869000   -0.009000
  C      2.621000   -1.622000    0.009000
  C      5.543000    4.339000   -1.130000
  C      4.070000   -1.479000   -0.094000
  C      4.104000    2.751000   -0.021000
  C      5.027000    2.729000    1.036000
  C      6.166000    3.509000    0.978000
  C      7.619000    5.153000   -0.115000
  C      4.321000   -0.148000   -0.092000
  C      3.025000    0.514000    0.015000
  C      4.387000    3.582000   -1.115000
  C      2.866000    1.916000    0.013000
  N      6.413000    4.296000   -0.095000
  H     -2.769000    7.425000   -0.688000
  H      2.274000    4.766000    0.081000
  H     -4.557000    3.133000    0.892000
  H     -5.902000    5.228000    0.914000
  H     -5.812000    7.614000   -0.808000
  H     -5.898000    7.547000    0.977000
  H     -4.594000    8.471000    0.181000
  H     -0.332000    5.282000    0.069000
  H     -1.298000    5.422000   -0.780000
  H      0.182000    1.072000    0.005000
  H     -0.183000   -1.080000   -0.021000
  H     -5.864000   -4.962000    1.895000
  H     -4.794000    2.272000    0.139000
  H     -4.800000   -2.160000   -1.994000
  H     -6.841000   -3.582000   -1.893000
  H     -8.428000   -4.536000    0.546000
  H     -7.956000   -5.337000   -0.981000
  H     -7.456000   -6.037000    0.584000
  H     -5.287000   -0.344000    0.100000
  H     -3.780000   -3.601000    1.947000
  H      3.587000   -6.868000   -1.843000
  H     -2.276000   -4.774000   -0.050000
  H      3.714000   -3.724000    1.926000
  H      5.092000   -5.795000    1.871000
  H      6.205000   -7.329000   -0.439000
  H      5.393000   -7.917000    1.042000
  H      4.759000   -8.373000   -0.564000
  H      0.329000   -5.290000   -0.008000
  H      2.146000   -4.842000   -1.940000
  H      5.808000    4.986000   -1.956000
  H      4.788000   -2.281000   -0.185000
  H      4.860000    2.114000    1.912000
  H      6.901000    3.531000    1.772000
  H      7.383000    6.109000    0.356000
  H      8.414000    4.652000    0.435000
  H      7.921000    5.310000   -1.150000
  H      5.283000    0.336000   -0.179000
  H      3.720000    3.632000   -1.967000

 Total Charge           Charge          ....    0
 Multiplicity           Mult            ....    1
 Number of Electrons    NEL             ....  358
 Basis Dimension        Dim             ....  918

ORBITAL ENERGIES
----------------

  NO   OCC          E(Eh)            E(eV)
   0   2.0000     -15.676615      -426.5824
   1   2.0000     -15.633634      -425.4128
   2   2.0000     -15.631840      -425.3640
   3   2.0000     -15.589833      -424.2209
   4   2.0000     -15.524778      -422.4507
   5   2.0000     -15.515983      -422.2114
   6   2.0000     -15.453350      -420.5070
   7   2.0000     -15.440419      -420.1551
   8   2.0000     -11.326799      -308.2179
   9   2.0000     -11.325975      -308.1954
  10   2.0000     -11.325690      -308.1877
  11   2.0000     -11.299115      -307.4645
  12   2.0000     -11.298356      -307.4439
  13   2.0000     -11.292568      -307.2864
  14   2.0000     -11.291020      -307.2443
  15   2.0000     -11.286737      -307.1277
  16   2.0000     -11.286424      -307.1192
  17   2.0000     -11.279074      -306.9192
  18   2.0000     -11.271747      -306.7198
  19   2.0000     -11.261168      -306.4320
  20   2.0000     -11.260187      -306.4053
  21   2.0000     -11.254714      -306.2563
  22   2.0000     -11.251973      -306.1817
  23   2.0000     -11.237366      -305.7843
  24   2.0000     -11.236599      -305.7634
  25   2.0000     -11.230924      -305.6090
  26   2.0000     -11.230118      -305.5870
  27   2.0000     -11.229765      -305.5774
  28   2.0000     -11.229647      -305.5742
  29   2.0000     -11.210201      -305.0451
  30   2.0000     -11.208939      -305.0107
  31   2.0000     -11.197375      -304.6961
  32   2.0000     -11.190574      -304.5110
  33   2.0000     -11.190210      -304.5011
  34   2.0000     -11.188837      -304.4637
  35   2.0000     -11.187425      -304.4253
  36   2.0000     -11.187162      -304.4182
  37   2.0000     -11.186154      -304.3907
  38   2.0000     -11.183466      -304.3176
  39   2.0000     -11.173499      -304.0464
  40   2.0000     -11.171955      -304.0044
  41   2.0000     -11.170806      -303.9731
  42   2.0000     -11.167547      -303.8844
  43   2.0000     -11.160738      -303.6991
  44   2.0000     -11.160410      -303.6902
  45   2.0000     -11.157575      -303.6130
  46   2.0000     -11.155836      -303.5657
  47   2.0000     -11.155505      -303.5567
  48   2.0000     -11.147723      -303.3450
  49   2.0000     -11.137630      -303.0703
  50   2.0000     -11.130554      -302.8778
  51   2.0000     -11.119233      -302.5697
  52   2.0000      -1.357686       -36.9445
  53   2.0000      -1.320932       -35.9444
  54   2.0000      -1.319620       -35.9087
  55   2.0000      -1.283329       -34.9212
  56   2.0000      -1.225575       -33.3496
  57   2.0000      -1.210475       -32.9387
  58   2.0000      -1.172681       -31.9103
  59   2.0000      -1.151147       -31.3243
  60   2.0000      -1.141423       -31.0597
  61   2.0000      -1.110139       -30.2084
  62   2.0000      -1.108822       -30.1726
  63   2.0000      -1.079580       -29.3769
  64   2.0000      -1.079250       -29.3679
  65   2.0000      -1.045130       -28.4394
  66   2.0000      -1.044291       -28.4166
  67   2.0000      -1.039619       -28.2895
  68   2.0000      -1.014657       -27.6102
  69   2.0000      -1.013190       -27.5703
  70   2.0000      -1.009424       -27.4678
  71   2.0000      -0.992955       -27.0197
  72   2.0000      -0.986431       -26.8421
  73   2.0000      -0.980664       -26.6852
  74   2.0000      -0.972407       -26.4605
  75   2.0000      -0.961537       -26.1648
  76   2.0000      -0.953962       -25.9586
  77   2.0000      -0.946045       -25.7432
  78   2.0000      -0.935471       -25.4555
  79   2.0000      -0.918410       -24.9912
  80   2.0000      -0.908248       -24.7147
  81   2.0000      -0.894925       -24.3522
  82   2.0000      -0.875278       -23.8175
  83   2.0000      -0.871756       -23.7217
  84   2.0000      -0.869907       -23.6714
  85   2.0000      -0.857830       -23.3427
  86   2.0000      -0.841713       -22.9042
  87   2.0000      -0.835541       -22.7362
  88   2.0000      -0.825232       -22.4557
  89   2.0000      -0.797370       -21.6975
  90   2.0000      -0.790562       -21.5123
  91   2.0000      -0.752544       -20.4778
  92   2.0000      -0.747499       -20.3405
  93   2.0000      -0.733048       -19.9473
  94   2.0000      -0.725179       -19.7331
  95   2.0000      -0.722215       -19.6525
  96   2.0000      -0.716934       -19.5088
  97   2.0000      -0.713485       -19.4149
  98   2.0000      -0.709260       -19.2999
  99   2.0000      -0.697294       -18.9743
 100   2.0000      -0.696359       -18.9489
 101   2.0000      -0.686694       -18.6859
 102   2.0000      -0.682959       -18.5843
 103   2.0000      -0.682234       -18.5645
 104   2.0000      -0.678270       -18.4567
 105   2.0000      -0.673941       -18.3389
 106   2.0000      -0.670839       -18.2544
 107   2.0000      -0.660365       -17.9695
 108   2.0000      -0.657262       -17.8850
 109   2.0000      -0.652852       -17.7650
 110   2.0000      -0.651567       -17.7300
 111   2.0000      -0.644118       -17.5273
 112   2.0000      -0.643785       -17.5183
 113   2.0000      -0.638521       -17.3750
 114   2.0000      -0.637472       -17.3465
 115   2.0000      -0.628078       -17.0909
 116   2.0000      -0.623492       -16.9661
 117   2.0000      -0.620565       -16.8864
 118   2.0000      -0.612653       -16.6711
 119   2.0000      -0.612076       -16.6554
 120   2.0000      -0.611483       -16.6393
 121   2.0000      -0.609293       -16.5797
 122   2.0000      -0.600780       -16.3481
 123   2.0000      -0.586810       -15.9679
 124   2.0000      -0.581466       -15.8225
 125   2.0000      -0.580714       -15.8020
 126   2.0000      -0.579646       -15.7730
 127   2.0000      -0.572671       -15.5832
 128   2.0000      -0.568607       -15.4726
 129   2.0000      -0.559497       -15.2247
 130   2.0000      -0.551896       -15.0178
 131   2.0000      -0.547530       -14.8991
 132   2.0000      -0.542067       -14.7504
 133   2.0000      -0.541806       -14.7433
 134   2.0000      -0.538169       -14.6443
 135   2.0000      -0.535989       -14.5850
 136   2.0000      -0.529530       -14.4092
 137   2.0000      -0.521106       -14.1800
 138   2.0000      -0.516678       -14.0595
 139   2.0000      -0.514377       -13.9969
 140   2.0000      -0.512495       -13.9457
 141   2.0000      -0.511184       -13.9100
 142   2.0000      -0.508928       -13.8486
 143   2.0000      -0.504355       -13.7242
 144   2.0000      -0.502046       -13.6614
 145   2.0000      -0.496553       -13.5119
 146   2.0000      -0.491252       -13.3676
 147   2.0000      -0.482815       -13.1381
 148   2.0000      -0.479021       -13.0348
 149   2.0000      -0.466870       -12.7042
 150   2.0000      -0.466401       -12.6914
 151   2.0000      -0.457194       -12.4409
 152   2.0000      -0.451150       -12.2764
 153   2.0000      -0.444895       -12.1062
 154   2.0000      -0.440339       -11.9822
 155   2.0000      -0.428154       -11.6507
 156   2.0000      -0.421964       -11.4822
 157   2.0000      -0.408017       -11.1027
 158   2.0000      -0.401031       -10.9126
 159   2.0000      -0.388356       -10.5677
 160   2.0000      -0.385595       -10.4926
 161   2.0000      -0.378490       -10.2992
 162   2.0000      -0.370057       -10.0698
 163   2.0000      -0.356458        -9.6997
 164   2.0000      -0.355829        -9.6826
 165   2.0000      -0.341337        -9.2882
 166   2.0000      -0.337595        -9.1864
 167   2.0000      -0.325263        -8.8509
 168   2.0000      -0.322858        -8.7854
 169   2.0000      -0.304572        -8.2878
 170   2.0000      -0.299634        -8.1534
 171   2.0000      -0.285596        -7.7715
 172   2.0000      -0.280586        -7.6351
 173   2.0000      -0.263425        -7.1682
 174   2.0000      -0.241890        -6.5822
 175   2.0000      -0.189906        -5.1676
 176   2.0000      -0.180480        -4.9111
 177   2.0000      -0.077297        -2.1033
 178   2.0000      -0.058968        -1.6046
 179   0.0000       0.028388         0.7725
 180   0.0000       0.065835         1.7915
 181   0.0000       0.090803         2.4709
 182   0.0000       0.108287         2.9466
 183   0.0000       0.112241         3.0542

MULLIKEN ATOMIC CHARGES
-----------------------
   0 C :    0.211565
   1 N :   -0.455392
   2 C :   -0.068747
   3 N :   -0.338604
   4 C :   -0.049610
   5 N :   -0.565856
   6 C :   -0.110053
   7 N :   -0.340512
   8 C :    0.207875
   9 N :   -0.562177
  10 C :    0.119422
  11 N :   -0.438529
  12 C :   -0.076749
  13 N :   -0.430143
  14 C :    0.229272
  15 N :   -0.440918
  16 C :    0.228780
  17 C :   -0.121264
  18 C :   -0.190068
  19 C :    0.221550
  20 C :    0.212953
  21 C :   -0.084810
  22 C :   -0.091242
  23 C :   -0.039972
  24 C :    0.194000
  25 C :    0.114649
  26 C :   -0.086140
  27 C :    0.213649
  28 C :   -0.061331
  29 C :   -0.180903
  30 C :    0.245727
  31 C :    0.228808
  32 C :   -0.062049
  33 C :   -0.061711
  34 C :   -0.051219
  35 C :    0.226940
  36 C :    0.108631
  37 C :   -0.064372
  38 C :    0.231322
  39 C :   -0.057772
  40 C :   -0.181786
  41 C :    0.225855
  42 C :    0.197759
  43 C :   -0.072312
  44 C :   -0.089363
  45 C :   -0.060921
  46 C :    0.211327
  47 C :    0.115332
  48 C :   -0.067221
  49 C :    0.238306
  50 C :   -0.046745
  51 C :   -0.192155
  52 H :    0.038100
  53 H :   -0.017218
  54 H :    0.050864
  55 H :    0.036952
  56 H :    0.049497
  57 H :    0.047922
  58 H :    0.047182
  59 H :   -0.000492
  60 H :    0.046735
  61 H :    0.171227
  62 H :    0.175304
  63 H :    0.055051
  64 H :   -0.012665
  65 H :    0.047151
  66 H :    0.055591
  67 H :    0.062195
  68 H :    0.057163
  69 H :    0.056307
  70 H :   -0.029981
  71 H :    0.044589
  72 H :    0.070408
  73 H :   -0.008232
  74 H :    0.059546
  75 H :    0.069826
  76 H :    0.074121
  77 H :    0.067389
  78 H :    0.066705
  79 H :   -0.016473
  80 H :    0.060475
  81 H :    0.054341
  82 H :   -0.024668
  83 H :    0.042161
  84 H :    0.054313
  85 H :    0.060937
  86 H :    0.055681
  87 H :    0.057225
  88 H :   -0.014739
  89 H :    0.046436
Sum of atomic charges:   -0.0000000

LOEWDIN ATOMIC CHARGES
----------------------
   0 C :   -0.019566
   1 N :    0.118583
   2 C :   -0.101338
   3 N :    0.183248
   4 C :   -0.010212
   5 N :   -0.133366
   6 C :   -0.034650
   7 N :    0.175439
   8 C :   -0.022956
   9 N :   -0.140429
  10 C :    0.023869
  11 N :    0.141675
  12 C :   -0.116427
  13 N :    0.164640
  14 C :   -0.024035
  15 N :    0.138946
  16 C :   -0.059745
  17 C :   -0.045405
  18 C :   -0.105718
  19 C :   -0.079384
  20 C :    0.004052
  21 C :   -0.121718
  22 C :    0.036451
  23 C :   -0.014811
  24 C :   -0.012354
  25 C :    0.029752
  26 C :   -0.108565
  27 C :   -0.115749
  28 C :   -0.027481
  29 C :   -0.100368
  30 C :   -0.030350
  31 C :    0.022749
  32 C :   -0.094818
  33 C :    0.079166
  34 C :   -0.015496
  35 C :    0.021422
  36 C :    0.034885
  37 C :   -0.094452
  38 C :   -0.051882
  39 C :   -0.017961
  40 C :   -0.108358
  41 C :   -0.091122
  42 C :   -0.010064
  43 C :   -0.099400
  44 C :    0.033689
  45 C :   -0.027743
  46 C :    0.001764
  47 C :    0.029540
  48 C :   -0.095134
  49 C :   -0.070483
  50 C :   -0.019056
  51 C :   -0.108464
  52 H :    0.023176
  53 H :    0.002818
  54 H :    0.032118
  55 H :    0.022936
  56 H :    0.021798
  57 H :    0.026545
  58 H :    0.026923
  59 H :    0.010992
  60 H :    0.034641
  61 H :    0.060106
  62 H :    0.061767
  63 H :    0.030607
  64 H :    0.004916
  65 H :    0.045884
  66 H :    0.029235
  67 H :    0.028110
  68 H :    0.031593
  69 H :    0.030260
  70 H :   -0.004631
  71 H :    0.043396
  72 H :    0.037281
  73 H :    0.007017
  74 H :    0.050312
  75 H :    0.036947
  76 H :    0.034388
  77 H :    0.035899
  78 H :    0.035591
  79 H :    0.003023
  80 H :    0.050386
  81 H :    0.029078
  82 H :   -0.002634
  83 H :    0.042634
  84 H :    0.029930
  85 H :    0.027416
  86 H :    0.030243
  87 H :    0.031411
  88 H :    0.002263
  89 H :    0.044814

  Mayer bond orders larger than 0.100000
B(  0-C ,  1-N ) :   1.0964 B(  0-C , 17-C ) :   1.7046 B(  0-C , 52-H ) :   0.9659
B(  1-N ,  8-C ) :   1.0881 B(  1-N , 10-C ) :   0.9773 B(  2-C , 12-C ) :   1.5018
B(  2-C , 16-C ) :   1.3609 B(  2-C , 53-H ) :   0.9744 B(  3-N , 14-C ) :   1.2199
B(  3-N , 16-C ) :   1.1867 B(  3-N , 61-H ) :   0.8990 B(  4-C ,  6-C ) :   1.2117
B(  4-C , 17-C ) :   1.2135 B(  4-C , 18-C ) :   1.4495 B(  5-N , 19-C ) :   1.4537
B(  5-N , 27-C ) :   1.3766 B(  6-C ,  8-C ) :   1.7127 B(  6-C , 54-H ) :   0.9333
B(  7-N , 30-C ) :   1.1959 B(  7-N , 38-C ) :   1.1901 B(  7-N , 62-H ) :   0.8969
B(  8-C , 55-H ) :   0.9657 B(  9-N , 41-C ) :   1.3951 B(  9-N , 49-C ) :   1.4247
B( 10-C , 56-H ) :   0.9773 B( 10-C , 57-H ) :   0.9822 B( 10-C , 58-H ) :   0.9843
B( 11-N , 20-C ) :   1.1302 B( 11-N , 24-C ) :   1.1071 B( 11-N , 25-C ) :   0.9604
B( 12-C , 14-C ) :   1.3562 B( 12-C , 59-H ) :   0.9664 B( 13-N , 31-C ) :   1.1587
B( 13-N , 35-C ) :   1.1574 B( 13-N , 36-C ) :   0.9426 B( 14-C , 18-C ) :   1.1266
B( 15-N , 42-C ) :   1.1083 B( 15-N , 46-C ) :   1.1239 B( 15-N , 47-C ) :   0.9612
B( 16-C , 51-C ) :   1.1705 B( 17-C , 60-H ) :   0.9444 B( 18-C , 19-C ) :   1.1288
B( 19-C , 21-C ) :   1.2491 B( 20-C , 28-C ) :   1.6290 B( 20-C , 63-H ) :   0.9703
B( 21-C , 26-C ) :   1.5953 B( 21-C , 64-H ) :   0.9553 B( 22-C , 23-C ) :   1.2885
B( 22-C , 28-C ) :   1.2638 B( 22-C , 29-C ) :   1.2258 B( 23-C , 24-C ) :   1.6208
B( 23-C , 65-H ) :   0.9703 B( 24-C , 66-H ) :   0.9695 B( 25-C , 67-H ) :   0.9760
B( 25-C , 68-H ) :   0.9828 B( 25-C , 69-H ) :   0.9823 B( 26-C , 27-C ) :   1.2501
B( 26-C , 70-H ) :   0.9697 B( 27-C , 29-C ) :   1.2091 B( 28-C , 71-H ) :   0.9720
B( 29-C , 30-C ) :   1.2432 B( 30-C , 32-C ) :   1.2818 B( 31-C , 39-C ) :   1.5906
B( 31-C , 72-H ) :   0.9682 B( 32-C , 37-C ) :   1.5769 B( 32-C , 73-H ) :   0.9786
B( 33-C , 34-C ) :   1.3048 B( 33-C , 39-C ) :   1.3018 B( 33-C , 40-C ) :   1.1809
B( 34-C , 35-C ) :   1.5882 B( 34-C , 74-H ) :   0.9697 B( 35-C , 75-H ) :   0.9682
B( 36-C , 76-H ) :   0.9767 B( 36-C , 77-H ) :   0.9816 B( 36-C , 78-H ) :   0.9824
B( 37-C , 38-C ) :   1.2873 B( 37-C , 79-H ) :   0.9765 B( 38-C , 40-C ) :   1.2317
B( 39-C , 80-H ) :   0.9706 B( 40-C , 41-C ) :   1.2490 B( 41-C , 43-C ) :   1.1857
B( 42-C , 50-C ) :   1.6328 B( 42-C , 81-H ) :   0.9697 B( 43-C , 48-C ) :   1.6670
B( 43-C , 82-H ) :   0.9722 B( 44-C , 45-C ) :   1.2642 B( 44-C , 50-C ) :   1.2724
B( 44-C , 51-C ) :   1.2596 B( 45-C , 46-C ) :   1.6343 B( 45-C , 83-H ) :   0.9718
B( 46-C , 84-H ) :   0.9700 B( 47-C , 85-H ) :   0.9762 B( 47-C , 86-H ) :   0.9829
B( 47-C , 87-H ) :   0.9824 B( 48-C , 49-C ) :   1.1892 B( 48-C , 88-H ) :   0.9748
B( 49-C , 51-C ) :   1.2428 B( 50-C , 89-H ) :   0.9709

MP2 TOTAL ENERGY:    -2130.854863842 Eh
FINAL SINGLE POINT ENERGY     -2130.854863842008

DIPOLE MOMENT
-------------
                                X             Y             Z
Electronic contribution:      2.69313      -4.01513      -0.10993
Nuclear contribution   :     -0.04826       0.15416       0.12837
                        -----------------------------------------
Total Dipole Moment    :      2.64487      -3.86097       0.01844
                        -----------------------------------------
Magnitude (a.u.)       :      4.68004
Magnitude (Debye)      :     11.89573

Rotational constants in cm-1:     0.001502     0.001477     0.000760
Rotational constants in MHz :    45.042579    44.282081    22.793594

                             ****ORCA TERMINATED NORMALLY****
TOTAL RUN TIME: 0 days 1 hours 35 minutes 25 seconds 935 msec
