                         Program Version 5.0.4 -  RELEASE  -
|  1> ! PAL2
|  2> ! mp2 cc-pvdz TightSCF  NoKeepInts
|  3>
|  4> %scf
|  5>   MaxCore 2000
|  6> end
|  7> %mp2
|  8>   MaxCore 2000
|  9> end
| 10> * xyz 0 1
| 11>    C       -3.05500         6.48500        -0.14600
| 12>    C        1.47400         4.04100         0.05700
| 13>    C       -2.80200         4.09300         0.04900
| 14>    C       -4.17800         4.02100         0.31500
| 15>    C       -4.94100         5.17100         0.34000
| 16>    C       -5.23000         7.59100         0.11000
| 17>    C        0.13200         4.30700         0.06100
| 18>    C       -0.56900         3.05600         0.04700
| 19>    C        1.64900         2.61800         0.02300
| 20>    C       -2.25100         5.36200        -0.18600
| 21>    N       -4.37800         6.38100         0.11500
| 22>    N        0.38800         2.06700         0.02500
| 23>    N       -2.01000         0.39500        -0.07500
| 24>    N       -0.38800        -2.07400        -0.02700
| 25>    N        2.01000        -0.40100         0.06500
| 26>    C       -1.96000         2.86100         0.02400
| 27>    C       -2.62300         1.61500        -0.01800
| 28>    C       -5.57300        -4.32900         1.06600
| 29>    C       -4.07300         1.47100         0.05600
| 30>    C       -4.10600        -2.75600        -0.02600
| 31>    C       -4.99500        -2.75700        -1.11100
| 32>    C       -6.13200        -3.54200        -1.07600
| 33>    C       -7.65100        -5.11300         0.04000
| 34>    C       -4.32400         0.14100         0.03700
| 35>    C       -3.02500        -0.52000        -0.04800
| 36>    C       -4.42200        -3.56600         1.07500
| 37>    N       -6.40700        -4.31300         0.00100
| 38>    C       -2.86700        -1.92200        -0.04000
| 39>    C       -1.65000        -2.62400        -0.02700
| 40>    C        3.56800        -6.14200        -1.04000
| 41>    C       -1.47600        -4.04900        -0.03400
| 42>    C        2.80300        -4.09900        -0.00800
| 43>    C        3.65700        -4.38400         1.06900
| 44>    C        4.42700        -5.53000         1.05900
| 45>    C        5.24500        -7.58800         0.01400
| 46>    C       -0.13400        -4.31500        -0.02200
| 47>    C        0.56800        -3.06400        -0.02700
| 48>    C        2.77500        -5.01200        -1.07400
| 49>    N        4.37600        -6.39100         0.01700
| 50>    C        1.95900        -2.86900        -0.00900
| 51>    C        2.62100        -1.62200         0.00900
| 52>    C        5.54300         4.33900        -1.13000
| 53>    C        4.07000        -1.47900        -0.09400
| 54>    C        4.10400         2.75100        -0.02100
| 55>    C        5.02700         2.72900         1.03600
| 56>    C        6.16600         3.50900         0.97800
| 57>    C        7.61900         5.15300        -0.11500
| 58>    C        4.32100        -0.14800        -0.09200
| 59>    C        3.02500         0.51400         0.01500
| 60>    C        4.38700         3.58200        -1.11500
| 61>    C        2.86600         1.91600         0.01300
| 62>    N        6.41300         4.29600        -0.09500
| 63>    H       -2.67100         7.48500        -0.30900
| 64>    H        2.27400         4.76600         0.08100
| 65>    H       -4.66300         3.06900         0.49500
| 66>    H       -6.00600         5.16400         0.53200
| 67>    H       -5.65700         7.72100        -0.88700
| 68>    H       -6.02400         7.46300         0.84500
| 69>    H       -4.61600         8.45300         0.36900
| 70>    H       -0.33200         5.28200         0.06900
| 71>    H       -1.19300         5.48500        -0.38400
| 72>    H        0.18200         1.07200         0.00500
| 73>    H       -0.18300        -1.08000        -0.02100
| 74>    H       -5.86400        -4.96200         1.89500
| 75>    H       -4.79400         2.27200         0.13900
| 76>    H       -4.80000        -2.16000        -1.99400
| 77>    H       -6.84100        -3.58200        -1.89300
| 78>    H       -8.42800        -4.53600         0.54600
| 79>    H       -7.95600        -5.33700        -0.98100
| 80>    H       -7.45600        -6.03700         0.58400
| 81>    H       -5.28700        -0.34400         0.10000
| 82>    H       -3.78000        -3.60100         1.94700
| 83>    H        3.58700        -6.86800        -1.84300
| 84>    H       -2.27600        -4.77400        -0.05000
| 85>    H        3.71400        -3.72400         1.92600
| 86>    H        5.09200        -5.79500         1.87100
| 87>    H        6.20500        -7.32900        -0.43900
| 88>    H        5.39300        -7.91700         1.04200
| 89>    H        4.75900        -8.37300        -0.56400
| 90>    H        0.32900        -5.29000        -0.00800
| 91>    H        2.14600        -4.84200        -1.94000
| 92>    H        5.80800         4.98600        -1.95600
| 93>    H        4.78800        -2.28100        -0.18500
| 94>    H        4.86000         2.11400         1.91200
| 95>    H        6.90100         3.53100         1.77200
| 96>    H        7.38300         6.10900         0.35600
| 97>    H        8.41400         4.65200         0.43500
| 98>    H        7.92100         5.31000        -1.15000
| 99>    H        5.28300         0.33600        -0.17900
|100>    H        3.72000         3.63200        -1.96700
|101> *
|102>
|103>                          ****END OF INPUT****

CARTESIAN COORDINATES (ANGSTROEM)
---------------------------------
  C     -3.055000    6.485000   -0.146000
  C      1.474000    4.041000    0.057000
  C     -2.802000    4.093000    0.049000
  C     -4.178000    4.021000    0.315000
  C     -4.941000    5.171000    0.340000
  C     -5.230000    7.591000    0.110000
  C      0.132000    4.307000    0.061000
  C     -0.569000    3.056000    0.047000
  C      1.649000    2.618000    0.023000
  C     -2.251000    5.362000   -0.186000
  N     -4.378000    6.381000    0.115000
  N      0.388000    2.067000    0.025000
  N     -2.010000    0.395000   -0.075000
  N     -0.388000   -2.074000   -0.027000
  N      2.010000   -0.401000    0.065000
  C     -1.960000    2.861000    0.024000
  C     -2.623000    1.615000   -0.018000
  C     -5.573000   -4.329000    1.066000
  C     -4.073000    1.471000    0.056000
  C     -4.106000   -2.756000   -0.026000
  C     -4.995000   -2.757000   -1.111000
  C     -6.132000   -3.542000   -1.076000
  C     -7.651000   -5.113000    0.040000
  C     -4.324000    0.141000    0.037000
  C     -3.025000   -0.520000   -0.048000
  C     -4.422000   -3.566000    1.075000
  N     -6.407000   -4.313000    0.001000
  C     -2.867000   -1.922000   -0.040000
  C     -1.650000   -2.624000   -0.027000
  C      3.568000   -6.142000   -1.040000
  C     -1.476000   -4.049000   -0.034000
  C      2.803000   -4.099000   -0.008000
  C      3.657000   -4.384000    1.069000
  C      4.427000   -5.530000    1.059000
  C      5.245000   -7.588000    0.014000
  C     -0.134000   -4.315000   -0.022000
  C      0.568000   -3.064000   -0.027000
  C      2.775000   -5.012000   -1.074000
  N      4.376000   -6.391000    0.017000
  C      1.959000   -2.869000   -0.009000
  C      2.621000   -1.622000    0.009000
  C      5.543000    4.339000   -1.130000
  C      4.070000   -1.479000   -0.094000
  C      4.104000    2.751000   -0.021000
  C      5.027000    2.729000    1.036000
  C      6.166000    3.509000    0.978000
  C      7.619000    5.153000   -0.115000
  C      4.321000   -0.148000   -0.092000
  C      3.025000    0.514000    0.015000
  C      4.387000    3.582000   -1.115000
  C      2.866000    1.916000    0.013000
  N      6.413000    4.296000   -0.095000
  H     -2.671000    7.485000   -0.309000
  H      2.274000    4.766000    0.081000
  H     -4.663000    3.069000    0.495000
  H     -6.006000    5.164000    0.532000
  H     -5.657000    7.721000   -0.887000
  H     -6.024000    7.463000    0.845000
  H     -4.616000    8.453000    0.369000
  H     -0.332000    5.282000    0.069000
  H     -1.193000    5.485000   -0.384000
  H      0.182000    1.072000    0.005000
  H     -0.183000   -1.080000   -0.021000
  H     -5.864000   -4.962000    1.895000
  H     -4.794000    2.272000    0.139000
  H     -4.800000   -2.160000   -1.994000
  H     -6.841000   -3.582000   -1.893000
  H     -8.428000   -4.536000    0.546000
  H     -7.956000   -5.337000   -0.981000
  H     -7.456000   -6.037000    0.584000
  H     -5.287000   -0.344000    0.100000
  H     -3.780000   -3.601000    1.947000
  H      3.587000   -6.868000   -1.843000
  H     -2.276000   -4.774000   -0.050000
  H      3.714000   -3.724000    1.926000
  H      5.092000   -5.795000    1.871000
  H      6.205000   -7.329000   -0.439000
  H      5.393000   -7.917000    1.042000
  H      4.759000   -8.373000   -0.564000
  H      0.329000   -5.290000   -0.008000
  H      2.146000   -4.842000   -1.940000
  H      5.808000    4.986000   -1.956000
  H      4.788000   -2.281000   -0.185000
  H      4.860000    2.114000    1.912000
  H      6.901000    3.531000    1.772000
  H      7.383000    6.109000    0.356000
  H      8.414000    4.652000    0.435000
  H      7.921000    5.310000   -1.150000
  H      5.283000    0.336000   -0.179000
  H      3.720000    3.632000   -1.967000

 Total Charge           Charge          ....    0
 Multiplicity           Mult            ....    1
 Number of Electrons    NEL             ....  358
 Basis Dimension        Dim             ....  918

ORBITAL ENERGIES
----------------

  NO   OCC          E(Eh)            E(eV)
   0   2.0000     -15.679815      -426.6695
   1   2.0000     -15.632988      -425.3952
   2   2.0000     -15.632788      -425.3898
   3   2.0000     -15.588268      -424.1783
   4   2.0000     -15.524851      -422.4527
   5   2.0000     -15.515605      -422.2011
   6   2.0000     -15.454110      -420.5277
   7   2.0000     -15.439410      -420.1277
   8   2.0000     -11.329300      -308.2859
   9   2.0000     -11.328534      -308.2651
  10   2.0000     -11.327948      -308.2491
  11   2.0000     -11.299083      -307.4637
  12   2.0000     -11.298589      -307.4502
  13   2.0000     -11.292202      -307.2764
  14   2.0000     -11.292026      -307.2717
  15   2.0000     -11.287505      -307.1486
  16   2.0000     -11.285513      -307.0944
  17   2.0000     -11.282057      -307.0004
  18   2.0000     -11.269909      -306.6698
  19   2.0000     -11.263380      -306.4922
  20   2.0000     -11.262377      -306.4649
  21   2.0000     -11.252142      -306.1863
  22   2.0000     -11.248476      -306.0866
  23   2.0000     -11.237707      -305.7936
  24   2.0000     -11.236603      -305.7635
  25   2.0000     -11.230593      -305.6000
  26   2.0000     -11.230436      -305.5957
  27   2.0000     -11.230245      -305.5905
  28   2.0000     -11.229480      -305.5697
  29   2.0000     -11.210630      -305.0567
  30   2.0000     -11.209333      -305.0215
  31   2.0000     -11.194231      -304.6105
  32   2.0000     -11.191593      -304.5387
  33   2.0000     -11.191497      -304.5361
  34   2.0000     -11.188914      -304.4658
  35   2.0000     -11.188367      -304.4510
  36   2.0000     -11.187489      -304.4270
  37   2.0000     -11.176441      -304.1264
  38   2.0000     -11.174423      -304.0715
  39   2.0000     -11.171435      -303.9902
  40   2.0000     -11.171410      -303.9895
  41   2.0000     -11.170733      -303.9711
  42   2.0000     -11.167835      -303.8922
  43   2.0000     -11.162324      -303.7423
  44   2.0000     -11.160401      -303.6900
  45   2.0000     -11.157248      -303.6041
  46   2.0000     -11.156221      -303.5762
  47   2.0000     -11.152072      -303.4633
  48   2.0000     -11.147257      -303.3323
  49   2.0000     -11.135358      -303.0085
  50   2.0000     -11.129094      -302.8380
  51   2.0000     -11.116966      -302.5080
  52   2.0000      -1.360401       -37.0184
  53   2.0000      -1.320607       -35.9355
  54   2.0000      -1.320202       -35.9245
  55   2.0000      -1.280608       -34.8471
  56   2.0000      -1.225894       -33.3583
  57   2.0000      -1.210406       -32.9368
  58   2.0000      -1.173827       -31.9415
  59   2.0000      -1.150465       -31.3057
  60   2.0000      -1.143689       -31.1214
  61   2.0000      -1.110421       -30.2161
  62   2.0000      -1.108775       -30.1713
  63   2.0000      -1.082091       -29.4452
  64   2.0000      -1.077430       -29.3184
  65   2.0000      -1.045205       -28.4415
  66   2.0000      -1.044435       -28.4205
  67   2.0000      -1.041137       -28.3308
  68   2.0000      -1.014948       -27.6181
  69   2.0000      -1.013690       -27.5839
  70   2.0000      -1.009050       -27.4577
  71   2.0000      -0.993281       -27.0286
  72   2.0000      -0.985705       -26.8224
  73   2.0000      -0.981656       -26.7122
  74   2.0000      -0.973229       -26.4829
  75   2.0000      -0.962435       -26.1892
  76   2.0000      -0.954940       -25.9852
  77   2.0000      -0.946036       -25.7429
  78   2.0000      -0.938333       -25.5333
  79   2.0000      -0.917036       -24.9538
  80   2.0000      -0.910546       -24.7772
  81   2.0000      -0.897201       -24.4141
  82   2.0000      -0.876825       -23.8596
  83   2.0000      -0.871663       -23.7192
  84   2.0000      -0.871065       -23.7029
  85   2.0000      -0.860343       -23.4111
  86   2.0000      -0.844363       -22.9763
  87   2.0000      -0.836087       -22.7511
  88   2.0000      -0.828158       -22.5353
  89   2.0000      -0.796583       -21.6761
  90   2.0000      -0.789165       -21.4743
  91   2.0000      -0.766622       -20.8609
  92   2.0000      -0.752945       -20.4887
  93   2.0000      -0.733559       -19.9612
  94   2.0000      -0.727193       -19.7879
  95   2.0000      -0.724534       -19.7156
  96   2.0000      -0.719529       -19.5794
  97   2.0000      -0.717257       -19.5176
  98   2.0000      -0.713548       -19.4166
  99   2.0000      -0.698458       -19.0060
 100   2.0000      -0.698046       -18.9948
 101   2.0000      -0.693859       -18.8809
 102   2.0000      -0.685300       -18.6480
 103   2.0000      -0.684362       -18.6224
 104   2.0000      -0.678680       -18.4678
 105   2.0000      -0.674578       -18.3562
 106   2.0000      -0.672707       -18.3053
 107   2.0000      -0.660654       -17.9773
 108   2.0000      -0.658120       -17.9084
 109   2.0000      -0.652839       -17.7647
 110   2.0000      -0.652013       -17.7422
 111   2.0000      -0.646178       -17.5834
 112   2.0000      -0.645540       -17.5660
 113   2.0000      -0.637618       -17.3505
 114   2.0000      -0.636105       -17.3093
 115   2.0000      -0.628537       -17.1034
 116   2.0000      -0.623177       -16.9575
 117   2.0000      -0.620947       -16.8968
 118   2.0000      -0.612945       -16.6791
 119   2.0000      -0.612349       -16.6629
 120   2.0000      -0.611492       -16.6395
 121   2.0000      -0.611294       -16.6342
 122   2.0000      -0.601518       -16.3681
 123   2.0000      -0.588436       -16.0122
 124   2.0000      -0.581463       -15.8224
 125   2.0000      -0.580831       -15.8052
 126   2.0000      -0.580066       -15.7844
 127   2.0000      -0.571235       -15.5441
 128   2.0000      -0.567581       -15.4447
 129   2.0000      -0.560025       -15.2391
 130   2.0000      -0.554465       -15.0878
 131   2.0000      -0.547930       -14.9099
 132   2.0000      -0.542690       -14.7674
 133   2.0000      -0.540660       -14.7121
 134   2.0000      -0.538245       -14.6464
 135   2.0000      -0.536476       -14.5982
 136   2.0000      -0.531342       -14.4586
 137   2.0000      -0.518895       -14.1198
 138   2.0000      -0.516457       -14.0535
 139   2.0000      -0.514906       -14.0113
 140   2.0000      -0.512400       -13.9431
 141   2.0000      -0.510164       -13.8823
 142   2.0000      -0.507909       -13.8209
 143   2.0000      -0.505177       -13.7466
 144   2.0000      -0.502594       -13.6763
 145   2.0000      -0.495791       -13.4912
 146   2.0000      -0.488581       -13.2950
 147   2.0000      -0.481388       -13.0992
 148   2.0000      -0.477535       -12.9944
 149   2.0000      -0.467774       -12.7288
 150   2.0000      -0.466399       -12.6914
 151   2.0000      -0.456868       -12.4320
 152   2.0000      -0.451845       -12.2953
 153   2.0000      -0.444802       -12.1037
 154   2.0000      -0.438345       -11.9280
 155   2.0000      -0.427477       -11.6322
 156   2.0000      -0.409731       -11.1494
 157   2.0000      -0.398838       -10.8529
 158   2.0000      -0.390391       -10.6231
 159   2.0000      -0.387677       -10.5492
 160   2.0000      -0.378751       -10.3063
 161   2.0000      -0.374612       -10.1937
 162   2.0000      -0.366790        -9.9809
 163   2.0000      -0.356763        -9.7080
 164   2.0000      -0.355733        -9.6800
 165   2.0000      -0.342165        -9.3108
 166   2.0000      -0.337654        -9.1880
 167   2.0000      -0.324450        -8.8287
 168   2.0000      -0.321338        -8.7440
 169   2.0000      -0.305058        -8.3010
 170   2.0000      -0.299500        -8.1498
 171   2.0000      -0.285599        -7.7716
 172   2.0000      -0.278780        -7.5860
 173   2.0000      -0.263912        -7.1814
 174   2.0000      -0.241592        -6.5741
 175   2.0000      -0.189955        -5.1690
 176   2.0000      -0.181074        -4.9273
 177   2.0000      -0.079458        -2.1622
 178   2.0000      -0.059722        -1.6251
 179   0.0000       0.028347         0.7714
 180   0.0000       0.065329         1.7777
 181   0.0000       0.090186         2.4541
 182   0.0000       0.106241         2.8910
 183   0.0000       0.115552         3.1443

MULLIKEN ATOMIC CHARGES
-----------------------
   0 C :    0.218672
   1 N :   -0.455708
   2 C :   -0.072320
   3 N :   -0.341188
   4 C :   -0.070011
   5 N :   -0.568220
   6 C :   -0.102612
   7 N :   -0.340960
   8 C :    0.212538
   9 N :   -0.562123
  10 C :    0.119565
  11 N :   -0.438711
  12 C :   -0.057254
  13 N :   -0.429354
  14 C :    0.220682
  15 N :   -0.440669
  16 C :    0.231265
  17 C :   -0.117770
  18 C :   -0.181704
  19 C :    0.214818
  20 C :    0.213208
  21 C :   -0.056514
  22 C :   -0.091225
  23 C :   -0.039528
  24 C :    0.193054
  25 C :    0.114753
  26 C :   -0.090261
  27 C :    0.216600
  28 C :   -0.061913
  29 C :   -0.182161
  30 C :    0.246143
  31 C :    0.229885
  32 C :   -0.061841
  33 C :   -0.060067
  34 C :   -0.051671
  35 C :    0.229117
  36 C :    0.108200
  37 C :   -0.064263
  38 C :    0.230566
  39 C :   -0.057231
  40 C :   -0.181550
  41 C :    0.226497
  42 C :    0.197699
  43 C :   -0.072309
  44 C :   -0.088938
  45 C :   -0.061601
  46 C :    0.212433
  47 C :    0.115189
  48 C :   -0.066528
  49 C :    0.238900
  50 C :   -0.046086
  51 C :   -0.192697
  52 H :    0.035677
  53 H :   -0.018069
  54 H :    0.045186
  55 H :    0.033908
  56 H :    0.049430
  57 H :    0.047604
  58 H :    0.046620
  59 H :   -0.011350
  60 H :    0.042318
  61 H :    0.171217
  62 H :    0.175405
  63 H :    0.054814
  64 H :   -0.033392
  65 H :    0.046853
  66 H :    0.055197
  67 H :    0.062053
  68 H :    0.056966
  69 H :    0.056045
  70 H :   -0.030556
  71 H :    0.044297
  72 H :    0.071450
  73 H :   -0.007933
  74 H :    0.060510
  75 H :    0.070946
  76 H :    0.075058
  77 H :    0.068107
  78 H :    0.067460
  79 H :   -0.016850
  80 H :    0.061530
  81 H :    0.054805
  82 H :   -0.024718
  83 H :    0.042386
  84 H :    0.054706
  85 H :    0.061328
  86 H :    0.055838
  87 H :    0.057521
  88 H :   -0.014353
  89 H :    0.047193
Sum of atomic charges:    0.0000000

LOEWDIN ATOMIC CHARGES
----------------------
   0 C :   -0.017410
   1 N :    0.121153
   2 C :   -0.100591
   3 N :    0.182545
   4 C :   -0.011484
   5 N :   -0.134465
   6 C :   -0.017958
   7 N :    0.175030
   8 C :   -0.022654
   9 N :   -0.140573
  10 C :    0.023229
  11 N :    0.141231
  12 C :   -0.106449
  13 N :    0.166461
  14 C :   -0.016907
  15 N :    0.139543
  16 C :   -0.061110
  17 C :   -0.035806
  18 C :   -0.111650
  19 C :   -0.074545
  20 C :    0.004180
  21 C :   -0.103715
  22 C :    0.036237
  23 C :   -0.014623
  24 C :   -0.013407
  25 C :    0.029647
  26 C :   -0.108394
  27 C :   -0.116900
  28 C :   -0.027996
  29 C :   -0.100110
  30 C :   -0.029210
  31 C :    0.024116
  32 C :   -0.094736
  33 C :    0.082341
  34 C :   -0.015413
  35 C :    0.023784
  36 C :    0.035292
  37 C :   -0.093950
  38 C :   -0.053110
  39 C :   -0.017261
  40 C :   -0.108723
  41 C :   -0.090382
  42 C :   -0.009907
  43 C :   -0.099006
  44 C :    0.034849
  45 C :   -0.028072
  46 C :    0.002890
  47 C :    0.029680
  48 C :   -0.094370
  49 C :   -0.069251
  50 C :   -0.018400
  51 C :   -0.108224
  52 H :    0.022497
  53 H :    0.002486
  54 H :   -0.005718
  55 H :    0.021961
  56 H :    0.021946
  57 H :    0.026278
  58 H :    0.026656
  59 H :    0.005572
  60 H :    0.009051
  61 H :    0.060196
  62 H :    0.061843
  63 H :    0.030519
  64 H :   -0.001975
  65 H :    0.045796
  66 H :    0.029031
  67 H :    0.028032
  68 H :    0.031503
  69 H :    0.030142
  70 H :   -0.004964
  71 H :    0.043252
  72 H :    0.037759
  73 H :    0.007170
  74 H :    0.050701
  75 H :    0.037508
  76 H :    0.034879
  77 H :    0.036238
  78 H :    0.035943
  79 H :    0.002847
  80 H :    0.050869
  81 H :    0.029273
  82 H :   -0.002668
  83 H :    0.042693
  84 H :    0.030136
  85 H :    0.027614
  86 H :    0.030322
  87 H :    0.031548
  88 H :    0.002452
  89 H :    0.045166

  Mayer bond orders larger than 0.100000
B(  0-C ,  1-N ) :   1.1012 B(  0-C , 17-C ) :   1.7118 B(  0-C , 52-H ) :   0.9628
B(  1-N ,  8-C ) :   1.0893 B(  1-N , 10-C ) :   0.9771 B(  2-C , 12-C ) :   1.4907
B(  2-C , 16-C ) :   1.3709 B(  2-C , 53-H ) :   0.9724 B(  3-N , 14-C ) :   1.2221
B(  3-N , 16-C ) :   1.1804 B(  3-N , 61-H ) :   0.8986 B(  4-C ,  6-C ) :   1.2172
B(  4-C , 17-C ) :   1.2189 B(  4-C , 18-C ) :   1.4734 B(  5-N , 19-C ) :   1.4594
B(  5-N , 27-C ) :   1.3708 B(  6-C ,  8-C ) :   1.7250 B(  6-C , 54-H ) :   0.8731
B(  7-N , 30-C ) :   1.1959 B(  7-N , 38-C ) :   1.1889 B(  7-N , 62-H ) :   0.8968
B(  8-C , 55-H ) :   0.9621 B(  9-N , 41-C ) :   1.3951 B(  9-N , 49-C ) :   1.4242
B( 10-C , 56-H ) :   0.9776 B( 10-C , 57-H ) :   0.9823 B( 10-C , 58-H ) :   0.9841
B( 11-N , 20-C ) :   1.1303 B( 11-N , 24-C ) :   1.1058 B( 11-N , 25-C ) :   0.9607
B( 12-C , 14-C ) :   1.3572 B( 12-C , 59-H ) :   0.9359 B( 13-N , 31-C ) :   1.1612
B( 13-N , 35-C ) :   1.1612 B( 13-N , 36-C ) :   0.9412 B( 14-C , 18-C ) :   1.1197
B( 15-N , 42-C ) :   1.1086 B( 15-N , 46-C ) :   1.1257 B( 15-N , 47-C ) :   0.9607
B( 16-C , 51-C ) :   1.1683 B( 17-C , 60-H ) :   0.9016 B( 18-C , 19-C ) :   1.1176
B( 19-C , 21-C ) :   1.2543 B( 20-C , 28-C ) :   1.6298 B( 20-C , 63-H ) :   0.9703
B( 21-C , 26-C ) :   1.5775 B( 21-C , 64-H ) :   0.9087 B( 22-C , 23-C ) :   1.2883
B( 22-C , 28-C ) :   1.2627 B( 22-C , 29-C ) :   1.2280 B( 23-C , 24-C ) :   1.6215
B( 23-C , 65-H ) :   0.9703 B( 24-C , 66-H ) :   0.9696 B( 25-C , 67-H ) :   0.9761
B( 25-C , 68-H ) :   0.9829 B( 25-C , 69-H ) :   0.9824 B( 26-C , 27-C ) :   1.2639
B( 26-C , 70-H ) :   0.9672 B( 27-C , 29-C ) :   1.2045 B( 28-C , 71-H ) :   0.9720
B( 29-C , 30-C ) :   1.2467 B( 30-C , 32-C ) :   1.2791 B( 31-C , 39-C ) :   1.5873
B( 31-C , 72-H ) :   0.9681 B( 32-C , 37-C ) :   1.5793 B( 32-C , 73-H ) :   0.9787
B( 33-C , 34-C ) :   1.3066 B( 33-C , 39-C ) :   1.3048 B( 33-C , 40-C ) :   1.1760
B( 34-C , 35-C ) :   1.5853 B( 34-C , 74-H ) :   0.9696 B( 35-C , 75-H ) :   0.9681
B( 36-C , 76-H ) :   0.9768 B( 36-C , 77-H ) :   0.9816 B( 36-C , 78-H ) :   0.9823
B( 37-C , 38-C ) :   1.2856 B( 37-C , 79-H ) :   0.9764 B( 38-C , 40-C ) :   1.2337
B( 39-C , 80-H ) :   0.9705 B( 40-C , 41-C ) :   1.2509 B( 41-C , 43-C ) :   1.1833
B( 42-C , 50-C ) :   1.6317 B( 42-C , 81-H ) :   0.9696 B( 43-C , 48-C ) :   1.6698
B( 43-C , 82-H ) :   0.9721 B( 44-C , 45-C ) :   1.2644 B( 44-C , 50-C ) :   1.2738
B( 44-C , 51-C ) :   1.2582 B( 45-C , 46-C ) :   1.6333 B( 45-C , 83-H ) :   0.9718
B( 46-C , 84-H ) :   0.9699 B( 47-C , 85-H ) :   0.9762 B( 47-C , 86-H ) :   0.9829
B( 47-C , 87-H ) :   0.9824 B( 48-C , 49-C ) :   1.1867 B( 48-C , 88-H ) :   0.9748
B( 49-C , 51-C ) :   1.2462 B( 50-C , 89-H ) :   0.9708 B( 54-H , 64-H ) :   0.1061

MP2 TOTAL ENERGY:    -2130.782009153 Eh
FINAL SINGLE POINT ENERGY     -2130.782009152657

DIPOLE MOMENT
-------------
                                X             Y             Z
Electronic contribution:      2.96237      -4.22632      -0.09571
Nuclear contribution   :     -0.04354       0.15688       0.11089
                        -----------------------------------------
Total Dipole Moment    :      2.91883      -4.06944       0.01518
                        -----------------------------------------
Magnitude (a.u.)       :      5.00801
Magnitude (Debye)      :     12.72934

Rotational constants in cm-1:     0.001503     0.001478     0.000760
Rotational constants in MHz :    45.064518    44.296896    22.783907

                             ****ORCA TERMINATED NORMALLY****
TOTAL RUN TIME: 0 days 1 hours 12 minutes 4 seconds 518 msec
