                         Program Version 5.0.4 -  RELEASE  -
|  1> ! PAL2
|  2> ! mp2 cc-pvdz TightSCF  NoKeepInts
|  3>
|  4> %scf
|  5>   MaxCore 2000
|  6> end
|  7> %mp2
|  8>   MaxCore 2000
|  9> end
| 10> * xyz 0 1
| 11>    C       -4.95500         5.18100         0.10100
| 12>    C        1.47400         4.04100         0.05700
| 13>    C       -2.80200         4.09300         0.04900
| 14>    C       -2.21500         5.36800         0.02700
| 15>    C       -3.01000         6.49700         0.04500
| 16>    C       -5.18100         7.62400         0.13600
| 17>    C        0.13200         4.30700         0.06100
| 18>    C       -0.56900         3.05600         0.04700
| 19>    C        1.64900         2.61800         0.02300
| 20>    C       -4.20300         4.02300         0.09000
| 21>    N       -4.35900         6.39500         0.07900
| 22>    N        0.38800         2.06700         0.02500
| 23>    N       -2.01000         0.39500        -0.07500
| 24>    N       -0.38800        -2.07400        -0.02700
| 25>    N        2.01000        -0.40100         0.06500
| 26>    C       -1.96000         2.86100         0.02400
| 27>    C       -2.62300         1.61500        -0.01800
| 28>    C       -5.57300        -4.32900         1.06600
| 29>    C       -4.07300         1.47100         0.05600
| 30>    C       -4.10600        -2.75600        -0.02600
| 31>    C       -4.99500        -2.75700        -1.11100
| 32>    C       -6.13200        -3.54200        -1.07600
| 33>    C       -7.65100        -5.11300         0.04000
| 34>    C       -4.32400         0.14100         0.03700
| 35>    C       -3.02500        -0.52000        -0.04800
| 36>    C       -4.42200        -3.56600         1.07500
| 37>    N       -6.40700        -4.31300         0.00100
| 38>    C       -2.86700        -1.92200        -0.04000
| 39>    C       -1.65000        -2.62400        -0.02700
| 40>    C        3.56800        -6.14200        -1.04000
| 41>    C       -1.47600        -4.04900        -0.03400
| 42>    C        2.80300        -4.09900        -0.00800
| 43>    C        3.65700        -4.38400         1.06900
| 44>    C        4.42700        -5.53000         1.05900
| 45>    C        5.24500        -7.58800         0.01400
| 46>    C       -0.13400        -4.31500        -0.02200
| 47>    C        0.56800        -3.06400        -0.02700
| 48>    C        2.77500        -5.01200        -1.07400
| 49>    N        4.37600        -6.39100         0.01700
| 50>    C        1.95900        -2.86900        -0.00900
| 51>    C        2.62100        -1.62200         0.00900
| 52>    C        5.54300         4.33900        -1.13000
| 53>    C        4.07000        -1.47900        -0.09400
| 54>    C        4.10400         2.75100        -0.02100
| 55>    C        5.02700         2.72900         1.03600
| 56>    C        6.16600         3.50900         0.97800
| 57>    C        7.61900         5.15300        -0.11500
| 58>    C        4.32100        -0.14800        -0.09200
| 59>    C        3.02500         0.51400         0.01500
| 60>    C        4.38700         3.58200        -1.11500
| 61>    C        2.86600         1.91600         0.01300
| 62>    N        6.41300         4.29600        -0.09500
| 63>    H       -6.03800         5.17500         0.12000
| 64>    H        2.27400         4.76600         0.08100
| 65>    H       -1.13900         5.48800         0.00500
| 66>    H       -2.60300         7.50000         0.03800
| 67>    H       -5.28300         7.93500         1.17800
| 68>    H       -4.68600         8.40400        -0.44200
| 69>    H       -6.16100         7.41000        -0.28900
| 70>    H       -0.33200         5.28200         0.06900
| 71>    H       -4.71600         3.06800         0.09400
| 72>    H        0.18200         1.07200         0.00500
| 73>    H       -0.18300        -1.08000        -0.02100
| 74>    H       -5.86400        -4.96200         1.89500
| 75>    H       -4.79400         2.27200         0.13900
| 76>    H       -4.80000        -2.16000        -1.99400
| 77>    H       -6.84100        -3.58200        -1.89300
| 78>    H       -8.42800        -4.53600         0.54600
| 79>    H       -7.95600        -5.33700        -0.98100
| 80>    H       -7.45600        -6.03700         0.58400
| 81>    H       -5.28700        -0.34400         0.10000
| 82>    H       -3.78000        -3.60100         1.94700
| 83>    H        3.58700        -6.86800        -1.84300
| 84>    H       -2.27600        -4.77400        -0.05000
| 85>    H        3.71400        -3.72400         1.92600
| 86>    H        5.09200        -5.79500         1.87100
| 87>    H        6.20500        -7.32900        -0.43900
| 88>    H        5.39300        -7.91700         1.04200
| 89>    H        4.75900        -8.37300        -0.56400
| 90>    H        0.32900        -5.29000        -0.00800
| 91>    H        2.14600        -4.84200        -1.94000
| 92>    H        5.80800         4.98600        -1.95600
| 93>    H        4.78800        -2.28100        -0.18500
| 94>    H        4.86000         2.11400         1.91200
| 95>    H        6.90100         3.53100         1.77200
| 96>    H        7.38300         6.10900         0.35600
| 97>    H        8.41400         4.65200         0.43500
| 98>    H        7.92100         5.31000        -1.15000
| 99>    H        5.28300         0.33600        -0.17900
|100>    H        3.72000         3.63200        -1.96700
|101> *
|102>
|103>                          ****END OF INPUT****

CARTESIAN COORDINATES (ANGSTROEM)
---------------------------------
  C     -4.955000    5.181000    0.101000
  C      1.474000    4.041000    0.057000
  C     -2.802000    4.093000    0.049000
  C     -2.215000    5.368000    0.027000
  C     -3.010000    6.497000    0.045000
  C     -5.181000    7.624000    0.136000
  C      0.132000    4.307000    0.061000
  C     -0.569000    3.056000    0.047000
  C      1.649000    2.618000    0.023000
  C     -4.203000    4.023000    0.090000
  N     -4.359000    6.395000    0.079000
  N      0.388000    2.067000    0.025000
  N     -2.010000    0.395000   -0.075000
  N     -0.388000   -2.074000   -0.027000
  N      2.010000   -0.401000    0.065000
  C     -1.960000    2.861000    0.024000
  C     -2.623000    1.615000   -0.018000
  C     -5.573000   -4.329000    1.066000
  C     -4.073000    1.471000    0.056000
  C     -4.106000   -2.756000   -0.026000
  C     -4.995000   -2.757000   -1.111000
  C     -6.132000   -3.542000   -1.076000
  C     -7.651000   -5.113000    0.040000
  C     -4.324000    0.141000    0.037000
  C     -3.025000   -0.520000   -0.048000
  C     -4.422000   -3.566000    1.075000
  N     -6.407000   -4.313000    0.001000
  C     -2.867000   -1.922000   -0.040000
  C     -1.650000   -2.624000   -0.027000
  C      3.568000   -6.142000   -1.040000
  C     -1.476000   -4.049000   -0.034000
  C      2.803000   -4.099000   -0.008000
  C      3.657000   -4.384000    1.069000
  C      4.427000   -5.530000    1.059000
  C      5.245000   -7.588000    0.014000
  C     -0.134000   -4.315000   -0.022000
  C      0.568000   -3.064000   -0.027000
  C      2.775000   -5.012000   -1.074000
  N      4.376000   -6.391000    0.017000
  C      1.959000   -2.869000   -0.009000
  C      2.621000   -1.622000    0.009000
  C      5.543000    4.339000   -1.130000
  C      4.070000   -1.479000   -0.094000
  C      4.104000    2.751000   -0.021000
  C      5.027000    2.729000    1.036000
  C      6.166000    3.509000    0.978000
  C      7.619000    5.153000   -0.115000
  C      4.321000   -0.148000   -0.092000
  C      3.025000    0.514000    0.015000
  C      4.387000    3.582000   -1.115000
  C      2.866000    1.916000    0.013000
  N      6.413000    4.296000   -0.095000
  H     -6.038000    5.175000    0.120000
  H      2.274000    4.766000    0.081000
  H     -1.139000    5.488000    0.005000
  H     -2.603000    7.500000    0.038000
  H     -5.283000    7.935000    1.178000
  H     -4.686000    8.404000   -0.442000
  H     -6.161000    7.410000   -0.289000
  H     -0.332000    5.282000    0.069000
  H     -4.716000    3.068000    0.094000
  H      0.182000    1.072000    0.005000
  H     -0.183000   -1.080000   -0.021000
  H     -5.864000   -4.962000    1.895000
  H     -4.794000    2.272000    0.139000
  H     -4.800000   -2.160000   -1.994000
  H     -6.841000   -3.582000   -1.893000
  H     -8.428000   -4.536000    0.546000
  H     -7.956000   -5.337000   -0.981000
  H     -7.456000   -6.037000    0.584000
  H     -5.287000   -0.344000    0.100000
  H     -3.780000   -3.601000    1.947000
  H      3.587000   -6.868000   -1.843000
  H     -2.276000   -4.774000   -0.050000
  H      3.714000   -3.724000    1.926000
  H      5.092000   -5.795000    1.871000
  H      6.205000   -7.329000   -0.439000
  H      5.393000   -7.917000    1.042000
  H      4.759000   -8.373000   -0.564000
  H      0.329000   -5.290000   -0.008000
  H      2.146000   -4.842000   -1.940000
  H      5.808000    4.986000   -1.956000
  H      4.788000   -2.281000   -0.185000
  H      4.860000    2.114000    1.912000
  H      6.901000    3.531000    1.772000
  H      7.383000    6.109000    0.356000
  H      8.414000    4.652000    0.435000
  H      7.921000    5.310000   -1.150000
  H      5.283000    0.336000   -0.179000
  H      3.720000    3.632000   -1.967000

 Total Charge           Charge          ....    0
 Multiplicity           Mult            ....    1
 Number of Electrons    NEL             ....  358
 Basis Dimension        Dim             ....  918

ORBITAL ENERGIES
----------------

  NO   OCC          E(Eh)            E(eV)
   0   2.0000     -15.679542      -426.6620
   1   2.0000     -15.633973      -425.4220
   2   2.0000     -15.631510      -425.3550
   3   2.0000     -15.588170      -424.1757
   4   2.0000     -15.524987      -422.4564
   5   2.0000     -15.515353      -422.1942
   6   2.0000     -15.453522      -420.5117
   7   2.0000     -15.439491      -420.1299
   8   2.0000     -11.329223      -308.2838
   9   2.0000     -11.328102      -308.2533
  10   2.0000     -11.327757      -308.2439
  11   2.0000     -11.299346      -307.4708
  12   2.0000     -11.298189      -307.4394
  13   2.0000     -11.293029      -307.2990
  14   2.0000     -11.290949      -307.2424
  15   2.0000     -11.286519      -307.1218
  16   2.0000     -11.286241      -307.1142
  17   2.0000     -11.281796      -306.9933
  18   2.0000     -11.269552      -306.6601
  19   2.0000     -11.263108      -306.4847
  20   2.0000     -11.262116      -306.4577
  21   2.0000     -11.250342      -306.1374
  22   2.0000     -11.248525      -306.0879
  23   2.0000     -11.237740      -305.7945
  24   2.0000     -11.236294      -305.7551
  25   2.0000     -11.231157      -305.6153
  26   2.0000     -11.230485      -305.5970
  27   2.0000     -11.229512      -305.5706
  28   2.0000     -11.229336      -305.5658
  29   2.0000     -11.211043      -305.0680
  30   2.0000     -11.209422      -305.0239
  31   2.0000     -11.194261      -304.6113
  32   2.0000     -11.192389      -304.5604
  33   2.0000     -11.190992      -304.5224
  34   2.0000     -11.188063      -304.4427
  35   2.0000     -11.187874      -304.4375
  36   2.0000     -11.186539      -304.4012
  37   2.0000     -11.174477      -304.0730
  38   2.0000     -11.172504      -304.0193
  39   2.0000     -11.170621      -303.9680
  40   2.0000     -11.170108      -303.9541
  41   2.0000     -11.168434      -303.9085
  42   2.0000     -11.166392      -303.8530
  43   2.0000     -11.161462      -303.7188
  44   2.0000     -11.161397      -303.7171
  45   2.0000     -11.156588      -303.5862
  46   2.0000     -11.156305      -303.5785
  47   2.0000     -11.150648      -303.4246
  48   2.0000     -11.147031      -303.3261
  49   2.0000     -11.135862      -303.0222
  50   2.0000     -11.130094      -302.8653
  51   2.0000     -11.118342      -302.5455
  52   2.0000      -1.360151       -37.0116
  53   2.0000      -1.321225       -35.9524
  54   2.0000      -1.319345       -35.9012
  55   2.0000      -1.280033       -34.8315
  56   2.0000      -1.226078       -33.3633
  57   2.0000      -1.210340       -32.9350
  58   2.0000      -1.173140       -31.9228
  59   2.0000      -1.150905       -31.3177
  60   2.0000      -1.143399       -31.1135
  61   2.0000      -1.110299       -30.2128
  62   2.0000      -1.108712       -30.1696
  63   2.0000      -1.081837       -29.4383
  64   2.0000      -1.077610       -29.3233
  65   2.0000      -1.045417       -28.4473
  66   2.0000      -1.044014       -28.4091
  67   2.0000      -1.040895       -28.3242
  68   2.0000      -1.015488       -27.6328
  69   2.0000      -1.014765       -27.6132
  70   2.0000      -1.009114       -27.4594
  71   2.0000      -0.993469       -27.0337
  72   2.0000      -0.985634       -26.8205
  73   2.0000      -0.981753       -26.7149
  74   2.0000      -0.974362       -26.5137
  75   2.0000      -0.962086       -26.1797
  76   2.0000      -0.954652       -25.9774
  77   2.0000      -0.947067       -25.7710
  78   2.0000      -0.939628       -25.5686
  79   2.0000      -0.916742       -24.9458
  80   2.0000      -0.910443       -24.7744
  81   2.0000      -0.898732       -24.4557
  82   2.0000      -0.877384       -23.8748
  83   2.0000      -0.872286       -23.7361
  84   2.0000      -0.870771       -23.6949
  85   2.0000      -0.861887       -23.4531
  86   2.0000      -0.845761       -23.0143
  87   2.0000      -0.839290       -22.8382
  88   2.0000      -0.829531       -22.5727
  89   2.0000      -0.796298       -21.6684
  90   2.0000      -0.789453       -21.4821
  91   2.0000      -0.777018       -21.1437
  92   2.0000      -0.752878       -20.4868
  93   2.0000      -0.734447       -19.9853
  94   2.0000      -0.729425       -19.8487
  95   2.0000      -0.726937       -19.7810
  96   2.0000      -0.720657       -19.6101
  97   2.0000      -0.717778       -19.5317
  98   2.0000      -0.714044       -19.4301
  99   2.0000      -0.700204       -19.0535
 100   2.0000      -0.698271       -19.0009
 101   2.0000      -0.694619       -18.9016
 102   2.0000      -0.685297       -18.6479
 103   2.0000      -0.684128       -18.6161
 104   2.0000      -0.678956       -18.4753
 105   2.0000      -0.674355       -18.3501
 106   2.0000      -0.672713       -18.3055
 107   2.0000      -0.661029       -17.9875
 108   2.0000      -0.658201       -17.9106
 109   2.0000      -0.652906       -17.7665
 110   2.0000      -0.651913       -17.7395
 111   2.0000      -0.646060       -17.5802
 112   2.0000      -0.645625       -17.5684
 113   2.0000      -0.638272       -17.3683
 114   2.0000      -0.635406       -17.2903
 115   2.0000      -0.628759       -17.1094
 116   2.0000      -0.623104       -16.9555
 117   2.0000      -0.620763       -16.8918
 118   2.0000      -0.612903       -16.6779
 119   2.0000      -0.612295       -16.6614
 120   2.0000      -0.611649       -16.6438
 121   2.0000      -0.611155       -16.6304
 122   2.0000      -0.601463       -16.3666
 123   2.0000      -0.589499       -16.0411
 124   2.0000      -0.581683       -15.8284
 125   2.0000      -0.580642       -15.8001
 126   2.0000      -0.580328       -15.7915
 127   2.0000      -0.570888       -15.5347
 128   2.0000      -0.566538       -15.4163
 129   2.0000      -0.559846       -15.2342
 130   2.0000      -0.556062       -15.1312
 131   2.0000      -0.547641       -14.9021
 132   2.0000      -0.542679       -14.7671
 133   2.0000      -0.540262       -14.7013
 134   2.0000      -0.538865       -14.6633
 135   2.0000      -0.535990       -14.5850
 136   2.0000      -0.531991       -14.4762
 137   2.0000      -0.518022       -14.0961
 138   2.0000      -0.516763       -14.0618
 139   2.0000      -0.514050       -13.9880
 140   2.0000      -0.511631       -13.9222
 141   2.0000      -0.510060       -13.8794
 142   2.0000      -0.507271       -13.8035
 143   2.0000      -0.505838       -13.7646
 144   2.0000      -0.502133       -13.6637
 145   2.0000      -0.495637       -13.4870
 146   2.0000      -0.488406       -13.2902
 147   2.0000      -0.481312       -13.0972
 148   2.0000      -0.476233       -12.9590
 149   2.0000      -0.467605       -12.7242
 150   2.0000      -0.466078       -12.6826
 151   2.0000      -0.455977       -12.4078
 152   2.0000      -0.451164       -12.2768
 153   2.0000      -0.445287       -12.1169
 154   2.0000      -0.438098       -11.9212
 155   2.0000      -0.427881       -11.6432
 156   2.0000      -0.408952       -11.1281
 157   2.0000      -0.390802       -10.6343
 158   2.0000      -0.387567       -10.5462
 159   2.0000      -0.383037       -10.4230
 160   2.0000      -0.378177       -10.2907
 161   2.0000      -0.373126       -10.1533
 162   2.0000      -0.358340        -9.7509
 163   2.0000      -0.356660        -9.7052
 164   2.0000      -0.355634        -9.6773
 165   2.0000      -0.341538        -9.2937
 166   2.0000      -0.337483        -9.1834
 167   2.0000      -0.324799        -8.8382
 168   2.0000      -0.321778        -8.7560
 169   2.0000      -0.305292        -8.3074
 170   2.0000      -0.299173        -8.1409
 171   2.0000      -0.286136        -7.7862
 172   2.0000      -0.278138        -7.5685
 173   2.0000      -0.263239        -7.1631
 174   2.0000      -0.242410        -6.5963
 175   2.0000      -0.189990        -5.1699
 176   2.0000      -0.181435        -4.9371
 177   2.0000      -0.080248        -2.1836
 178   2.0000      -0.059586        -1.6214
 179   0.0000       0.028526         0.7762
 180   0.0000       0.065495         1.7822
 181   0.0000       0.090355         2.4587
 182   0.0000       0.106455         2.8968
 183   0.0000       0.117183         3.1887

MULLIKEN ATOMIC CHARGES
-----------------------
   0 C :    0.225066
   1 N :   -0.455435
   2 C :   -0.064143
   3 N :   -0.340898
   4 C :   -0.142968
   5 N :   -0.568848
   6 C :   -0.096722
   7 N :   -0.341048
   8 C :    0.227237
   9 N :   -0.562499
  10 C :    0.119939
  11 N :   -0.438399
  12 C :   -0.058556
  13 N :   -0.429388
  14 C :    0.211754
  15 N :   -0.440976
  16 C :    0.235049
  17 C :   -0.093433
  18 C :   -0.179016
  19 C :    0.211807
  20 C :    0.213795
  21 C :   -0.061833
  22 C :   -0.090572
  23 C :   -0.039531
  24 C :    0.193219
  25 C :    0.114612
  26 C :   -0.080194
  27 C :    0.219328
  28 C :   -0.061826
  29 C :   -0.182957
  30 C :    0.245131
  31 C :    0.230389
  32 C :   -0.061117
  33 C :   -0.060000
  34 C :   -0.051101
  35 C :    0.228492
  36 C :    0.108225
  37 C :   -0.064778
  38 C :    0.231499
  39 C :   -0.057753
  40 C :   -0.182045
  41 C :    0.225934
  42 C :    0.197028
  43 C :   -0.072883
  44 C :   -0.089682
  45 C :   -0.061624
  46 C :    0.211620
  47 C :    0.115392
  48 C :   -0.066516
  49 C :    0.237605
  50 C :   -0.046148
  51 C :   -0.192797
  52 H :    0.031429
  53 H :   -0.019055
  54 H :    0.061037
  55 H :    0.030356
  56 H :    0.049528
  57 H :    0.046859
  58 H :    0.046881
  59 H :   -0.019897
  60 H :    0.075612
  61 H :    0.170923
  62 H :    0.175445
  63 H :    0.055275
  64 H :   -0.044793
  65 H :    0.046870
  66 H :    0.055478
  67 H :    0.062365
  68 H :    0.057184
  69 H :    0.056345
  70 H :   -0.031158
  71 H :    0.044832
  72 H :    0.071398
  73 H :   -0.007943
  74 H :    0.060503
  75 H :    0.070836
  76 H :    0.075046
  77 H :    0.068064
  78 H :    0.067355
  79 H :   -0.016747
  80 H :    0.061402
  81 H :    0.054291
  82 H :   -0.025118
  83 H :    0.041886
  84 H :    0.054148
  85 H :    0.060784
  86 H :    0.055520
  87 H :    0.057218
  88 H :   -0.014479
  89 H :    0.046886
Sum of atomic charges:   -0.0000000

LOEWDIN ATOMIC CHARGES
----------------------
   0 C :   -0.020797
   1 N :    0.122849
   2 C :   -0.099862
   3 N :    0.182277
   4 C :   -0.009658
   5 N :   -0.134940
   6 C :   -0.019365
   7 N :    0.175041
   8 C :   -0.017659
   9 N :   -0.140702
  10 C :    0.022805
  11 N :    0.141870
  12 C :   -0.089968
  13 N :    0.166376
  14 C :   -0.014691
  15 N :    0.138714
  16 C :   -0.060981
  17 C :   -0.014678
  18 C :   -0.116479
  19 C :   -0.072172
  20 C :    0.004868
  21 C :   -0.092045
  22 C :    0.037185
  23 C :   -0.014532
  24 C :   -0.013114
  25 C :    0.029790
  26 C :   -0.107068
  27 C :   -0.117264
  28 C :   -0.027698
  29 C :   -0.098636
  30 C :   -0.030475
  31 C :    0.024542
  32 C :   -0.093877
  33 C :    0.082427
  34 C :   -0.015100
  35 C :    0.023208
  36 C :    0.035263
  37 C :   -0.094455
  38 C :   -0.051752
  39 C :   -0.017628
  40 C :   -0.109319
  41 C :   -0.091257
  42 C :   -0.010799
  43 C :   -0.099623
  44 C :    0.033604
  45 C :   -0.028333
  46 C :    0.001966
  47 C :    0.029484
  48 C :   -0.094703
  49 C :   -0.069821
  50 C :   -0.018629
  51 C :   -0.108145
  52 H :    0.021678
  53 H :    0.002429
  54 H :   -0.018642
  55 H :    0.021530
  56 H :    0.021969
  57 H :    0.025977
  58 H :    0.026792
  59 H :    0.002084
  60 H :   -0.022183
  61 H :    0.060342
  62 H :    0.061909
  63 H :    0.030737
  64 H :   -0.002916
  65 H :    0.045808
  66 H :    0.029157
  67 H :    0.028190
  68 H :    0.031602
  69 H :    0.030285
  70 H :   -0.004941
  71 H :    0.043486
  72 H :    0.037757
  73 H :    0.007178
  74 H :    0.050736
  75 H :    0.037434
  76 H :    0.034869
  77 H :    0.036218
  78 H :    0.035898
  79 H :    0.002891
  80 H :    0.050793
  81 H :    0.029034
  82 H :   -0.002858
  83 H :    0.042483
  84 H :    0.029873
  85 H :    0.027343
  86 H :    0.030169
  87 H :    0.031406
  88 H :    0.002408
  89 H :    0.045029

  Mayer bond orders larger than 0.100000
B(  0-C ,  1-N ) :   1.0953 B(  0-C , 17-C ) :   1.7383 B(  0-C , 52-H ) :   0.9574
B(  1-N ,  8-C ) :   1.1007 B(  1-N , 10-C ) :   0.9770 B(  2-C , 12-C ) :   1.4829
B(  2-C , 16-C ) :   1.3817 B(  2-C , 53-H ) :   0.9698 B(  3-N , 14-C ) :   1.2274
B(  3-N , 16-C ) :   1.1767 B(  3-N , 61-H ) :   0.8970 B(  4-C ,  6-C ) :   1.2321
B(  4-C , 17-C ) :   1.2323 B(  4-C , 18-C ) :   1.4917 B(  5-N , 19-C ) :   1.4666
B(  5-N , 27-C ) :   1.3667 B(  6-C ,  8-C ) :   1.7335 B(  6-C , 54-H ) :   0.8541
B(  7-N , 30-C ) :   1.1945 B(  7-N , 38-C ) :   1.1902 B(  7-N , 62-H ) :   0.8967
B(  8-C , 55-H ) :   0.9590 B(  9-N , 41-C ) :   1.3950 B(  9-N , 49-C ) :   1.4244
B( 10-C , 56-H ) :   0.9777 B( 10-C , 57-H ) :   0.9824 B( 10-C , 58-H ) :   0.9835
B( 11-N , 20-C ) :   1.1313 B( 11-N , 24-C ) :   1.1066 B( 11-N , 25-C ) :   0.9603
B( 12-C , 14-C ) :   1.3650 B( 12-C , 59-H ) :   0.8951 B( 13-N , 31-C ) :   1.1618
B( 13-N , 35-C ) :   1.1604 B( 13-N , 36-C ) :   0.9413 B( 14-C , 18-C ) :   1.1158
B( 15-N , 42-C ) :   1.1074 B( 15-N , 46-C ) :   1.1244 B( 15-N , 47-C ) :   0.9614
B( 16-C , 51-C ) :   1.1679 B( 17-C , 60-H ) :   0.8351 B( 18-C , 19-C ) :   1.1151
B( 19-C , 21-C ) :   1.2544 B( 20-C , 28-C ) :   1.6286 B( 20-C , 63-H ) :   0.9702
B( 21-C , 26-C ) :   1.5807 B( 21-C , 64-H ) :   0.8829 B( 22-C , 23-C ) :   1.2898
B( 22-C , 28-C ) :   1.2636 B( 22-C , 29-C ) :   1.2258 B( 23-C , 24-C ) :   1.6198
B( 23-C , 65-H ) :   0.9703 B( 24-C , 66-H ) :   0.9696 B( 25-C , 67-H ) :   0.9760
B( 25-C , 68-H ) :   0.9828 B( 25-C , 69-H ) :   0.9823 B( 26-C , 27-C ) :   1.2680
B( 26-C , 70-H ) :   0.9648 B( 27-C , 29-C ) :   1.2073 B( 28-C , 71-H ) :   0.9720
B( 29-C , 30-C ) :   1.2471 B( 30-C , 32-C ) :   1.2787 B( 31-C , 39-C ) :   1.5877
B( 31-C , 72-H ) :   0.9681 B( 32-C , 37-C ) :   1.5803 B( 32-C , 73-H ) :   0.9786
B( 33-C , 34-C ) :   1.3070 B( 33-C , 39-C ) :   1.3040 B( 33-C , 40-C ) :   1.1763
B( 34-C , 35-C ) :   1.5853 B( 34-C , 74-H ) :   0.9696 B( 35-C , 75-H ) :   0.9681
B( 36-C , 76-H ) :   0.9768 B( 36-C , 77-H ) :   0.9816 B( 36-C , 78-H ) :   0.9823
B( 37-C , 38-C ) :   1.2844 B( 37-C , 79-H ) :   0.9764 B( 38-C , 40-C ) :   1.2343
B( 39-C , 80-H ) :   0.9705 B( 40-C , 41-C ) :   1.2497 B( 41-C , 43-C ) :   1.1848
B( 42-C , 50-C ) :   1.6331 B( 42-C , 81-H ) :   0.9697 B( 43-C , 48-C ) :   1.6682
B( 43-C , 82-H ) :   0.9721 B( 44-C , 45-C ) :   1.2632 B( 44-C , 50-C ) :   1.2725
B( 44-C , 51-C ) :   1.2611 B( 45-C , 46-C ) :   1.6347 B( 45-C , 83-H ) :   0.9718
B( 46-C , 84-H ) :   0.9700 B( 47-C , 85-H ) :   0.9762 B( 47-C , 86-H ) :   0.9829
B( 47-C , 87-H ) :   0.9824 B( 48-C , 49-C ) :   1.1882 B( 48-C , 88-H ) :   0.9749
B( 49-C , 51-C ) :   1.2458 B( 50-C , 89-H ) :   0.9708 B( 54-H , 59-H ) :   0.1197
B( 60-H , 64-H ) :   0.1371

MP2 TOTAL ENERGY:    -2130.728921358 Eh
FINAL SINGLE POINT ENERGY     -2130.728921358345

DIPOLE MOMENT
-------------
                                X             Y             Z
Electronic contribution:      2.71144      -4.33505      -0.19459
Nuclear contribution   :      0.06568       0.23079       0.19674
                        -----------------------------------------
Total Dipole Moment    :      2.77712      -4.10426       0.00215
                        -----------------------------------------
Magnitude (a.u.)       :      4.95554
Magnitude (Debye)      :     12.59597

Rotational constants in cm-1:     0.001502     0.001480     0.000760
Rotational constants in MHz :    45.013959    44.359717    22.779981

                             ****ORCA TERMINATED NORMALLY****
TOTAL RUN TIME: 0 days 1 hours 19 minutes 43 seconds 259 msec
