                         Program Version 5.0.4 -  RELEASE  -
|  1> ! PAL2
|  2> ! mp2 cc-pvdz TightSCF  NoKeepInts
|  3>
|  4> %scf
|  5>   MaxCore 2000
|  6> end
|  7> %mp2
|  8>   MaxCore 2000
|  9> end
| 10> * xyz 0 1
| 11>    C       -4.93700         5.19000         0.30000
| 12>    C        1.47400         4.04100         0.05700
| 13>    C       -2.80200         4.09300         0.04900
| 14>    C       -2.23700         5.35700        -0.17800
| 15>    C       -3.03100         6.48600        -0.15600
| 16>    C       -5.17900         7.62500         0.13100
| 17>    C        0.13200         4.30700         0.06100
| 18>    C       -0.56900         3.05600         0.04700
| 19>    C        1.64900         2.61800         0.02300
| 20>    C       -4.18300         4.03300         0.29400
| 21>    N       -4.36100         6.39300         0.07600
| 22>    N        0.38800         2.06700         0.02500
| 23>    N       -2.01000         0.39500        -0.07500
| 24>    N       -0.38800        -2.07400        -0.02700
| 25>    N        2.01000        -0.40100         0.06500
| 26>    C       -1.96000         2.86100         0.02400
| 27>    C       -2.62300         1.61500        -0.01800
| 28>    C       -5.57300        -4.32900         1.06600
| 29>    C       -4.07300         1.47100         0.05600
| 30>    C       -4.10600        -2.75600        -0.02600
| 31>    C       -4.99500        -2.75700        -1.11100
| 32>    C       -6.13200        -3.54200        -1.07600
| 33>    C       -7.65100        -5.11300         0.04000
| 34>    C       -4.32400         0.14100         0.03700
| 35>    C       -3.02500        -0.52000        -0.04800
| 36>    C       -4.42200        -3.56600         1.07500
| 37>    N       -6.40700        -4.31300         0.00100
| 38>    C       -2.86700        -1.92200        -0.04000
| 39>    C       -1.65000        -2.62400        -0.02700
| 40>    C        3.56800        -6.14200        -1.04000
| 41>    C       -1.47600        -4.04900        -0.03400
| 42>    C        2.80300        -4.09900        -0.00800
| 43>    C        3.65700        -4.38400         1.06900
| 44>    C        4.42700        -5.53000         1.05900
| 45>    C        5.24500        -7.58800         0.01400
| 46>    C       -0.13400        -4.31500        -0.02200
| 47>    C        0.56800        -3.06400        -0.02700
| 48>    C        2.77500        -5.01200        -1.07400
| 49>    N        4.37600        -6.39100         0.01700
| 50>    C        1.95900        -2.86900        -0.00900
| 51>    C        2.62100        -1.62200         0.00900
| 52>    C        5.54300         4.33900        -1.13000
| 53>    C        4.07000        -1.47900        -0.09400
| 54>    C        4.10400         2.75100        -0.02100
| 55>    C        5.02700         2.72900         1.03600
| 56>    C        6.16600         3.50900         0.97800
| 57>    C        7.61900         5.15300        -0.11500
| 58>    C        4.32100        -0.14800        -0.09200
| 59>    C        3.02500         0.51400         0.01500
| 60>    C        4.38700         3.58200        -1.11500
| 61>    C        2.86600         1.91600         0.01300
| 62>    N        6.41300         4.29600        -0.09500
| 63>    H       -6.00600         5.18900         0.47200
| 64>    H        2.27400         4.76600         0.08100
| 65>    H       -1.17500         5.47000        -0.36300
| 66>    H       -2.64000         7.48200        -0.31700
| 67>    H       -5.13600         8.03600         1.14200
| 68>    H       -4.77800         8.34400        -0.58300
| 69>    H       -6.20700         7.37500        -0.12900
| 70>    H       -0.33200         5.28200         0.06900
| 71>    H       -4.68000         3.08400         0.46200
| 72>    H        0.18200         1.07200         0.00500
| 73>    H       -0.18300        -1.08000        -0.02100
| 74>    H       -5.86400        -4.96200         1.89500
| 75>    H       -4.79400         2.27200         0.13900
| 76>    H       -4.80000        -2.16000        -1.99400
| 77>    H       -6.84100        -3.58200        -1.89300
| 78>    H       -8.42800        -4.53600         0.54600
| 79>    H       -7.95600        -5.33700        -0.98100
| 80>    H       -7.45600        -6.03700         0.58400
| 81>    H       -5.28700        -0.34400         0.10000
| 82>    H       -3.78000        -3.60100         1.94700
| 83>    H        3.58700        -6.86800        -1.84300
| 84>    H       -2.27600        -4.77400        -0.05000
| 85>    H        3.71400        -3.72400         1.92600
| 86>    H        5.09200        -5.79500         1.87100
| 87>    H        6.20500        -7.32900        -0.43900
| 88>    H        5.39300        -7.91700         1.04200
| 89>    H        4.75900        -8.37300        -0.56400
| 90>    H        0.32900        -5.29000        -0.00800
| 91>    H        2.14600        -4.84200        -1.94000
| 92>    H        5.80800         4.98600        -1.95600
| 93>    H        4.78800        -2.28100        -0.18500
| 94>    H        4.86000         2.11400         1.91200
| 95>    H        6.90100         3.53100         1.77200
| 96>    H        7.38300         6.10900         0.35600
| 97>    H        8.41400         4.65200         0.43500
| 98>    H        7.92100         5.31000        -1.15000
| 99>    H        5.28300         0.33600        -0.17900
|100>    H        3.72000         3.63200        -1.96700
|101> *
|102>
|103>                          ****END OF INPUT****

CARTESIAN COORDINATES (ANGSTROEM)
---------------------------------
  C     -4.937000    5.190000    0.300000
  C      1.474000    4.041000    0.057000
  C     -2.802000    4.093000    0.049000
  C     -2.237000    5.357000   -0.178000
  C     -3.031000    6.486000   -0.156000
  C     -5.179000    7.625000    0.131000
  C      0.132000    4.307000    0.061000
  C     -0.569000    3.056000    0.047000
  C      1.649000    2.618000    0.023000
  C     -4.183000    4.033000    0.294000
  N     -4.361000    6.393000    0.076000
  N      0.388000    2.067000    0.025000
  N     -2.010000    0.395000   -0.075000
  N     -0.388000   -2.074000   -0.027000
  N      2.010000   -0.401000    0.065000
  C     -1.960000    2.861000    0.024000
  C     -2.623000    1.615000   -0.018000
  C     -5.573000   -4.329000    1.066000
  C     -4.073000    1.471000    0.056000
  C     -4.106000   -2.756000   -0.026000
  C     -4.995000   -2.757000   -1.111000
  C     -6.132000   -3.542000   -1.076000
  C     -7.651000   -5.113000    0.040000
  C     -4.324000    0.141000    0.037000
  C     -3.025000   -0.520000   -0.048000
  C     -4.422000   -3.566000    1.075000
  N     -6.407000   -4.313000    0.001000
  C     -2.867000   -1.922000   -0.040000
  C     -1.650000   -2.624000   -0.027000
  C      3.568000   -6.142000   -1.040000
  C     -1.476000   -4.049000   -0.034000
  C      2.803000   -4.099000   -0.008000
  C      3.657000   -4.384000    1.069000
  C      4.427000   -5.530000    1.059000
  C      5.245000   -7.588000    0.014000
  C     -0.134000   -4.315000   -0.022000
  C      0.568000   -3.064000   -0.027000
  C      2.775000   -5.012000   -1.074000
  N      4.376000   -6.391000    0.017000
  C      1.959000   -2.869000   -0.009000
  C      2.621000   -1.622000    0.009000
  C      5.543000    4.339000   -1.130000
  C      4.070000   -1.479000   -0.094000
  C      4.104000    2.751000   -0.021000
  C      5.027000    2.729000    1.036000
  C      6.166000    3.509000    0.978000
  C      7.619000    5.153000   -0.115000
  C      4.321000   -0.148000   -0.092000
  C      3.025000    0.514000    0.015000
  C      4.387000    3.582000   -1.115000
  C      2.866000    1.916000    0.013000
  N      6.413000    4.296000   -0.095000
  H     -6.006000    5.189000    0.472000
  H      2.274000    4.766000    0.081000
  H     -1.175000    5.470000   -0.363000
  H     -2.640000    7.482000   -0.317000
  H     -5.136000    8.036000    1.142000
  H     -4.778000    8.344000   -0.583000
  H     -6.207000    7.375000   -0.129000
  H     -0.332000    5.282000    0.069000
  H     -4.680000    3.084000    0.462000
  H      0.182000    1.072000    0.005000
  H     -0.183000   -1.080000   -0.021000
  H     -5.864000   -4.962000    1.895000
  H     -4.794000    2.272000    0.139000
  H     -4.800000   -2.160000   -1.994000
  H     -6.841000   -3.582000   -1.893000
  H     -8.428000   -4.536000    0.546000
  H     -7.956000   -5.337000   -0.981000
  H     -7.456000   -6.037000    0.584000
  H     -5.287000   -0.344000    0.100000
  H     -3.780000   -3.601000    1.947000
  H      3.587000   -6.868000   -1.843000
  H     -2.276000   -4.774000   -0.050000
  H      3.714000   -3.724000    1.926000
  H      5.092000   -5.795000    1.871000
  H      6.205000   -7.329000   -0.439000
  H      5.393000   -7.917000    1.042000
  H      4.759000   -8.373000   -0.564000
  H      0.329000   -5.290000   -0.008000
  H      2.146000   -4.842000   -1.940000
  H      5.808000    4.986000   -1.956000
  H      4.788000   -2.281000   -0.185000
  H      4.860000    2.114000    1.912000
  H      6.901000    3.531000    1.772000
  H      7.383000    6.109000    0.356000
  H      8.414000    4.652000    0.435000
  H      7.921000    5.310000   -1.150000
  H      5.283000    0.336000   -0.179000
  H      3.720000    3.632000   -1.967000

 Total Charge           Charge          ....    0
 Multiplicity           Mult            ....    1
 Number of Electrons    NEL             ....  358
 Basis Dimension        Dim             ....  918

ORBITAL ENERGIES
----------------

  NO   OCC          E(Eh)            E(eV)
   0   2.0000     -15.679724      -426.6670
   1   2.0000     -15.633576      -425.4112
   2   2.0000     -15.632232      -425.3746
   3   2.0000     -15.588311      -424.1795
   4   2.0000     -15.525017      -422.4572
   5   2.0000     -15.515609      -422.2012
   6   2.0000     -15.453855      -420.5208
   7   2.0000     -15.439527      -420.1309
   8   2.0000     -11.329321      -308.2865
   9   2.0000     -11.328341      -308.2598
  10   2.0000     -11.327884      -308.2474
  11   2.0000     -11.299076      -307.4635
  12   2.0000     -11.298617      -307.4510
  13   2.0000     -11.292688      -307.2897
  14   2.0000     -11.291537      -307.2583
  15   2.0000     -11.286901      -307.1322
  16   2.0000     -11.286167      -307.1122
  17   2.0000     -11.281971      -306.9980
  18   2.0000     -11.269880      -306.6690
  19   2.0000     -11.263300      -306.4900
  20   2.0000     -11.262304      -306.4629
  21   2.0000     -11.251012      -306.1556
  22   2.0000     -11.249417      -306.1122
  23   2.0000     -11.237350      -305.7838
  24   2.0000     -11.236991      -305.7741
  25   2.0000     -11.230833      -305.6065
  26   2.0000     -11.230077      -305.5859
  27   2.0000     -11.230031      -305.5847
  28   2.0000     -11.229872      -305.5804
  29   2.0000     -11.210916      -305.0645
  30   2.0000     -11.209515      -305.0264
  31   2.0000     -11.194311      -304.6127
  32   2.0000     -11.191737      -304.5427
  33   2.0000     -11.191390      -304.5332
  34   2.0000     -11.188508      -304.4548
  35   2.0000     -11.188281      -304.4486
  36   2.0000     -11.187099      -304.4164
  37   2.0000     -11.175364      -304.0971
  38   2.0000     -11.174573      -304.0756
  39   2.0000     -11.171976      -304.0049
  40   2.0000     -11.170915      -303.9761
  41   2.0000     -11.170882      -303.9751
  42   2.0000     -11.168218      -303.9027
  43   2.0000     -11.161961      -303.7324
  44   2.0000     -11.160632      -303.6962
  45   2.0000     -11.156783      -303.5915
  46   2.0000     -11.156512      -303.5841
  47   2.0000     -11.152028      -303.4621
  48   2.0000     -11.146982      -303.3248
  49   2.0000     -11.135274      -303.0062
  50   2.0000     -11.129512      -302.8494
  51   2.0000     -11.117392      -302.5196
  52   2.0000      -1.360318       -37.0161
  53   2.0000      -1.320874       -35.9428
  54   2.0000      -1.319962       -35.9180
  55   2.0000      -1.280666       -34.8487
  56   2.0000      -1.226084       -33.3634
  57   2.0000      -1.210417       -32.9371
  58   2.0000      -1.173526       -31.9333
  59   2.0000      -1.150632       -31.3103
  60   2.0000      -1.143595       -31.1188
  61   2.0000      -1.110230       -30.2109
  62   2.0000      -1.108979       -30.1768
  63   2.0000      -1.082009       -29.4430
  64   2.0000      -1.077527       -29.3210
  65   2.0000      -1.045067       -28.4377
  66   2.0000      -1.044598       -28.4250
  67   2.0000      -1.041082       -28.3293
  68   2.0000      -1.014917       -27.6173
  69   2.0000      -1.013970       -27.5915
  70   2.0000      -1.009124       -27.4597
  71   2.0000      -0.993474       -27.0338
  72   2.0000      -0.985689       -26.8220
  73   2.0000      -0.981726       -26.7141
  74   2.0000      -0.973473       -26.4896
  75   2.0000      -0.962209       -26.1830
  76   2.0000      -0.954741       -25.9798
  77   2.0000      -0.946190       -25.7471
  78   2.0000      -0.938235       -25.5307
  79   2.0000      -0.917013       -24.9532
  80   2.0000      -0.910496       -24.7759
  81   2.0000      -0.897408       -24.4197
  82   2.0000      -0.876841       -23.8601
  83   2.0000      -0.872025       -23.7290
  84   2.0000      -0.870862       -23.6974
  85   2.0000      -0.860470       -23.4146
  86   2.0000      -0.844123       -22.9698
  87   2.0000      -0.836801       -22.7705
  88   2.0000      -0.828273       -22.5385
  89   2.0000      -0.796558       -21.6754
  90   2.0000      -0.789187       -21.4749
  91   2.0000      -0.767997       -20.8983
  92   2.0000      -0.752924       -20.4881
  93   2.0000      -0.733749       -19.9663
  94   2.0000      -0.727368       -19.7927
  95   2.0000      -0.724890       -19.7253
  96   2.0000      -0.719676       -19.5834
  97   2.0000      -0.717366       -19.5205
  98   2.0000      -0.713404       -19.4127
  99   2.0000      -0.698500       -19.0072
 100   2.0000      -0.698208       -18.9992
 101   2.0000      -0.693844       -18.8804
 102   2.0000      -0.685320       -18.6485
 103   2.0000      -0.684270       -18.6199
 104   2.0000      -0.678812       -18.4714
 105   2.0000      -0.674486       -18.3537
 106   2.0000      -0.672668       -18.3042
 107   2.0000      -0.660774       -17.9806
 108   2.0000      -0.658162       -17.9095
 109   2.0000      -0.652750       -17.7622
 110   2.0000      -0.652157       -17.7461
 111   2.0000      -0.646125       -17.5820
 112   2.0000      -0.645563       -17.5667
 113   2.0000      -0.637814       -17.3558
 114   2.0000      -0.636118       -17.3096
 115   2.0000      -0.628451       -17.1010
 116   2.0000      -0.622993       -16.9525
 117   2.0000      -0.621084       -16.9005
 118   2.0000      -0.613037       -16.6816
 119   2.0000      -0.612043       -16.6545
 120   2.0000      -0.611837       -16.6489
 121   2.0000      -0.611317       -16.6348
 122   2.0000      -0.601406       -16.3651
 123   2.0000      -0.588614       -16.0170
 124   2.0000      -0.581425       -15.8214
 125   2.0000      -0.580950       -15.8085
 126   2.0000      -0.580242       -15.7892
 127   2.0000      -0.571146       -15.5417
 128   2.0000      -0.567379       -15.4392
 129   2.0000      -0.559896       -15.2356
 130   2.0000      -0.554927       -15.1003
 131   2.0000      -0.547893       -14.9089
 132   2.0000      -0.542714       -14.7680
 133   2.0000      -0.540765       -14.7150
 134   2.0000      -0.538627       -14.6568
 135   2.0000      -0.536227       -14.5915
 136   2.0000      -0.531642       -14.4667
 137   2.0000      -0.518890       -14.1197
 138   2.0000      -0.516731       -14.0610
 139   2.0000      -0.514755       -14.0072
 140   2.0000      -0.512056       -13.9337
 141   2.0000      -0.510182       -13.8828
 142   2.0000      -0.508179       -13.8282
 143   2.0000      -0.504964       -13.7408
 144   2.0000      -0.502577       -13.6758
 145   2.0000      -0.495947       -13.4954
 146   2.0000      -0.488646       -13.2967
 147   2.0000      -0.481576       -13.1043
 148   2.0000      -0.477225       -12.9860
 149   2.0000      -0.467674       -12.7261
 150   2.0000      -0.466349       -12.6900
 151   2.0000      -0.456596       -12.4246
 152   2.0000      -0.451574       -12.2879
 153   2.0000      -0.444899       -12.1063
 154   2.0000      -0.438450       -11.9308
 155   2.0000      -0.427598       -11.6355
 156   2.0000      -0.409530       -11.1439
 157   2.0000      -0.396123       -10.7791
 158   2.0000      -0.390417       -10.6238
 159   2.0000      -0.387592       -10.5469
 160   2.0000      -0.378502       -10.2996
 161   2.0000      -0.374990       -10.2040
 162   2.0000      -0.366892        -9.9836
 163   2.0000      -0.356498        -9.7008
 164   2.0000      -0.356018        -9.6877
 165   2.0000      -0.341909        -9.3038
 166   2.0000      -0.337655        -9.1881
 167   2.0000      -0.324580        -8.8323
 168   2.0000      -0.321514        -8.7489
 169   2.0000      -0.305267        -8.3068
 170   2.0000      -0.299400        -8.1471
 171   2.0000      -0.285694        -7.7741
 172   2.0000      -0.278702        -7.5839
 173   2.0000      -0.263651        -7.1743
 174   2.0000      -0.241775        -6.5790
 175   2.0000      -0.190002        -5.1702
 176   2.0000      -0.181144        -4.9292
 177   2.0000      -0.079641        -2.1671
 178   2.0000      -0.059659        -1.6234
 179   0.0000       0.028357         0.7716
 180   0.0000       0.065346         1.7782
 181   0.0000       0.090230         2.4553
 182   0.0000       0.106301         2.8926
 183   0.0000       0.115657         3.1472

MULLIKEN ATOMIC CHARGES
-----------------------
   0 C :    0.215583
   1 N :   -0.455655
   2 C :   -0.073301
   3 N :   -0.341416
   4 C :   -0.074152
   5 N :   -0.568185
   6 C :   -0.114501
   7 N :   -0.340932
   8 C :    0.217999
   9 N :   -0.562298
  10 C :    0.119488
  11 N :   -0.438517
  12 C :   -0.052753
  13 N :   -0.429362
  14 C :    0.219085
  15 N :   -0.440847
  16 C :    0.231929
  17 C :   -0.105576
  18 C :   -0.180762
  19 C :    0.214908
  20 C :    0.213576
  21 C :   -0.058690
  22 C :   -0.090975
  23 C :   -0.039467
  24 C :    0.193365
  25 C :    0.114653
  26 C :   -0.088533
  27 C :    0.216871
  28 C :   -0.061845
  29 C :   -0.181806
  30 C :    0.245798
  31 C :    0.230180
  32 C :   -0.061611
  33 C :   -0.060084
  34 C :   -0.051331
  35 C :    0.228729
  36 C :    0.108213
  37 C :   -0.064387
  38 C :    0.230999
  39 C :   -0.057532
  40 C :   -0.181575
  41 C :    0.226142
  42 C :    0.197453
  43 C :   -0.072449
  44 C :   -0.089215
  45 C :   -0.061551
  46 C :    0.211996
  47 C :    0.115285
  48 C :   -0.066670
  49 C :    0.238791
  50 C :   -0.046235
  51 C :   -0.193130
  52 H :    0.035006
  53 H :   -0.017959
  54 H :    0.042624
  55 H :    0.033815
  56 H :    0.049513
  57 H :    0.046711
  58 H :    0.047395
  59 H :   -0.013504
  60 H :    0.047316
  61 H :    0.171240
  62 H :    0.175473
  63 H :    0.055100
  64 H :   -0.033605
  65 H :    0.047107
  66 H :    0.055463
  67 H :    0.062284
  68 H :    0.057134
  69 H :    0.056229
  70 H :   -0.030664
  71 H :    0.044582
  72 H :    0.071439
  73 H :   -0.007941
  74 H :    0.060518
  75 H :    0.070897
  76 H :    0.075057
  77 H :    0.068092
  78 H :    0.067408
  79 H :   -0.016749
  80 H :    0.061472
  81 H :    0.054536
  82 H :   -0.024893
  83 H :    0.042142
  84 H :    0.054432
  85 H :    0.061095
  86 H :    0.055678
  87 H :    0.057349
  88 H :   -0.014404
  89 H :    0.046919
Sum of atomic charges:   -0.0000000

LOEWDIN ATOMIC CHARGES
----------------------
   0 C :   -0.020894
   1 N :    0.121452
   2 C :   -0.100832
   3 N :    0.182555
   4 C :   -0.011297
   5 N :   -0.134542
   6 C :   -0.030990
   7 N :    0.175075
   8 C :   -0.018928
   9 N :   -0.140665
  10 C :    0.023144
  11 N :    0.141675
  12 C :   -0.104628
  13 N :    0.166429
  14 C :   -0.016702
  15 N :    0.139120
  16 C :   -0.060681
  17 C :   -0.020972
  18 C :   -0.112079
  19 C :   -0.074052
  20 C :    0.004615
  21 C :   -0.102631
  22 C :    0.036853
  23 C :   -0.014474
  24 C :   -0.013031
  25 C :    0.029746
  26 C :   -0.108094
  27 C :   -0.116986
  28 C :   -0.027840
  29 C :   -0.099634
  30 C :   -0.029633
  31 C :    0.024369
  32 C :   -0.094401
  33 C :    0.082322
  34 C :   -0.015211
  35 C :    0.023428
  36 C :    0.035281
  37 C :   -0.094072
  38 C :   -0.052483
  39 C :   -0.017458
  40 C :   -0.108779
  41 C :   -0.090970
  42 C :   -0.010235
  43 C :   -0.099187
  44 C :    0.034252
  45 C :   -0.028147
  46 C :    0.002398
  47 C :    0.029583
  48 C :   -0.094633
  49 C :   -0.069295
  50 C :   -0.018598
  51 C :   -0.108602
  52 H :    0.022243
  53 H :    0.002525
  54 H :    0.005074
  55 H :    0.021995
  56 H :    0.021920
  57 H :    0.025922
  58 H :    0.027024
  59 H :    0.005607
  60 H :   -0.005640
  61 H :    0.060222
  62 H :    0.061881
  63 H :    0.030653
  64 H :   -0.003036
  65 H :    0.045903
  66 H :    0.029153
  67 H :    0.028150
  68 H :    0.031580
  69 H :    0.030230
  70 H :   -0.004985
  71 H :    0.043371
  72 H :    0.037766
  73 H :    0.007168
  74 H :    0.050724
  75 H :    0.037470
  76 H :    0.034876
  77 H :    0.036231
  78 H :    0.035921
  79 H :    0.002892
  80 H :    0.050829
  81 H :    0.029151
  82 H :   -0.002752
  83 H :    0.042597
  84 H :    0.030006
  85 H :    0.027496
  86 H :    0.030246
  87 H :    0.031469
  88 H :    0.002431
  89 H :    0.045046

  Mayer bond orders larger than 0.100000
B(  0-C ,  1-N ) :   1.0932 B(  0-C , 17-C ) :   1.7231 B(  0-C , 52-H ) :   0.9614
B(  1-N ,  8-C ) :   1.0978 B(  1-N , 10-C ) :   0.9771 B(  2-C , 12-C ) :   1.4881
B(  2-C , 16-C ) :   1.3727 B(  2-C , 53-H ) :   0.9721 B(  3-N , 14-C ) :   1.2221
B(  3-N , 16-C ) :   1.1799 B(  3-N , 61-H ) :   0.8985 B(  4-C ,  6-C ) :   1.2202
B(  4-C , 17-C ) :   1.2180 B(  4-C , 18-C ) :   1.4745 B(  5-N , 19-C ) :   1.4605
B(  5-N , 27-C ) :   1.3702 B(  6-C ,  8-C ) :   1.7155 B(  6-C , 54-H ) :   0.8936
B(  7-N , 30-C ) :   1.1955 B(  7-N , 38-C ) :   1.1894 B(  7-N , 62-H ) :   0.8968
B(  8-C , 55-H ) :   0.9629 B(  9-N , 41-C ) :   1.3946 B(  9-N , 49-C ) :   1.4248
B( 10-C , 56-H ) :   0.9776 B( 10-C , 57-H ) :   0.9824 B( 10-C , 58-H ) :   0.9840
B( 11-N , 20-C ) :   1.1310 B( 11-N , 24-C ) :   1.1064 B( 11-N , 25-C ) :   0.9604
B( 12-C , 14-C ) :   1.3581 B( 12-C , 59-H ) :   0.9301 B( 13-N , 31-C ) :   1.1615
B( 13-N , 35-C ) :   1.1607 B( 13-N , 36-C ) :   0.9412 B( 14-C , 18-C ) :   1.1188
B( 15-N , 42-C ) :   1.1081 B( 15-N , 46-C ) :   1.1250 B( 15-N , 47-C ) :   0.9610
B( 16-C , 51-C ) :   1.1677 B( 17-C , 60-H ) :   0.8746 B( 18-C , 19-C ) :   1.1174
B( 19-C , 21-C ) :   1.2535 B( 20-C , 28-C ) :   1.6291 B( 20-C , 63-H ) :   0.9703
B( 21-C , 26-C ) :   1.5797 B( 21-C , 64-H ) :   0.9091 B( 22-C , 23-C ) :   1.2891
B( 22-C , 28-C ) :   1.2633 B( 22-C , 29-C ) :   1.2261 B( 23-C , 24-C ) :   1.6206
B( 23-C , 65-H ) :   0.9703 B( 24-C , 66-H ) :   0.9695 B( 25-C , 67-H ) :   0.9761
B( 25-C , 68-H ) :   0.9828 B( 25-C , 69-H ) :   0.9823 B( 26-C , 27-C ) :   1.2627
B( 26-C , 70-H ) :   0.9672 B( 27-C , 29-C ) :   1.2060 B( 28-C , 71-H ) :   0.9720
B( 29-C , 30-C ) :   1.2470 B( 30-C , 32-C ) :   1.2788 B( 31-C , 39-C ) :   1.5875
B( 31-C , 72-H ) :   0.9681 B( 32-C , 37-C ) :   1.5799 B( 32-C , 73-H ) :   0.9786
B( 33-C , 34-C ) :   1.3070 B( 33-C , 39-C ) :   1.3044 B( 33-C , 40-C ) :   1.1759
B( 34-C , 35-C ) :   1.5852 B( 34-C , 74-H ) :   0.9696 B( 35-C , 75-H ) :   0.9681
B( 36-C , 76-H ) :   0.9768 B( 36-C , 77-H ) :   0.9816 B( 36-C , 78-H ) :   0.9823
B( 37-C , 38-C ) :   1.2850 B( 37-C , 79-H ) :   0.9764 B( 38-C , 40-C ) :   1.2340
B( 39-C , 80-H ) :   0.9705 B( 40-C , 41-C ) :   1.2507 B( 41-C , 43-C ) :   1.1840
B( 42-C , 50-C ) :   1.6325 B( 42-C , 81-H ) :   0.9696 B( 43-C , 48-C ) :   1.6689
B( 43-C , 82-H ) :   0.9721 B( 44-C , 45-C ) :   1.2639 B( 44-C , 50-C ) :   1.2730
B( 44-C , 51-C ) :   1.2600 B( 45-C , 46-C ) :   1.6341 B( 45-C , 83-H ) :   0.9718
B( 46-C , 84-H ) :   0.9700 B( 47-C , 85-H ) :   0.9762 B( 47-C , 86-H ) :   0.9829
B( 47-C , 87-H ) :   0.9824 B( 48-C , 49-C ) :   1.1874 B( 48-C , 88-H ) :   0.9748
B( 49-C , 51-C ) :   1.2453 B( 50-C , 89-H ) :   0.9708 B( 60-H , 64-H ) :   0.1044

MP2 TOTAL ENERGY:    -2130.777585876 Eh
FINAL SINGLE POINT ENERGY     -2130.777585875893

DIPOLE MOMENT
-------------
                                X             Y             Z
Electronic contribution:      2.77365      -4.33848      -0.18789
Nuclear contribution   :      0.07257       0.23351       0.18628
                        -----------------------------------------
Total Dipole Moment    :      2.84622      -4.10496      -0.00161
                        -----------------------------------------
Magnitude (a.u.)       :      4.99517
Magnitude (Debye)      :     12.69671

Rotational constants in cm-1:     0.001501     0.001479     0.000760
Rotational constants in MHz :    45.008936    44.353193    22.783385

                             ****ORCA TERMINATED NORMALLY****
TOTAL RUN TIME: 0 days 1 hours 18 minutes 25 seconds 926 msec
