                         Program Version 5.0.4 -  RELEASE  -
|  1> ! PAL2
|  2> ! mp2 cc-pvdz TightSCF  NoKeepInts
|  3>
|  4> %scf
|  5>   MaxCore 2000
|  6> end
|  7> %mp2
|  8>   MaxCore 2000
|  9> end
| 10> * xyz 0 1
| 11>    C       -4.61100         5.39900         0.96900
| 12>    C        1.47400         4.04100         0.05700
| 13>    C       -2.80200         4.09300         0.04900
| 14>    C       -2.58200         5.13500        -0.86500
| 15>    C       -3.37400         6.26600        -0.83100
| 16>    C       -5.17900         7.62500         0.10900
| 17>    C        0.13200         4.30700         0.06100
| 18>    C       -0.56900         3.05600         0.04700
| 19>    C        1.64900         2.61800         0.02300
| 20>    C       -3.84200         4.25200         0.97800
| 21>    N       -4.37300         6.38500         0.07400
| 22>    N        0.38800         2.06700         0.02500
| 23>    N       -2.01000         0.39500        -0.07500
| 24>    N       -0.38800        -2.07400        -0.02700
| 25>    N        2.01000        -0.40100         0.06500
| 26>    C       -1.96000         2.86100         0.02400
| 27>    C       -2.62300         1.61500        -0.01800
| 28>    C       -5.57300        -4.32900         1.06600
| 29>    C       -4.07300         1.47100         0.05600
| 30>    C       -4.10600        -2.75600        -0.02600
| 31>    C       -4.99500        -2.75700        -1.11100
| 32>    C       -6.13200        -3.54200        -1.07600
| 33>    C       -7.65100        -5.11300         0.04000
| 34>    C       -4.32400         0.14100         0.03700
| 35>    C       -3.02500        -0.52000        -0.04800
| 36>    C       -4.42200        -3.56600         1.07500
| 37>    N       -6.40700        -4.31300         0.00100
| 38>    C       -2.86700        -1.92200        -0.04000
| 39>    C       -1.65000        -2.62400        -0.02700
| 40>    C        3.56800        -6.14200        -1.04000
| 41>    C       -1.47600        -4.04900        -0.03400
| 42>    C        2.80300        -4.09900        -0.00800
| 43>    C        3.65700        -4.38400         1.06900
| 44>    C        4.42700        -5.53000         1.05900
| 45>    C        5.24500        -7.58800         0.01400
| 46>    C       -0.13400        -4.31500        -0.02200
| 47>    C        0.56800        -3.06400        -0.02700
| 48>    C        2.77500        -5.01200        -1.07400
| 49>    N        4.37600        -6.39100         0.01700
| 50>    C        1.95900        -2.86900        -0.00900
| 51>    C        2.62100        -1.62200         0.00900
| 52>    C        5.54300         4.33900        -1.13000
| 53>    C        4.07000        -1.47900        -0.09400
| 54>    C        4.10400         2.75100        -0.02100
| 55>    C        5.02700         2.72900         1.03600
| 56>    C        6.16600         3.50900         0.97800
| 57>    C        7.61900         5.15300        -0.11500
| 58>    C        4.32100        -0.14800        -0.09200
| 59>    C        3.02500         0.51400         0.01500
| 60>    C        4.38700         3.58200        -1.11500
| 61>    C        2.86600         1.91600         0.01300
| 62>    N        6.41300         4.29600        -0.09500
| 63>    H       -5.43000         5.55900         1.65900
| 64>    H        2.27400         4.76600         0.08100
| 65>    H       -1.78900         5.07600        -1.60000
| 66>    H       -3.23700         7.09800        -1.50900
| 67>    H       -4.66800         8.36400         0.73100
| 68>    H       -5.28800         8.00200        -0.90800
| 69>    H       -6.15800         7.39500         0.52900
| 70>    H       -0.33200         5.28200         0.06900
| 71>    H       -4.07000         3.47700         1.70100
| 72>    H        0.18200         1.07200         0.00500
| 73>    H       -0.18300        -1.08000        -0.02100
| 74>    H       -5.86400        -4.96200         1.89500
| 75>    H       -4.79400         2.27200         0.13900
| 76>    H       -4.80000        -2.16000        -1.99400
| 77>    H       -6.84100        -3.58200        -1.89300
| 78>    H       -8.42800        -4.53600         0.54600
| 79>    H       -7.95600        -5.33700        -0.98100
| 80>    H       -7.45600        -6.03700         0.58400
| 81>    H       -5.28700        -0.34400         0.10000
| 82>    H       -3.78000        -3.60100         1.94700
| 83>    H        3.58700        -6.86800        -1.84300
| 84>    H       -2.27600        -4.77400        -0.05000
| 85>    H        3.71400        -3.72400         1.92600
| 86>    H        5.09200        -5.79500         1.87100
| 87>    H        6.20500        -7.32900        -0.43900
| 88>    H        5.39300        -7.91700         1.04200
| 89>    H        4.75900        -8.37300        -0.56400
| 90>    H        0.32900        -5.29000        -0.00800
| 91>    H        2.14600        -4.84200        -1.94000
| 92>    H        5.80800         4.98600        -1.95600
| 93>    H        4.78800        -2.28100        -0.18500
| 94>    H        4.86000         2.11400         1.91200
| 95>    H        6.90100         3.53100         1.77200
| 96>    H        7.38300         6.10900         0.35600
| 97>    H        8.41400         4.65200         0.43500
| 98>    H        7.92100         5.31000        -1.15000
| 99>    H        5.28300         0.33600        -0.17900
|100>    H        3.72000         3.63200        -1.96700
|101> *
|102>
|103>                          ****END OF INPUT****

CARTESIAN COORDINATES (ANGSTROEM)
---------------------------------
  C     -4.611000    5.399000    0.969000
  C      1.474000    4.041000    0.057000
  C     -2.802000    4.093000    0.049000
  C     -2.582000    5.135000   -0.865000
  C     -3.374000    6.266000   -0.831000
  C     -5.179000    7.625000    0.109000
  C      0.132000    4.307000    0.061000
  C     -0.569000    3.056000    0.047000
  C      1.649000    2.618000    0.023000
  C     -3.842000    4.252000    0.978000
  N     -4.373000    6.385000    0.074000
  N      0.388000    2.067000    0.025000
  N     -2.010000    0.395000   -0.075000
  N     -0.388000   -2.074000   -0.027000
  N      2.010000   -0.401000    0.065000
  C     -1.960000    2.861000    0.024000
  C     -2.623000    1.615000   -0.018000
  C     -5.573000   -4.329000    1.066000
  C     -4.073000    1.471000    0.056000
  C     -4.106000   -2.756000   -0.026000
  C     -4.995000   -2.757000   -1.111000
  C     -6.132000   -3.542000   -1.076000
  C     -7.651000   -5.113000    0.040000
  C     -4.324000    0.141000    0.037000
  C     -3.025000   -0.520000   -0.048000
  C     -4.422000   -3.566000    1.075000
  N     -6.407000   -4.313000    0.001000
  C     -2.867000   -1.922000   -0.040000
  C     -1.650000   -2.624000   -0.027000
  C      3.568000   -6.142000   -1.040000
  C     -1.476000   -4.049000   -0.034000
  C      2.803000   -4.099000   -0.008000
  C      3.657000   -4.384000    1.069000
  C      4.427000   -5.530000    1.059000
  C      5.245000   -7.588000    0.014000
  C     -0.134000   -4.315000   -0.022000
  C      0.568000   -3.064000   -0.027000
  C      2.775000   -5.012000   -1.074000
  N      4.376000   -6.391000    0.017000
  C      1.959000   -2.869000   -0.009000
  C      2.621000   -1.622000    0.009000
  C      5.543000    4.339000   -1.130000
  C      4.070000   -1.479000   -0.094000
  C      4.104000    2.751000   -0.021000
  C      5.027000    2.729000    1.036000
  C      6.166000    3.509000    0.978000
  C      7.619000    5.153000   -0.115000
  C      4.321000   -0.148000   -0.092000
  C      3.025000    0.514000    0.015000
  C      4.387000    3.582000   -1.115000
  C      2.866000    1.916000    0.013000
  N      6.413000    4.296000   -0.095000
  H     -5.430000    5.559000    1.659000
  H      2.274000    4.766000    0.081000
  H     -1.789000    5.076000   -1.600000
  H     -3.237000    7.098000   -1.509000
  H     -4.668000    8.364000    0.731000
  H     -5.288000    8.002000   -0.908000
  H     -6.158000    7.395000    0.529000
  H     -0.332000    5.282000    0.069000
  H     -4.070000    3.477000    1.701000
  H      0.182000    1.072000    0.005000
  H     -0.183000   -1.080000   -0.021000
  H     -5.864000   -4.962000    1.895000
  H     -4.794000    2.272000    0.139000
  H     -4.800000   -2.160000   -1.994000
  H     -6.841000   -3.582000   -1.893000
  H     -8.428000   -4.536000    0.546000
  H     -7.956000   -5.337000   -0.981000
  H     -7.456000   -6.037000    0.584000
  H     -5.287000   -0.344000    0.100000
  H     -3.780000   -3.601000    1.947000
  H      3.587000   -6.868000   -1.843000
  H     -2.276000   -4.774000   -0.050000
  H      3.714000   -3.724000    1.926000
  H      5.092000   -5.795000    1.871000
  H      6.205000   -7.329000   -0.439000
  H      5.393000   -7.917000    1.042000
  H      4.759000   -8.373000   -0.564000
  H      0.329000   -5.290000   -0.008000
  H      2.146000   -4.842000   -1.940000
  H      5.808000    4.986000   -1.956000
  H      4.788000   -2.281000   -0.185000
  H      4.860000    2.114000    1.912000
  H      6.901000    3.531000    1.772000
  H      7.383000    6.109000    0.356000
  H      8.414000    4.652000    0.435000
  H      7.921000    5.310000   -1.150000
  H      5.283000    0.336000   -0.179000
  H      3.720000    3.632000   -1.967000

 Total Charge           Charge          ....    0
 Multiplicity           Mult            ....    1
 Number of Electrons    NEL             ....  358
 Basis Dimension        Dim             ....  918

ORBITAL ENERGIES
----------------

  NO   OCC          E(Eh)            E(eV)
   0   2.0000     -15.650252      -425.8650
   1   2.0000     -15.637936      -425.5299
   2   2.0000     -15.629490      -425.3000
   3   2.0000     -15.612485      -424.8373
   4   2.0000     -15.520932      -422.3460
   5   2.0000     -15.516340      -422.2211
   6   2.0000     -15.446883      -420.3311
   7   2.0000     -15.443419      -420.2368
   8   2.0000     -11.309625      -307.7505
   9   2.0000     -11.305130      -307.6282
  10   2.0000     -11.302962      -307.5692
  11   2.0000     -11.301734      -307.5358
  12   2.0000     -11.296630      -307.3969
  13   2.0000     -11.294544      -307.3402
  14   2.0000     -11.291697      -307.2627
  15   2.0000     -11.287242      -307.1415
  16   2.0000     -11.286765      -307.1285
  17   2.0000     -11.285828      -307.1030
  18   2.0000     -11.274068      -306.7830
  19   2.0000     -11.273194      -306.7592
  20   2.0000     -11.254155      -306.2411
  21   2.0000     -11.242392      -305.9210
  22   2.0000     -11.241495      -305.8966
  23   2.0000     -11.241287      -305.8910
  24   2.0000     -11.234041      -305.6938
  25   2.0000     -11.233738      -305.6855
  26   2.0000     -11.232958      -305.6643
  27   2.0000     -11.227614      -305.5189
  28   2.0000     -11.227461      -305.5147
  29   2.0000     -11.220549      -305.3267
  30   2.0000     -11.215284      -305.1834
  31   2.0000     -11.213819      -305.1435
  32   2.0000     -11.203331      -304.8581
  33   2.0000     -11.202757      -304.8425
  34   2.0000     -11.192992      -304.5768
  35   2.0000     -11.192500      -304.5634
  36   2.0000     -11.177613      -304.1583
  37   2.0000     -11.176251      -304.1212
  38   2.0000     -11.175981      -304.1139
  39   2.0000     -11.172282      -304.0133
  40   2.0000     -11.168062      -303.8984
  41   2.0000     -11.167941      -303.8951
  42   2.0000     -11.166583      -303.8582
  43   2.0000     -11.164263      -303.7950
  44   2.0000     -11.163539      -303.7753
  45   2.0000     -11.161596      -303.7225
  46   2.0000     -11.151469      -303.4469
  47   2.0000     -11.148599      -303.3688
  48   2.0000     -11.148535      -303.3671
  49   2.0000     -11.145913      -303.2957
  50   2.0000     -11.139841      -303.1305
  51   2.0000     -11.135455      -303.0111
  52   2.0000      -1.335194       -36.3325
  53   2.0000      -1.324571       -36.0434
  54   2.0000      -1.317381       -35.8477
  55   2.0000      -1.303616       -35.4732
  56   2.0000      -1.220082       -33.2001
  57   2.0000      -1.212251       -32.9870
  58   2.0000      -1.164172       -31.6787
  59   2.0000      -1.156451       -31.4686
  60   2.0000      -1.122321       -30.5399
  61   2.0000      -1.112742       -30.2792
  62   2.0000      -1.106663       -30.1138
  63   2.0000      -1.095630       -29.8136
  64   2.0000      -1.058623       -28.8066
  65   2.0000      -1.048475       -28.5304
  66   2.0000      -1.042039       -28.3553
  67   2.0000      -1.029934       -28.0259
  68   2.0000      -1.028876       -27.9971
  69   2.0000      -1.011436       -27.5226
  70   2.0000      -1.009637       -27.4736
  71   2.0000      -0.995908       -27.1000
  72   2.0000      -0.984364       -26.7859
  73   2.0000      -0.975021       -26.5317
  74   2.0000      -0.971596       -26.4385
  75   2.0000      -0.959482       -26.1088
  76   2.0000      -0.951809       -25.9000
  77   2.0000      -0.945875       -25.7386
  78   2.0000      -0.939038       -25.5525
  79   2.0000      -0.923068       -25.1179
  80   2.0000      -0.894981       -24.3537
  81   2.0000      -0.884022       -24.0555
  82   2.0000      -0.875503       -23.8237
  83   2.0000      -0.869466       -23.6594
  84   2.0000      -0.862373       -23.4664
  85   2.0000      -0.856524       -23.3072
  86   2.0000      -0.848975       -23.1018
  87   2.0000      -0.841707       -22.9040
  88   2.0000      -0.822000       -22.3678
  89   2.0000      -0.798730       -21.7345
  90   2.0000      -0.797236       -21.6939
  91   2.0000      -0.740634       -20.1537
  92   2.0000      -0.733039       -19.9470
  93   2.0000      -0.729896       -19.8615
  94   2.0000      -0.721566       -19.6348
  95   2.0000      -0.720434       -19.6040
  96   2.0000      -0.712741       -19.3947
  97   2.0000      -0.707637       -19.2558
  98   2.0000      -0.699978       -19.0474
  99   2.0000      -0.693981       -18.8842
 100   2.0000      -0.688169       -18.7260
 101   2.0000      -0.681289       -18.5388
 102   2.0000      -0.679072       -18.4785
 103   2.0000      -0.673999       -18.3404
 104   2.0000      -0.669946       -18.2302
 105   2.0000      -0.665172       -18.1003
 106   2.0000      -0.664916       -18.0933
 107   2.0000      -0.659175       -17.9371
 108   2.0000      -0.658197       -17.9105
 109   2.0000      -0.656479       -17.8637
 110   2.0000      -0.652251       -17.7487
 111   2.0000      -0.649318       -17.6688
 112   2.0000      -0.646619       -17.5954
 113   2.0000      -0.639301       -17.3963
 114   2.0000      -0.635673       -17.2975
 115   2.0000      -0.624601       -16.9963
 116   2.0000      -0.624068       -16.9818
 117   2.0000      -0.615351       -16.7445
 118   2.0000      -0.612582       -16.6692
 119   2.0000      -0.609763       -16.5925
 120   2.0000      -0.609156       -16.5760
 121   2.0000      -0.603471       -16.4213
 122   2.0000      -0.596721       -16.2376
 123   2.0000      -0.592444       -16.1212
 124   2.0000      -0.591653       -16.0997
 125   2.0000      -0.584099       -15.8942
 126   2.0000      -0.578990       -15.7551
 127   2.0000      -0.573957       -15.6182
 128   2.0000      -0.568059       -15.4577
 129   2.0000      -0.559770       -15.2321
 130   2.0000      -0.553811       -15.0700
 131   2.0000      -0.547379       -14.8949
 132   2.0000      -0.541129       -14.7249
 133   2.0000      -0.536277       -14.5928
 134   2.0000      -0.534400       -14.5418
 135   2.0000      -0.529059       -14.3964
 136   2.0000      -0.526199       -14.3186
 137   2.0000      -0.522678       -14.2228
 138   2.0000      -0.520349       -14.1594
 139   2.0000      -0.516478       -14.0541
 140   2.0000      -0.510520       -13.8919
 141   2.0000      -0.506583       -13.7848
 142   2.0000      -0.505683       -13.7603
 143   2.0000      -0.501373       -13.6431
 144   2.0000      -0.500506       -13.6195
 145   2.0000      -0.498400       -13.5622
 146   2.0000      -0.495365       -13.4796
 147   2.0000      -0.491687       -13.3795
 148   2.0000      -0.489921       -13.3314
 149   2.0000      -0.469573       -12.7777
 150   2.0000      -0.461537       -12.5591
 151   2.0000      -0.453224       -12.3328
 152   2.0000      -0.448187       -12.1958
 153   2.0000      -0.446859       -12.1596
 154   2.0000      -0.446174       -12.1410
 155   2.0000      -0.439591       -11.9619
 156   2.0000      -0.435251       -11.8438
 157   2.0000      -0.430663       -11.7189
 158   2.0000      -0.394334       -10.7304
 159   2.0000      -0.385396       -10.4872
 160   2.0000      -0.377800       -10.2805
 161   2.0000      -0.372042       -10.1238
 162   2.0000      -0.367722       -10.0062
 163   2.0000      -0.359027        -9.7696
 164   2.0000      -0.353722        -9.6253
 165   2.0000      -0.341945        -9.3048
 166   2.0000      -0.337132        -9.1738
 167   2.0000      -0.334313        -9.0971
 168   2.0000      -0.328971        -8.9518
 169   2.0000      -0.300258        -8.1704
 170   2.0000      -0.297826        -8.1042
 171   2.0000      -0.288434        -7.8487
 172   2.0000      -0.286796        -7.8041
 173   2.0000      -0.257000        -6.9933
 174   2.0000      -0.247773        -6.7423
 175   2.0000      -0.188730        -5.1356
 176   2.0000      -0.178761        -4.8643
 177   2.0000      -0.068723        -1.8701
 178   2.0000      -0.055383        -1.5070
 179   0.0000       0.030188         0.8214
 180   0.0000       0.070051         1.9062
 181   0.0000       0.092682         2.5220
 182   0.0000       0.099807         2.7159
 183   0.0000       0.126341         3.4379

MULLIKEN ATOMIC CHARGES
-----------------------
   0 C :    0.208869
   1 N :   -0.447443
   2 C :   -0.063186
   3 N :   -0.336402
   4 C :   -0.055767
   5 N :   -0.562970
   6 C :   -0.083467
   7 N :   -0.338611
   8 C :    0.203028
   9 N :   -0.563013
  10 C :    0.116088
  11 N :   -0.437528
  12 C :   -0.077535
  13 N :   -0.436360
  14 C :    0.244301
  15 N :   -0.440902
  16 C :    0.230657
  17 C :   -0.089876
  18 C :   -0.215945
  19 C :    0.240441
  20 C :    0.210333
  21 C :   -0.090458
  22 C :   -0.088379
  23 C :   -0.045270
  24 C :    0.201508
  25 C :    0.114014
  26 C :   -0.072256
  27 C :    0.218398
  28 C :   -0.055818
  29 C :   -0.182875
  30 C :    0.239053
  31 C :    0.217528
  32 C :   -0.064191
  33 C :   -0.074266
  34 C :   -0.050386
  35 C :    0.212315
  36 C :    0.112125
  37 C :   -0.066080
  38 C :    0.235079
  39 C :   -0.060126
  40 C :   -0.186687
  41 C :    0.222837
  42 C :    0.201045
  43 C :   -0.073026
  44 C :   -0.089298
  45 C :   -0.055540
  46 C :    0.206069
  47 C :    0.115555
  48 C :   -0.071738
  49 C :    0.230670
  50 C :   -0.050738
  51 C :   -0.189729
  52 H :    0.049022
  53 H :   -0.014748
  54 H :    0.046494
  55 H :    0.046847
  56 H :    0.055064
  57 H :    0.053194
  58 H :    0.052691
  59 H :   -0.006693
  60 H :    0.049968
  61 H :    0.172226
  62 H :    0.173740
  63 H :    0.056396
  64 H :   -0.013746
  65 H :    0.047620
  66 H :    0.057326
  67 H :    0.062791
  68 H :    0.058086
  69 H :    0.058144
  70 H :   -0.026047
  71 H :    0.046913
  72 H :    0.061479
  73 H :   -0.012091
  74 H :    0.051339
  75 H :    0.060636
  76 H :    0.066337
  77 H :    0.061462
  78 H :    0.060699
  79 H :   -0.014782
  80 H :    0.051885
  81 H :    0.053508
  82 H :   -0.023862
  83 H :    0.042728
  84 H :    0.053523
  85 H :    0.059658
  86 H :    0.056014
  87 H :    0.056697
  88 H :   -0.019069
  89 H :    0.044504
Sum of atomic charges:   -0.0000000

LOEWDIN ATOMIC CHARGES
----------------------
   0 C :   -0.010391
   1 N :    0.127652
   2 C :   -0.100779
   3 N :    0.180778
   4 C :    0.018491
   5 N :   -0.136137
   6 C :   -0.029186
   7 N :    0.177143
   8 C :   -0.014073
   9 N :   -0.139737
  10 C :    0.026538
  11 N :    0.144187
  12 C :   -0.104952
  13 N :    0.149997
  14 C :   -0.039278
  15 N :    0.138453
  16 C :   -0.051307
  17 C :   -0.031480
  18 C :   -0.105587
  19 C :   -0.084584
  20 C :    0.002455
  21 C :   -0.109758
  22 C :    0.041003
  23 C :   -0.017770
  24 C :   -0.005027
  25 C :    0.030311
  26 C :   -0.103546
  27 C :   -0.102998
  28 C :   -0.023386
  29 C :   -0.104697
  30 C :   -0.040257
  31 C :    0.009272
  32 C :   -0.097841
  33 C :    0.054451
  34 C :   -0.018136
  35 C :    0.004881
  36 C :    0.031567
  37 C :   -0.098958
  38 C :   -0.045207
  39 C :   -0.022598
  40 C :   -0.108685
  41 C :   -0.092654
  42 C :   -0.007536
  43 C :   -0.102570
  44 C :    0.033392
  45 C :   -0.024329
  46 C :   -0.002969
  47 C :    0.029324
  48 C :   -0.100805
  49 C :   -0.082418
  50 C :   -0.021965
  51 C :   -0.108484
  52 H :    0.027456
  53 H :    0.003968
  54 H :    0.041437
  55 H :    0.026524
  56 H :    0.024512
  57 H :    0.028883
  58 H :    0.029435
  59 H :    0.006021
  60 H :    0.042990
  61 H :    0.060379
  62 H :    0.060969
  63 H :    0.031064
  64 H :    0.001037
  65 H :    0.045794
  66 H :    0.030252
  67 H :    0.028477
  68 H :    0.032011
  69 H :    0.031071
  70 H :   -0.002775
  71 H :    0.044687
  72 H :    0.033106
  73 H :    0.005145
  74 H :    0.046877
  75 H :    0.032504
  76 H :    0.030351
  77 H :    0.033109
  78 H :    0.032778
  79 H :    0.003874
  80 H :    0.046606
  81 H :    0.028850
  82 H :   -0.002126
  83 H :    0.043187
  84 H :    0.029394
  85 H :    0.026818
  86 H :    0.030350
  87 H :    0.031158
  88 H :    0.000200
  89 H :    0.043819

  Mayer bond orders larger than 0.100000
B(  0-C ,  1-N ) :   1.1046 B(  0-C , 17-C ) :   1.6654 B(  0-C , 52-H ) :   0.9689
B(  1-N ,  8-C ) :   1.1006 B(  1-N , 10-C ) :   0.9690 B(  2-C , 12-C ) :   1.5257
B(  2-C , 16-C ) :   1.3366 B(  2-C , 53-H ) :   0.9771 B(  3-N , 14-C ) :   1.2093
B(  3-N , 16-C ) :   1.1944 B(  3-N , 61-H ) :   0.8987 B(  4-C ,  6-C ) :   1.2411
B(  4-C , 17-C ) :   1.2401 B(  4-C , 18-C ) :   1.3403 B(  5-N , 19-C ) :   1.4343
B(  5-N , 27-C ) :   1.3930 B(  6-C ,  8-C ) :   1.6647 B(  6-C , 54-H ) :   0.9691
B(  7-N , 30-C ) :   1.1946 B(  7-N , 38-C ) :   1.1979 B(  7-N , 62-H ) :   0.8978
B(  8-C , 55-H ) :   0.9697 B(  9-N , 41-C ) :   1.4030 B(  9-N , 49-C ) :   1.4192
B( 10-C , 56-H ) :   0.9764 B( 10-C , 57-H ) :   0.9819 B( 10-C , 58-H ) :   0.9839
B( 11-N , 20-C ) :   1.1279 B( 11-N , 24-C ) :   1.1175 B( 11-N , 25-C ) :   0.9586
B( 12-C , 14-C ) :   1.3380 B( 12-C , 59-H ) :   0.9751 B( 13-N , 31-C ) :   1.1364
B( 13-N , 35-C ) :   1.1310 B( 13-N , 36-C ) :   0.9535 B( 14-C , 18-C ) :   1.1687
B( 15-N , 42-C ) :   1.1126 B( 15-N , 46-C ) :   1.1174 B( 15-N , 47-C ) :   0.9620
B( 16-C , 51-C ) :   1.1878 B( 17-C , 60-H ) :   0.9688 B( 18-C , 19-C ) :   1.1814
B( 19-C , 21-C ) :   1.2215 B( 20-C , 28-C ) :   1.6242 B( 20-C , 63-H ) :   0.9702
B( 21-C , 26-C ) :   1.6345 B( 21-C , 64-H ) :   0.9704 B( 22-C , 23-C ) :   1.2871
B( 22-C , 28-C ) :   1.2713 B( 22-C , 29-C ) :   1.2242 B( 23-C , 24-C ) :   1.6177
B( 23-C , 65-H ) :   0.9707 B( 24-C , 66-H ) :   0.9692 B( 25-C , 67-H ) :   0.9761
B( 25-C , 68-H ) :   0.9829 B( 25-C , 69-H ) :   0.9822 B( 26-C , 27-C ) :   1.2194
B( 26-C , 70-H ) :   0.9726 B( 27-C , 29-C ) :   1.2278 B( 28-C , 71-H ) :   0.9716
B( 29-C , 30-C ) :   1.2204 B( 30-C , 32-C ) :   1.3028 B( 31-C , 39-C ) :   1.6163
B( 31-C , 72-H ) :   0.9691 B( 32-C , 37-C ) :   1.5557 B( 32-C , 73-H ) :   0.9781
B( 33-C , 34-C ) :   1.2862 B( 33-C , 39-C ) :   1.2800 B( 33-C , 40-C ) :   1.2241
B( 34-C , 35-C ) :   1.6132 B( 34-C , 74-H ) :   0.9702 B( 35-C , 75-H ) :   0.9691
B( 36-C , 76-H ) :   0.9764 B( 36-C , 77-H ) :   0.9819 B( 36-C , 78-H ) :   0.9828
B( 37-C , 38-C ) :   1.3052 B( 37-C , 79-H ) :   0.9773 B( 38-C , 40-C ) :   1.2153
B( 39-C , 80-H ) :   0.9712 B( 40-C , 41-C ) :   1.2303 B( 41-C , 43-C ) :   1.2033
B( 42-C , 50-C ) :   1.6336 B( 42-C , 81-H ) :   0.9696 B( 43-C , 48-C ) :   1.6486
B( 43-C , 82-H ) :   0.9732 B( 44-C , 45-C ) :   1.2681 B( 44-C , 50-C ) :   1.2686
B( 44-C , 51-C ) :   1.2575 B( 45-C , 46-C ) :   1.6337 B( 45-C , 83-H ) :   0.9714
B( 46-C , 84-H ) :   0.9701 B( 47-C , 85-H ) :   0.9761 B( 47-C , 86-H ) :   0.9828
B( 47-C , 87-H ) :   0.9825 B( 48-C , 49-C ) :   1.2045 B( 48-C , 88-H ) :   0.9742
B( 49-C , 51-C ) :   1.2279 B( 50-C , 89-H ) :   0.9712

MP2 TOTAL ENERGY:    -2130.913042494 Eh
FINAL SINGLE POINT ENERGY     -2130.913042494298

DIPOLE MOMENT
-------------
                                X             Y             Z
Electronic contribution:      0.68515      -2.07793      -0.12662
Nuclear contribution   :      0.07868       0.24024       0.13562
                        -----------------------------------------
Total Dipole Moment    :      0.76382      -1.83770       0.00900
                        -----------------------------------------
Magnitude (a.u.)       :      1.99013
Magnitude (Debye)      :      5.05852

Rotational constants in cm-1:     0.001499     0.001476     0.000762
Rotational constants in MHz :    44.939081    44.238716    22.831598

                             ****ORCA TERMINATED NORMALLY****
TOTAL RUN TIME: 0 days 1 hours 19 minutes 19 seconds 984 msec
