                         Program Version 5.0.4 -  RELEASE  -
|  1> ! PAL2
|  2> ! mp2 cc-pvdz TightSCF  NoKeepInts
|  3>
|  4> %scf
|  5>   MaxCore 2000
|  6> end
|  7> %mp2
|  8>   MaxCore 2000
|  9> end
| 10> * xyz 0 1
| 11>    C       -4.92700         5.20700        -0.21100
| 12>    C        1.47400         4.04100         0.05700
| 13>    C       -2.80200         4.09300         0.04900
| 14>    C       -2.24100         5.34400         0.35000
| 15>    C       -3.03400         6.47400         0.36400
| 16>    C       -5.18500         7.62100         0.14300
| 17>    C        0.13200         4.30700         0.06100
| 18>    C       -0.56900         3.05600         0.04700
| 19>    C        1.64900         2.61800         0.02300
| 20>    C       -4.17600         4.04700        -0.23100
| 21>    N       -4.35500         6.39700         0.08300
| 22>    N        0.38800         2.06700         0.02500
| 23>    N       -2.01000         0.39500        -0.07500
| 24>    N       -0.38800        -2.07400        -0.02700
| 25>    N        2.01000        -0.40100         0.06500
| 26>    C       -1.96000         2.86100         0.02400
| 27>    C       -2.62300         1.61500        -0.01800
| 28>    C       -5.57300        -4.32900         1.06600
| 29>    C       -4.07300         1.47100         0.05600
| 30>    C       -4.10600        -2.75600        -0.02600
| 31>    C       -4.99500        -2.75700        -1.11100
| 32>    C       -6.13200        -3.54200        -1.07600
| 33>    C       -7.65100        -5.11300         0.04000
| 34>    C       -4.32400         0.14100         0.03700
| 35>    C       -3.02500        -0.52000        -0.04800
| 36>    C       -4.42200        -3.56600         1.07500
| 37>    N       -6.40700        -4.31300         0.00100
| 38>    C       -2.86700        -1.92200        -0.04000
| 39>    C       -1.65000        -2.62400        -0.02700
| 40>    C        3.56800        -6.14200        -1.04000
| 41>    C       -1.47600        -4.04900        -0.03400
| 42>    C        2.80300        -4.09900        -0.00800
| 43>    C        3.65700        -4.38400         1.06900
| 44>    C        4.42700        -5.53000         1.05900
| 45>    C        5.24500        -7.58800         0.01400
| 46>    C       -0.13400        -4.31500        -0.02200
| 47>    C        0.56800        -3.06400        -0.02700
| 48>    C        2.77500        -5.01200        -1.07400
| 49>    N        4.37600        -6.39100         0.01700
| 50>    C        1.95900        -2.86900        -0.00900
| 51>    C        2.62100        -1.62200         0.00900
| 52>    C        5.54300         4.33900        -1.13000
| 53>    C        4.07000        -1.47900        -0.09400
| 54>    C        4.10400         2.75100        -0.02100
| 55>    C        5.02700         2.72900         1.03600
| 56>    C        6.16600         3.50900         0.97800
| 57>    C        7.61900         5.15300        -0.11500
| 58>    C        4.32100        -0.14800        -0.09200
| 59>    C        3.02500         0.51400         0.01500
| 60>    C        4.38700         3.58200        -1.11500
| 61>    C        2.86600         1.91600         0.01300
| 62>    N        6.41300         4.29600        -0.09500
| 63>    H       -5.98700         5.22100        -0.43300
| 64>    H        2.27400         4.76600         0.08100
| 65>    H       -1.18800         5.44200         0.58500
| 66>    H       -2.64800         7.45800         0.59900
| 67>    H       -5.51900         7.77300         1.17200
| 68>    H       -4.58400         8.46800        -0.18600
| 69>    H       -6.04400         7.49400        -0.51500
| 70>    H       -0.33200         5.28200         0.06900
| 71>    H       -4.66600         3.11400        -0.48500
| 72>    H        0.18200         1.07200         0.00500
| 73>    H       -0.18300        -1.08000        -0.02100
| 74>    H       -5.86400        -4.96200         1.89500
| 75>    H       -4.79400         2.27200         0.13900
| 76>    H       -4.80000        -2.16000        -1.99400
| 77>    H       -6.84100        -3.58200        -1.89300
| 78>    H       -8.42800        -4.53600         0.54600
| 79>    H       -7.95600        -5.33700        -0.98100
| 80>    H       -7.45600        -6.03700         0.58400
| 81>    H       -5.28700        -0.34400         0.10000
| 82>    H       -3.78000        -3.60100         1.94700
| 83>    H        3.58700        -6.86800        -1.84300
| 84>    H       -2.27600        -4.77400        -0.05000
| 85>    H        3.71400        -3.72400         1.92600
| 86>    H        5.09200        -5.79500         1.87100
| 87>    H        6.20500        -7.32900        -0.43900
| 88>    H        5.39300        -7.91700         1.04200
| 89>    H        4.75900        -8.37300        -0.56400
| 90>    H        0.32900        -5.29000        -0.00800
| 91>    H        2.14600        -4.84200        -1.94000
| 92>    H        5.80800         4.98600        -1.95600
| 93>    H        4.78800        -2.28100        -0.18500
| 94>    H        4.86000         2.11400         1.91200
| 95>    H        6.90100         3.53100         1.77200
| 96>    H        7.38300         6.10900         0.35600
| 97>    H        8.41400         4.65200         0.43500
| 98>    H        7.92100         5.31000        -1.15000
| 99>    H        5.28300         0.33600        -0.17900
|100>    H        3.72000         3.63200        -1.96700
|101> *
|102>
|103>                          ****END OF INPUT****

CARTESIAN COORDINATES (ANGSTROEM)
---------------------------------
  C     -4.927000    5.207000   -0.211000
  C      1.474000    4.041000    0.057000
  C     -2.802000    4.093000    0.049000
  C     -2.241000    5.344000    0.350000
  C     -3.034000    6.474000    0.364000
  C     -5.185000    7.621000    0.143000
  C      0.132000    4.307000    0.061000
  C     -0.569000    3.056000    0.047000
  C      1.649000    2.618000    0.023000
  C     -4.176000    4.047000   -0.231000
  N     -4.355000    6.397000    0.083000
  N      0.388000    2.067000    0.025000
  N     -2.010000    0.395000   -0.075000
  N     -0.388000   -2.074000   -0.027000
  N      2.010000   -0.401000    0.065000
  C     -1.960000    2.861000    0.024000
  C     -2.623000    1.615000   -0.018000
  C     -5.573000   -4.329000    1.066000
  C     -4.073000    1.471000    0.056000
  C     -4.106000   -2.756000   -0.026000
  C     -4.995000   -2.757000   -1.111000
  C     -6.132000   -3.542000   -1.076000
  C     -7.651000   -5.113000    0.040000
  C     -4.324000    0.141000    0.037000
  C     -3.025000   -0.520000   -0.048000
  C     -4.422000   -3.566000    1.075000
  N     -6.407000   -4.313000    0.001000
  C     -2.867000   -1.922000   -0.040000
  C     -1.650000   -2.624000   -0.027000
  C      3.568000   -6.142000   -1.040000
  C     -1.476000   -4.049000   -0.034000
  C      2.803000   -4.099000   -0.008000
  C      3.657000   -4.384000    1.069000
  C      4.427000   -5.530000    1.059000
  C      5.245000   -7.588000    0.014000
  C     -0.134000   -4.315000   -0.022000
  C      0.568000   -3.064000   -0.027000
  C      2.775000   -5.012000   -1.074000
  N      4.376000   -6.391000    0.017000
  C      1.959000   -2.869000   -0.009000
  C      2.621000   -1.622000    0.009000
  C      5.543000    4.339000   -1.130000
  C      4.070000   -1.479000   -0.094000
  C      4.104000    2.751000   -0.021000
  C      5.027000    2.729000    1.036000
  C      6.166000    3.509000    0.978000
  C      7.619000    5.153000   -0.115000
  C      4.321000   -0.148000   -0.092000
  C      3.025000    0.514000    0.015000
  C      4.387000    3.582000   -1.115000
  C      2.866000    1.916000    0.013000
  N      6.413000    4.296000   -0.095000
  H     -5.987000    5.221000   -0.433000
  H      2.274000    4.766000    0.081000
  H     -1.188000    5.442000    0.585000
  H     -2.648000    7.458000    0.599000
  H     -5.519000    7.773000    1.172000
  H     -4.584000    8.468000   -0.186000
  H     -6.044000    7.494000   -0.515000
  H     -0.332000    5.282000    0.069000
  H     -4.666000    3.114000   -0.485000
  H      0.182000    1.072000    0.005000
  H     -0.183000   -1.080000   -0.021000
  H     -5.864000   -4.962000    1.895000
  H     -4.794000    2.272000    0.139000
  H     -4.800000   -2.160000   -1.994000
  H     -6.841000   -3.582000   -1.893000
  H     -8.428000   -4.536000    0.546000
  H     -7.956000   -5.337000   -0.981000
  H     -7.456000   -6.037000    0.584000
  H     -5.287000   -0.344000    0.100000
  H     -3.780000   -3.601000    1.947000
  H      3.587000   -6.868000   -1.843000
  H     -2.276000   -4.774000   -0.050000
  H      3.714000   -3.724000    1.926000
  H      5.092000   -5.795000    1.871000
  H      6.205000   -7.329000   -0.439000
  H      5.393000   -7.917000    1.042000
  H      4.759000   -8.373000   -0.564000
  H      0.329000   -5.290000   -0.008000
  H      2.146000   -4.842000   -1.940000
  H      5.808000    4.986000   -1.956000
  H      4.788000   -2.281000   -0.185000
  H      4.860000    2.114000    1.912000
  H      6.901000    3.531000    1.772000
  H      7.383000    6.109000    0.356000
  H      8.414000    4.652000    0.435000
  H      7.921000    5.310000   -1.150000
  H      5.283000    0.336000   -0.179000
  H      3.720000    3.632000   -1.967000

 Total Charge           Charge          ....    0
 Multiplicity           Mult            ....    1
 Number of Electrons    NEL             ....  358
 Basis Dimension        Dim             ....  918

ORBITAL ENERGIES
----------------

  NO   OCC          E(Eh)            E(eV)
   0   2.0000     -15.679891      -426.6715
   1   2.0000     -15.635590      -425.4660
   2   2.0000     -15.630407      -425.3250
   3   2.0000     -15.587492      -424.1572
   4   2.0000     -15.525581      -422.4725
   5   2.0000     -15.515387      -422.1951
   6   2.0000     -15.453437      -420.5094
   7   2.0000     -15.440389      -420.1544
   8   2.0000     -11.329696      -308.2967
   9   2.0000     -11.328218      -308.2565
  10   2.0000     -11.327983      -308.2501
  11   2.0000     -11.300319      -307.4973
  12   2.0000     -11.297476      -307.4199
  13   2.0000     -11.294344      -307.3347
  14   2.0000     -11.290002      -307.2166
  15   2.0000     -11.287993      -307.1619
  16   2.0000     -11.285324      -307.0893
  17   2.0000     -11.282149      -307.0029
  18   2.0000     -11.269716      -306.6646
  19   2.0000     -11.263438      -306.4937
  20   2.0000     -11.262456      -306.4670
  21   2.0000     -11.251001      -306.1553
  22   2.0000     -11.249353      -306.1105
  23   2.0000     -11.239308      -305.8371
  24   2.0000     -11.235250      -305.7267
  25   2.0000     -11.232349      -305.6478
  26   2.0000     -11.231702      -305.6301
  27   2.0000     -11.228681      -305.5479
  28   2.0000     -11.228380      -305.5398
  29   2.0000     -11.211805      -305.0887
  30   2.0000     -11.210302      -305.0478
  31   2.0000     -11.193734      -304.5970
  32   2.0000     -11.191574      -304.5382
  33   2.0000     -11.190797      -304.5171
  34   2.0000     -11.187940      -304.4393
  35   2.0000     -11.187742      -304.4339
  36   2.0000     -11.186382      -304.3969
  37   2.0000     -11.176011      -304.1147
  38   2.0000     -11.175308      -304.0956
  39   2.0000     -11.175149      -304.0913
  40   2.0000     -11.173391      -304.0434
  41   2.0000     -11.169622      -303.9409
  42   2.0000     -11.169354      -303.9336
  43   2.0000     -11.161352      -303.7158
  44   2.0000     -11.160455      -303.6914
  45   2.0000     -11.157267      -303.6047
  46   2.0000     -11.155833      -303.5657
  47   2.0000     -11.152964      -303.4876
  48   2.0000     -11.145934      -303.2963
  49   2.0000     -11.134701      -302.9906
  50   2.0000     -11.130206      -302.8683
  51   2.0000     -11.117657      -302.5268
  52   2.0000      -1.360456       -37.0199
  53   2.0000      -1.322608       -35.9900
  54   2.0000      -1.318394       -35.8753
  55   2.0000      -1.280374       -34.8407
  56   2.0000      -1.226767       -33.3820
  57   2.0000      -1.209974       -32.9251
  58   2.0000      -1.172998       -31.9189
  59   2.0000      -1.151116       -31.3235
  60   2.0000      -1.143691       -31.1214
  61   2.0000      -1.111299       -30.2400
  62   2.0000      -1.108033       -30.1511
  63   2.0000      -1.082144       -29.4466
  64   2.0000      -1.076992       -29.3064
  65   2.0000      -1.046730       -28.4830
  66   2.0000      -1.043102       -28.3843
  67   2.0000      -1.041229       -28.3333
  68   2.0000      -1.015260       -27.6266
  69   2.0000      -1.012586       -27.5539
  70   2.0000      -1.008689       -27.4478
  71   2.0000      -0.994161       -27.0525
  72   2.0000      -0.985472       -26.8161
  73   2.0000      -0.981965       -26.7206
  74   2.0000      -0.972811       -26.4715
  75   2.0000      -0.961598       -26.1664
  76   2.0000      -0.954262       -25.9668
  77   2.0000      -0.945712       -25.7341
  78   2.0000      -0.936396       -25.4806
  79   2.0000      -0.917086       -24.9552
  80   2.0000      -0.910596       -24.7786
  81   2.0000      -0.896821       -24.4037
  82   2.0000      -0.876766       -23.8580
  83   2.0000      -0.873428       -23.7672
  84   2.0000      -0.869601       -23.6631
  85   2.0000      -0.859311       -23.3830
  86   2.0000      -0.840680       -22.8761
  87   2.0000      -0.837206       -22.7815
  88   2.0000      -0.827026       -22.5045
  89   2.0000      -0.796642       -21.6777
  90   2.0000      -0.788933       -21.4680
  91   2.0000      -0.761082       -20.7101
  92   2.0000      -0.752836       -20.4857
  93   2.0000      -0.734070       -19.9751
  94   2.0000      -0.726829       -19.7780
  95   2.0000      -0.724056       -19.7026
  96   2.0000      -0.718408       -19.5489
  97   2.0000      -0.716556       -19.4985
  98   2.0000      -0.711163       -19.3517
  99   2.0000      -0.698551       -19.0085
 100   2.0000      -0.696858       -18.9625
 101   2.0000      -0.689426       -18.7602
 102   2.0000      -0.685263       -18.6470
 103   2.0000      -0.684267       -18.6199
 104   2.0000      -0.679347       -18.4860
 105   2.0000      -0.673988       -18.3402
 106   2.0000      -0.672096       -18.2887
 107   2.0000      -0.660445       -17.9716
 108   2.0000      -0.657361       -17.8877
 109   2.0000      -0.653888       -17.7932
 110   2.0000      -0.650952       -17.7133
 111   2.0000      -0.646217       -17.5844
 112   2.0000      -0.645249       -17.5581
 113   2.0000      -0.637906       -17.3583
 114   2.0000      -0.636162       -17.3109
 115   2.0000      -0.627457       -17.0740
 116   2.0000      -0.622000       -16.9255
 117   2.0000      -0.620739       -16.8912
 118   2.0000      -0.613790       -16.7021
 119   2.0000      -0.613115       -16.6837
 120   2.0000      -0.611569       -16.6416
 121   2.0000      -0.610351       -16.6085
 122   2.0000      -0.600320       -16.3355
 123   2.0000      -0.588024       -16.0009
 124   2.0000      -0.582607       -15.8535
 125   2.0000      -0.580714       -15.8020
 126   2.0000      -0.579574       -15.7710
 127   2.0000      -0.571502       -15.5514
 128   2.0000      -0.568638       -15.4734
 129   2.0000      -0.559603       -15.2276
 130   2.0000      -0.554102       -15.0779
 131   2.0000      -0.548080       -14.9140
 132   2.0000      -0.543029       -14.7766
 133   2.0000      -0.541660       -14.7393
 134   2.0000      -0.539389       -14.6775
 135   2.0000      -0.535195       -14.5634
 136   2.0000      -0.530748       -14.4424
 137   2.0000      -0.518332       -14.1045
 138   2.0000      -0.518197       -14.1009
 139   2.0000      -0.514110       -13.9896
 140   2.0000      -0.511806       -13.9269
 141   2.0000      -0.510655       -13.8956
 142   2.0000      -0.509396       -13.8614
 143   2.0000      -0.504665       -13.7326
 144   2.0000      -0.501186       -13.6380
 145   2.0000      -0.495512       -13.4836
 146   2.0000      -0.490134       -13.3372
 147   2.0000      -0.481529       -13.1031
 148   2.0000      -0.476917       -12.9776
 149   2.0000      -0.467669       -12.7259
 150   2.0000      -0.466095       -12.6831
 151   2.0000      -0.456538       -12.4230
 152   2.0000      -0.451052       -12.2737
 153   2.0000      -0.445369       -12.1191
 154   2.0000      -0.438992       -11.9456
 155   2.0000      -0.427492       -11.6327
 156   2.0000      -0.409100       -11.1322
 157   2.0000      -0.400954       -10.9105
 158   2.0000      -0.394099       -10.7240
 159   2.0000      -0.387666       -10.5489
 160   2.0000      -0.384017       -10.4496
 161   2.0000      -0.377523       -10.2729
 162   2.0000      -0.370905       -10.0928
 163   2.0000      -0.357745        -9.7347
 164   2.0000      -0.354893        -9.6571
 165   2.0000      -0.341448        -9.2913
 166   2.0000      -0.337836        -9.1930
 167   2.0000      -0.325398        -8.8545
 168   2.0000      -0.320417        -8.7190
 169   2.0000      -0.306030        -8.3275
 170   2.0000      -0.299181        -8.1411
 171   2.0000      -0.285110        -7.7582
 172   2.0000      -0.278725        -7.5845
 173   2.0000      -0.263120        -7.1599
 174   2.0000      -0.241682        -6.5765
 175   2.0000      -0.190090        -5.1726
 176   2.0000      -0.181056        -4.9268
 177   2.0000      -0.079768        -2.1706
 178   2.0000      -0.059584        -1.6214
 179   0.0000       0.028220         0.7679
 180   0.0000       0.065175         1.7735
 181   0.0000       0.090337         2.4582
 182   0.0000       0.106165         2.8889
 183   0.0000       0.115142         3.1332

MULLIKEN ATOMIC CHARGES
-----------------------
   0 C :    0.214996
   1 N :   -0.456473
   2 C :   -0.077731
   3 N :   -0.341066
   4 C :   -0.066665
   5 N :   -0.567183
   6 C :   -0.121580
   7 N :   -0.340957
   8 C :    0.218135
   9 N :   -0.562540
  10 C :    0.119488
  11 N :   -0.438103
  12 C :   -0.053611
  13 N :   -0.429292
  14 C :    0.210419
  15 N :   -0.441252
  16 C :    0.233773
  17 C :   -0.119174
  18 C :   -0.156129
  19 C :    0.202720
  20 C :    0.214539
  21 C :   -0.069597
  22 C :   -0.089246
  23 C :   -0.039628
  24 C :    0.194213
  25 C :    0.114386
  26 C :   -0.090747
  27 C :    0.214592
  28 C :   -0.061609
  29 C :   -0.182873
  30 C :    0.246060
  31 C :    0.230995
  32 C :   -0.061285
  33 C :   -0.060137
  34 C :   -0.050508
  35 C :    0.227960
  36 C :    0.108201
  37 C :   -0.064285
  38 C :    0.231670
  39 C :   -0.058226
  40 C :   -0.181002
  41 C :    0.225180
  42 C :    0.196986
  43 C :   -0.072672
  44 C :   -0.090355
  45 C :   -0.061666
  46 C :    0.210988
  47 C :    0.115518
  48 C :   -0.066936
  49 C :    0.238320
  50 C :   -0.046174
  51 C :   -0.195264
  52 H :    0.036041
  53 H :   -0.017964
  54 H :    0.045412
  55 H :    0.034469
  56 H :    0.049409
  57 H :    0.047380
  58 H :    0.046478
  59 H :   -0.009894
  60 H :    0.049346
  61 H :    0.171014
  62 H :    0.175732
  63 H :    0.055890
  64 H :   -0.014434
  65 H :    0.047143
  66 H :    0.056041
  67 H :    0.062995
  68 H :    0.057485
  69 H :    0.056705
  70 H :   -0.029960
  71 H :    0.045407
  72 H :    0.071527
  73 H :   -0.007879
  74 H :    0.060636
  75 H :    0.070905
  76 H :    0.075158
  77 H :    0.068132
  78 H :    0.067359
  79 H :   -0.016394
  80 H :    0.061422
  81 H :    0.054101
  82 H :   -0.025258
  83 H :    0.041364
  84 H :    0.053711
  85 H :    0.060516
  86 H :    0.055238
  87 H :    0.057023
  88 H :   -0.014413
  89 H :    0.046987
Sum of atomic charges:   -0.0000000

LOEWDIN ATOMIC CHARGES
----------------------
   0 C :   -0.022921
   1 N :    0.119736
   2 C :   -0.102097
   3 N :    0.182816
   4 C :   -0.013546
   5 N :   -0.133139
   6 C :   -0.035449
   7 N :    0.175078
   8 C :   -0.018970
   9 N :   -0.140725
  10 C :    0.023346
  11 N :    0.142759
  12 C :   -0.107777
  13 N :    0.166540
  14 C :   -0.019252
  15 N :    0.138136
  16 C :   -0.059570
  17 C :   -0.036005
  18 C :   -0.109214
  19 C :   -0.075973
  20 C :    0.005740
  21 C :   -0.117592
  22 C :    0.038573
  23 C :   -0.014386
  24 C :   -0.011906
  25 C :    0.030007
  26 C :   -0.109031
  27 C :   -0.117360
  28 C :   -0.027256
  29 C :   -0.098749
  30 C :   -0.030217
  31 C :    0.025100
  32 C :   -0.093644
  33 C :    0.082450
  34 C :   -0.014670
  35 C :    0.022754
  36 C :    0.035300
  37 C :   -0.093950
  38 C :   -0.051244
  39 C :   -0.017870
  40 C :   -0.108458
  41 C :   -0.092522
  42 C :   -0.010915
  43 C :   -0.099452
  44 C :    0.032641
  45 C :   -0.028588
  46 C :    0.001250
  47 C :    0.029355
  48 C :   -0.095273
  49 C :   -0.068917
  50 C :   -0.018738
  51 C :   -0.109785
  52 H :    0.022311
  53 H :    0.002421
  54 H :    0.012117
  55 H :    0.022419
  56 H :    0.021890
  57 H :    0.026097
  58 H :    0.026648
  59 H :    0.007657
  60 H :    0.019618
  61 H :    0.060119
  62 H :    0.061985
  63 H :    0.031023
  64 H :    0.006110
  65 H :    0.045926
  66 H :    0.029428
  67 H :    0.028502
  68 H :    0.031744
  69 H :    0.030461
  70 H :   -0.004814
  71 H :    0.043741
  72 H :    0.037836
  73 H :    0.007192
  74 H :    0.050820
  75 H :    0.037440
  76 H :    0.034920
  77 H :    0.036249
  78 H :    0.035904
  79 H :    0.003056
  80 H :    0.050769
  81 H :    0.028954
  82 H :   -0.002931
  83 H :    0.042257
  84 H :    0.029665
  85 H :    0.027206
  86 H :    0.030036
  87 H :    0.031317
  88 H :    0.002428
  89 H :    0.045057

  Mayer bond orders larger than 0.100000
B(  0-C ,  1-N ) :   1.0911 B(  0-C , 17-C ) :   1.7197 B(  0-C , 52-H ) :   0.9625
B(  1-N ,  8-C ) :   1.0965 B(  1-N , 10-C ) :   0.9776 B(  2-C , 12-C ) :   1.4865
B(  2-C , 16-C ) :   1.3728 B(  2-C , 53-H ) :   0.9733 B(  3-N , 14-C ) :   1.2211
B(  3-N , 16-C ) :   1.1828 B(  3-N , 61-H ) :   0.8989 B(  4-C ,  6-C ) :   1.2163
B(  4-C , 17-C ) :   1.2166 B(  4-C , 18-C ) :   1.4731 B(  5-N , 19-C ) :   1.4578
B(  5-N , 27-C ) :   1.3716 B(  6-C ,  8-C ) :   1.7172 B(  6-C , 54-H ) :   0.9011
B(  7-N , 30-C ) :   1.1946 B(  7-N , 38-C ) :   1.1902 B(  7-N , 62-H ) :   0.8966
B(  8-C , 55-H ) :   0.9634 B(  9-N , 41-C ) :   1.3926 B(  9-N , 49-C ) :   1.4271
B( 10-C , 56-H ) :   0.9775 B( 10-C , 57-H ) :   0.9832 B( 10-C , 58-H ) :   0.9834
B( 11-N , 20-C ) :   1.1324 B( 11-N , 24-C ) :   1.1081 B( 11-N , 25-C ) :   0.9596
B( 12-C , 14-C ) :   1.3597 B( 12-C , 59-H ) :   0.9387 B( 13-N , 31-C ) :   1.1627
B( 13-N , 35-C ) :   1.1598 B( 13-N , 36-C ) :   0.9412 B( 14-C , 18-C ) :   1.1164
B( 15-N , 42-C ) :   1.1068 B( 15-N , 46-C ) :   1.1235 B( 15-N , 47-C ) :   0.9618
B( 16-C , 51-C ) :   1.1666 B( 17-C , 60-H ) :   0.9049 B( 18-C , 19-C ) :   1.1163
B( 19-C , 21-C ) :   1.2514 B( 20-C , 28-C ) :   1.6272 B( 20-C , 63-H ) :   0.9702
B( 21-C , 26-C ) :   1.5876 B( 21-C , 64-H ) :   0.9420 B( 22-C , 23-C ) :   1.2909
B( 22-C , 28-C ) :   1.2651 B( 22-C , 29-C ) :   1.2235 B( 23-C , 24-C ) :   1.6185
B( 23-C , 65-H ) :   0.9703 B( 24-C , 66-H ) :   0.9695 B( 25-C , 67-H ) :   0.9760
B( 25-C , 68-H ) :   0.9828 B( 25-C , 69-H ) :   0.9823 B( 26-C , 27-C ) :   1.2568
B( 26-C , 70-H ) :   0.9674 B( 27-C , 29-C ) :   1.2071 B( 28-C , 71-H ) :   0.9720
B( 29-C , 30-C ) :   1.2481 B( 30-C , 32-C ) :   1.2773 B( 31-C , 39-C ) :   1.5875
B( 31-C , 72-H ) :   0.9681 B( 32-C , 37-C ) :   1.5818 B( 32-C , 73-H ) :   0.9786
B( 33-C , 34-C ) :   1.3082 B( 33-C , 39-C ) :   1.3038 B( 33-C , 40-C ) :   1.1746
B( 34-C , 35-C ) :   1.5846 B( 34-C , 74-H ) :   0.9696 B( 35-C , 75-H ) :   0.9681
B( 36-C , 76-H ) :   0.9768 B( 36-C , 77-H ) :   0.9815 B( 36-C , 78-H ) :   0.9823
B( 37-C , 38-C ) :   1.2830 B( 37-C , 79-H ) :   0.9765 B( 38-C , 40-C ) :   1.2355
B( 39-C , 80-H ) :   0.9705 B( 40-C , 41-C ) :   1.2506 B( 41-C , 43-C ) :   1.1854
B( 42-C , 50-C ) :   1.6346 B( 42-C , 81-H ) :   0.9697 B( 43-C , 48-C ) :   1.6672
B( 43-C , 82-H ) :   0.9720 B( 44-C , 45-C ) :   1.2623 B( 44-C , 50-C ) :   1.2710
B( 44-C , 51-C ) :   1.2638 B( 45-C , 46-C ) :   1.6359 B( 45-C , 83-H ) :   0.9719
B( 46-C , 84-H ) :   0.9700 B( 47-C , 85-H ) :   0.9762 B( 47-C , 86-H ) :   0.9829
B( 47-C , 87-H ) :   0.9825 B( 48-C , 49-C ) :   1.1889 B( 48-C , 88-H ) :   0.9749
B( 49-C , 51-C ) :   1.2435 B( 50-C , 89-H ) :   0.9708

MP2 TOTAL ENERGY:    -2130.812783771 Eh
FINAL SINGLE POINT ENERGY     -2130.812783770751

DIPOLE MOMENT
-------------
                                X             Y             Z
Electronic contribution:      2.64619      -4.46424      -0.21668
Nuclear contribution   :      0.05327       0.22047       0.21292
                        -----------------------------------------
Total Dipole Moment    :      2.69946      -4.24376      -0.00376
                        -----------------------------------------
Magnitude (a.u.)       :      5.02957
Magnitude (Debye)      :     12.78416

Rotational constants in cm-1:     0.001501     0.001479     0.000760
Rotational constants in MHz :    45.004272    44.350004    22.785443

                             ****ORCA TERMINATED NORMALLY****
TOTAL RUN TIME: 0 days 1 hours 13 minutes 22 seconds 775 msec
