                         Program Version 5.0.4 -  RELEASE  -
|  1> ! PAL2
|  2> ! mp2 cc-pvdz TightSCF  NoKeepInts
|  3>
|  4> %scf
|  5>   MaxCore 2000
|  6> end
|  7> %mp2
|  8>   MaxCore 2000
|  9> end
| 10> * xyz 0 1
| 11>    C       -4.81400         5.26600         0.68100
| 12>    C        1.47400         4.04100         0.05700
| 13>    C       -2.80200         4.09300         0.04900
| 14>    C       -2.36800         5.27500        -0.57000
| 15>    C       -3.16200         6.40400        -0.54200
| 16>    C       -5.17700         7.62600         0.12000
| 17>    C        0.13200         4.30700         0.06100
| 18>    C       -0.56900         3.05600         0.04700
| 19>    C        1.64900         2.61800         0.02300
| 20>    C       -4.05300         4.11300         0.68400
| 21>    N       -4.36700         6.38900         0.07400
| 22>    N        0.38800         2.06700         0.02500
| 23>    N       -2.01000         0.39500        -0.07500
| 24>    N       -0.38800        -2.07400        -0.02700
| 25>    N        2.01000        -0.40100         0.06500
| 26>    C       -1.96000         2.86100         0.02400
| 27>    C       -2.62300         1.61500        -0.01800
| 28>    C       -5.57300        -4.32900         1.06600
| 29>    C       -4.07300         1.47100         0.05600
| 30>    C       -4.10600        -2.75600        -0.02600
| 31>    C       -4.99500        -2.75700        -1.11100
| 32>    C       -6.13200        -3.54200        -1.07600
| 33>    C       -7.65100        -5.11300         0.04000
| 34>    C       -4.32400         0.14100         0.03700
| 35>    C       -3.02500        -0.52000        -0.04800
| 36>    C       -4.42200        -3.56600         1.07500
| 37>    N       -6.40700        -4.31300         0.00100
| 38>    C       -2.86700        -1.92200        -0.04000
| 39>    C       -1.65000        -2.62400        -0.02700
| 40>    C        3.56800        -6.14200        -1.04000
| 41>    C       -1.47600        -4.04900        -0.03400
| 42>    C        2.80300        -4.09900        -0.00800
| 43>    C        3.65700        -4.38400         1.06900
| 44>    C        4.42700        -5.53000         1.05900
| 45>    C        5.24500        -7.58800         0.01400
| 46>    C       -0.13400        -4.31500        -0.02200
| 47>    C        0.56800        -3.06400        -0.02700
| 48>    C        2.77500        -5.01200        -1.07400
| 49>    N        4.37600        -6.39100         0.01700
| 50>    C        1.95900        -2.86900        -0.00900
| 51>    C        2.62100        -1.62200         0.00900
| 52>    C        5.54300         4.33900        -1.13000
| 53>    C        4.07000        -1.47900        -0.09400
| 54>    C        4.10400         2.75100        -0.02100
| 55>    C        5.02700         2.72900         1.03600
| 56>    C        6.16600         3.50900         0.97800
| 57>    C        7.61900         5.15300        -0.11500
| 58>    C        4.32100        -0.14800        -0.09200
| 59>    C        3.02500         0.51400         0.01500
| 60>    C        4.38700         3.58200        -1.11500
| 61>    C        2.86600         1.91600         0.01300
| 62>    N        6.41300         4.29600        -0.09500
| 63>    H       -5.79000         5.32300         1.14800
| 64>    H        2.27400         4.76600         0.08100
| 65>    H       -1.40800         5.32600        -1.06900
| 66>    H       -2.86700         7.34100        -0.99700
| 67>    H       -4.86400         8.22600         0.97700
| 68>    H       -5.02100         8.18300        -0.80400
| 69>    H       -6.22800         7.35400         0.21800
| 70>    H       -0.33200         5.28200         0.06900
| 71>    H       -4.45000         3.22800         1.16800
| 72>    H        0.18200         1.07200         0.00500
| 73>    H       -0.18300        -1.08000        -0.02100
| 74>    H       -5.86400        -4.96200         1.89500
| 75>    H       -4.79400         2.27200         0.13900
| 76>    H       -4.80000        -2.16000        -1.99400
| 77>    H       -6.84100        -3.58200        -1.89300
| 78>    H       -8.42800        -4.53600         0.54600
| 79>    H       -7.95600        -5.33700        -0.98100
| 80>    H       -7.45600        -6.03700         0.58400
| 81>    H       -5.28700        -0.34400         0.10000
| 82>    H       -3.78000        -3.60100         1.94700
| 83>    H        3.58700        -6.86800        -1.84300
| 84>    H       -2.27600        -4.77400        -0.05000
| 85>    H        3.71400        -3.72400         1.92600
| 86>    H        5.09200        -5.79500         1.87100
| 87>    H        6.20500        -7.32900        -0.43900
| 88>    H        5.39300        -7.91700         1.04200
| 89>    H        4.75900        -8.37300        -0.56400
| 90>    H        0.32900        -5.29000        -0.00800
| 91>    H        2.14600        -4.84200        -1.94000
| 92>    H        5.80800         4.98600        -1.95600
| 93>    H        4.78800        -2.28100        -0.18500
| 94>    H        4.86000         2.11400         1.91200
| 95>    H        6.90100         3.53100         1.77200
| 96>    H        7.38300         6.10900         0.35600
| 97>    H        8.41400         4.65200         0.43500
| 98>    H        7.92100         5.31000        -1.15000
| 99>    H        5.28300         0.33600        -0.17900
|100>    H        3.72000         3.63200        -1.96700
|101> *
|102>
|103>                          ****END OF INPUT****

CARTESIAN COORDINATES (ANGSTROEM)
---------------------------------
  C     -4.814000    5.266000    0.681000
  C      1.474000    4.041000    0.057000
  C     -2.802000    4.093000    0.049000
  C     -2.368000    5.275000   -0.570000
  C     -3.162000    6.404000   -0.542000
  C     -5.177000    7.626000    0.120000
  C      0.132000    4.307000    0.061000
  C     -0.569000    3.056000    0.047000
  C      1.649000    2.618000    0.023000
  C     -4.053000    4.113000    0.684000
  N     -4.367000    6.389000    0.074000
  N      0.388000    2.067000    0.025000
  N     -2.010000    0.395000   -0.075000
  N     -0.388000   -2.074000   -0.027000
  N      2.010000   -0.401000    0.065000
  C     -1.960000    2.861000    0.024000
  C     -2.623000    1.615000   -0.018000
  C     -5.573000   -4.329000    1.066000
  C     -4.073000    1.471000    0.056000
  C     -4.106000   -2.756000   -0.026000
  C     -4.995000   -2.757000   -1.111000
  C     -6.132000   -3.542000   -1.076000
  C     -7.651000   -5.113000    0.040000
  C     -4.324000    0.141000    0.037000
  C     -3.025000   -0.520000   -0.048000
  C     -4.422000   -3.566000    1.075000
  N     -6.407000   -4.313000    0.001000
  C     -2.867000   -1.922000   -0.040000
  C     -1.650000   -2.624000   -0.027000
  C      3.568000   -6.142000   -1.040000
  C     -1.476000   -4.049000   -0.034000
  C      2.803000   -4.099000   -0.008000
  C      3.657000   -4.384000    1.069000
  C      4.427000   -5.530000    1.059000
  C      5.245000   -7.588000    0.014000
  C     -0.134000   -4.315000   -0.022000
  C      0.568000   -3.064000   -0.027000
  C      2.775000   -5.012000   -1.074000
  N      4.376000   -6.391000    0.017000
  C      1.959000   -2.869000   -0.009000
  C      2.621000   -1.622000    0.009000
  C      5.543000    4.339000   -1.130000
  C      4.070000   -1.479000   -0.094000
  C      4.104000    2.751000   -0.021000
  C      5.027000    2.729000    1.036000
  C      6.166000    3.509000    0.978000
  C      7.619000    5.153000   -0.115000
  C      4.321000   -0.148000   -0.092000
  C      3.025000    0.514000    0.015000
  C      4.387000    3.582000   -1.115000
  C      2.866000    1.916000    0.013000
  N      6.413000    4.296000   -0.095000
  H     -5.790000    5.323000    1.148000
  H      2.274000    4.766000    0.081000
  H     -1.408000    5.326000   -1.069000
  H     -2.867000    7.341000   -0.997000
  H     -4.864000    8.226000    0.977000
  H     -5.021000    8.183000   -0.804000
  H     -6.228000    7.354000    0.218000
  H     -0.332000    5.282000    0.069000
  H     -4.450000    3.228000    1.168000
  H      0.182000    1.072000    0.005000
  H     -0.183000   -1.080000   -0.021000
  H     -5.864000   -4.962000    1.895000
  H     -4.794000    2.272000    0.139000
  H     -4.800000   -2.160000   -1.994000
  H     -6.841000   -3.582000   -1.893000
  H     -8.428000   -4.536000    0.546000
  H     -7.956000   -5.337000   -0.981000
  H     -7.456000   -6.037000    0.584000
  H     -5.287000   -0.344000    0.100000
  H     -3.780000   -3.601000    1.947000
  H      3.587000   -6.868000   -1.843000
  H     -2.276000   -4.774000   -0.050000
  H      3.714000   -3.724000    1.926000
  H      5.092000   -5.795000    1.871000
  H      6.205000   -7.329000   -0.439000
  H      5.393000   -7.917000    1.042000
  H      4.759000   -8.373000   -0.564000
  H      0.329000   -5.290000   -0.008000
  H      2.146000   -4.842000   -1.940000
  H      5.808000    4.986000   -1.956000
  H      4.788000   -2.281000   -0.185000
  H      4.860000    2.114000    1.912000
  H      6.901000    3.531000    1.772000
  H      7.383000    6.109000    0.356000
  H      8.414000    4.652000    0.435000
  H      7.921000    5.310000   -1.150000
  H      5.283000    0.336000   -0.179000
  H      3.720000    3.632000   -1.967000

 Total Charge           Charge          ....    0
 Multiplicity           Mult            ....    1
 Number of Electrons    NEL             ....  358
 Basis Dimension        Dim             ....  918

ORBITAL ENERGIES
----------------

  NO   OCC          E(Eh)            E(eV)
   0   2.0000     -15.671482      -426.4427
   1   2.0000     -15.635162      -425.4544
   2   2.0000     -15.630580      -425.3297
   3   2.0000     -15.592893      -424.3042
   4   2.0000     -15.524427      -422.4411
   5   2.0000     -15.516279      -422.2194
   6   2.0000     -15.452023      -420.4709
   7   2.0000     -15.441618      -420.1878
   8   2.0000     -11.322805      -308.1092
   9   2.0000     -11.322720      -308.1069
  10   2.0000     -11.321163      -308.0645
  11   2.0000     -11.300065      -307.4904
  12   2.0000     -11.297532      -307.4215
  13   2.0000     -11.293575      -307.3138
  14   2.0000     -11.289617      -307.2061
  15   2.0000     -11.288018      -307.1626
  16   2.0000     -11.285927      -307.1057
  17   2.0000     -11.274285      -306.7889
  18   2.0000     -11.274259      -306.7882
  19   2.0000     -11.257558      -306.3337
  20   2.0000     -11.257069      -306.3204
  21   2.0000     -11.257007      -306.3187
  22   2.0000     -11.256605      -306.3078
  23   2.0000     -11.238781      -305.8228
  24   2.0000     -11.235357      -305.7296
  25   2.0000     -11.232063      -305.6400
  26   2.0000     -11.231260      -305.6181
  27   2.0000     -11.228794      -305.5510
  28   2.0000     -11.228699      -305.5484
  29   2.0000     -11.209318      -305.0211
  30   2.0000     -11.208099      -304.9879
  31   2.0000     -11.201824      -304.8171
  32   2.0000     -11.195468      -304.6442
  33   2.0000     -11.192736      -304.5698
  34   2.0000     -11.190489      -304.5087
  35   2.0000     -11.189537      -304.4828
  36   2.0000     -11.187868      -304.4374
  37   2.0000     -11.185021      -304.3599
  38   2.0000     -11.183960      -304.3310
  39   2.0000     -11.172757      -304.0262
  40   2.0000     -11.171830      -304.0010
  41   2.0000     -11.169903      -303.9485
  42   2.0000     -11.166924      -303.8674
  43   2.0000     -11.161849      -303.7293
  44   2.0000     -11.159763      -303.6726
  45   2.0000     -11.158286      -303.6324
  46   2.0000     -11.158162      -303.6290
  47   2.0000     -11.153603      -303.5050
  48   2.0000     -11.148511      -303.3664
  49   2.0000     -11.140872      -303.1585
  50   2.0000     -11.133147      -302.9483
  51   2.0000     -11.124041      -302.7005
  52   2.0000      -1.353319       -36.8257
  53   2.0000      -1.322243       -35.9801
  54   2.0000      -1.318513       -35.8786
  55   2.0000      -1.286582       -35.0097
  56   2.0000      -1.224872       -33.3305
  57   2.0000      -1.210806       -32.9477
  58   2.0000      -1.170814       -31.8595
  59   2.0000      -1.152566       -31.3629
  60   2.0000      -1.137726       -30.9591
  61   2.0000      -1.110995       -30.2317
  62   2.0000      -1.108083       -30.1525
  63   2.0000      -1.082359       -29.4525
  64   2.0000      -1.075525       -29.2665
  65   2.0000      -1.046369       -28.4731
  66   2.0000      -1.043242       -28.3881
  67   2.0000      -1.037207       -28.2238
  68   2.0000      -1.015176       -27.6243
  69   2.0000      -1.014280       -27.6000
  70   2.0000      -1.009771       -27.4773
  71   2.0000      -0.992527       -27.0080
  72   2.0000      -0.987212       -26.8634
  73   2.0000      -0.979146       -26.6439
  74   2.0000      -0.972562       -26.4647
  75   2.0000      -0.960515       -26.1369
  76   2.0000      -0.952687       -25.9239
  77   2.0000      -0.946891       -25.7662
  78   2.0000      -0.935262       -25.4498
  79   2.0000      -0.919822       -25.0296
  80   2.0000      -0.904770       -24.6201
  81   2.0000      -0.893209       -24.3055
  82   2.0000      -0.874461       -23.7953
  83   2.0000      -0.871710       -23.7204
  84   2.0000      -0.868150       -23.6236
  85   2.0000      -0.856489       -23.3062
  86   2.0000      -0.841963       -22.9110
  87   2.0000      -0.836549       -22.7637
  88   2.0000      -0.823764       -22.4158
  89   2.0000      -0.798088       -21.7171
  90   2.0000      -0.792463       -21.5640
  91   2.0000      -0.749061       -20.3830
  92   2.0000      -0.741199       -20.1691
  93   2.0000      -0.732541       -19.9335
  94   2.0000      -0.723717       -19.6933
  95   2.0000      -0.721522       -19.6336
  96   2.0000      -0.715254       -19.4630
  97   2.0000      -0.710054       -19.3215
  98   2.0000      -0.705820       -19.2063
  99   2.0000      -0.696263       -18.9463
 100   2.0000      -0.695960       -18.9380
 101   2.0000      -0.683822       -18.6077
 102   2.0000      -0.679172       -18.4812
 103   2.0000      -0.678611       -18.4659
 104   2.0000      -0.677924       -18.4472
 105   2.0000      -0.672746       -18.3063
 106   2.0000      -0.668351       -18.1868
 107   2.0000      -0.661310       -17.9952
 108   2.0000      -0.655523       -17.8377
 109   2.0000      -0.653909       -17.7938
 110   2.0000      -0.650348       -17.6969
 111   2.0000      -0.643467       -17.5096
 112   2.0000      -0.641158       -17.4468
 113   2.0000      -0.640024       -17.4159
 114   2.0000      -0.637997       -17.3608
 115   2.0000      -0.627354       -17.0712
 116   2.0000      -0.625668       -17.0253
 117   2.0000      -0.618250       -16.8234
 118   2.0000      -0.613315       -16.6892
 119   2.0000      -0.612296       -16.6614
 120   2.0000      -0.610490       -16.6123
 121   2.0000      -0.606163       -16.4945
 122   2.0000      -0.600469       -16.3396
 123   2.0000      -0.586928       -15.9711
 124   2.0000      -0.582640       -15.8544
 125   2.0000      -0.580449       -15.7948
 126   2.0000      -0.579538       -15.7700
 127   2.0000      -0.576338       -15.6829
 128   2.0000      -0.566158       -15.4059
 129   2.0000      -0.558943       -15.2096
 130   2.0000      -0.551856       -15.0168
 131   2.0000      -0.547759       -14.9053
 132   2.0000      -0.542357       -14.7583
 133   2.0000      -0.539597       -14.6832
 134   2.0000      -0.538347       -14.6492
 135   2.0000      -0.535363       -14.5680
 136   2.0000      -0.527581       -14.3562
 137   2.0000      -0.523790       -14.2530
 138   2.0000      -0.516872       -14.0648
 139   2.0000      -0.513445       -13.9715
 140   2.0000      -0.512263       -13.9394
 141   2.0000      -0.511281       -13.9127
 142   2.0000      -0.509178       -13.8554
 143   2.0000      -0.503431       -13.6991
 144   2.0000      -0.501797       -13.6546
 145   2.0000      -0.497411       -13.5352
 146   2.0000      -0.493488       -13.4285
 147   2.0000      -0.484417       -13.1817
 148   2.0000      -0.480594       -13.0776
 149   2.0000      -0.467125       -12.7111
 150   2.0000      -0.465604       -12.6697
 151   2.0000      -0.457082       -12.4378
 152   2.0000      -0.450064       -12.2469
 153   2.0000      -0.445463       -12.1217
 154   2.0000      -0.442129       -12.0309
 155   2.0000      -0.435078       -11.8391
 156   2.0000      -0.429414       -11.6849
 157   2.0000      -0.418369       -11.3844
 158   2.0000      -0.403763       -10.9870
 159   2.0000      -0.388256       -10.5650
 160   2.0000      -0.382233       -10.4011
 161   2.0000      -0.378234       -10.2923
 162   2.0000      -0.370233       -10.0745
 163   2.0000      -0.357408        -9.7256
 164   2.0000      -0.354976        -9.6594
 165   2.0000      -0.339932        -9.2500
 166   2.0000      -0.337423        -9.1817
 167   2.0000      -0.326883        -8.8949
 168   2.0000      -0.325906        -8.8684
 169   2.0000      -0.303638        -8.2624
 170   2.0000      -0.299746        -8.1565
 171   2.0000      -0.286287        -7.7903
 172   2.0000      -0.282541        -7.6883
 173   2.0000      -0.262190        -7.1345
 174   2.0000      -0.243402        -6.6233
 175   2.0000      -0.189799        -5.1647
 176   2.0000      -0.180140        -4.9019
 177   2.0000      -0.074995        -2.0407
 178   2.0000      -0.058104        -1.5811
 179   0.0000       0.028623         0.7789
 180   0.0000       0.066712         1.8153
 181   0.0000       0.091443         2.4883
 182   0.0000       0.108896         2.9632
 183   0.0000       0.111680         3.0390

MULLIKEN ATOMIC CHARGES
-----------------------
   0 C :    0.208337
   1 N :   -0.454506
   2 C :   -0.064988
   3 N :   -0.336866
   4 C :   -0.048005
   5 N :   -0.563991
   6 C :   -0.113790
   7 N :   -0.340027
   8 C :    0.206237
   9 N :   -0.562449
  10 C :    0.118570
  11 N :   -0.438189
  12 C :   -0.082901
  13 N :   -0.431390
  14 C :    0.234277
  15 N :   -0.441135
  16 C :    0.228291
  17 C :   -0.112723
  18 C :   -0.197260
  19 C :    0.227806
  20 C :    0.212756
  21 C :   -0.093611
  22 C :   -0.090801
  23 C :   -0.040865
  24 C :    0.195602
  25 C :    0.114450
  26 C :   -0.079727
  27 C :    0.213405
  28 C :   -0.060303
  29 C :   -0.180320
  30 C :    0.244316
  31 C :    0.226963
  32 C :   -0.062257
  33 C :   -0.064244
  34 C :   -0.050661
  35 C :    0.223658
  36 C :    0.109318
  37 C :   -0.064775
  38 C :    0.232479
  39 C :   -0.058540
  40 C :   -0.182570
  41 C :    0.224928
  42 C :    0.198065
  43 C :   -0.072506
  44 C :   -0.089802
  45 C :   -0.059884
  46 C :    0.209904
  47 C :    0.115480
  48 C :   -0.068221
  49 C :    0.236836
  50 C :   -0.047650
  51 C :   -0.191557
  52 H :    0.041118
  53 H :   -0.016316
  54 H :    0.049242
  55 H :    0.039003
  56 H :    0.049889
  57 H :    0.048223
  58 H :    0.048573
  59 H :    0.001217
  60 H :    0.052260
  61 H :    0.171346
  62 H :    0.175080
  63 H :    0.055544
  64 H :   -0.008254
  65 H :    0.047500
  66 H :    0.056180
  67 H :    0.062489
  68 H :    0.057494
  69 H :    0.056802
  70 H :   -0.028952
  71 H :    0.045230
  72 H :    0.068707
  73 H :   -0.008878
  74 H :    0.057984
  75 H :    0.068028
  76 H :    0.072620
  77 H :    0.066239
  78 H :    0.065502
  79 H :   -0.015986
  80 H :    0.058774
  81 H :    0.053866
  82 H :   -0.024623
  83 H :    0.041998
  84 H :    0.053882
  85 H :    0.060463
  86 H :    0.055564
  87 H :    0.056924
  88 H :   -0.015526
  89 H :    0.045626
Sum of atomic charges:   -0.0000000

LOEWDIN ATOMIC CHARGES
----------------------
   0 C :   -0.019786
   1 N :    0.117872
   2 C :   -0.101411
   3 N :    0.183313
   4 C :   -0.005372
   5 N :   -0.133017
   6 C :   -0.040484
   7 N :    0.175922
   8 C :   -0.021779
   9 N :   -0.140330
  10 C :    0.023937
  11 N :    0.142499
  12 C :   -0.113580
  13 N :    0.161748
  14 C :   -0.029798
  15 N :    0.138364
  16 C :   -0.057893
  17 C :   -0.040232
  18 C :   -0.103071
  19 C :   -0.081954
  20 C :    0.004091
  21 C :   -0.120875
  22 C :    0.037443
  23 C :   -0.015204
  24 C :   -0.010700
  25 C :    0.029942
  26 C :   -0.107195
  27 C :   -0.113721
  28 C :   -0.026598
  29 C :   -0.100677
  30 C :   -0.032559
  31 C :    0.020447
  32 C :   -0.095040
  33 C :    0.074262
  34 C :   -0.015753
  35 C :    0.017822
  36 C :    0.034234
  37 C :   -0.095425
  38 C :   -0.049961
  39 C :   -0.019044
  40 C :   -0.108275
  41 C :   -0.092037
  42 C :   -0.010012
  43 C :   -0.100125
  44 C :    0.032714
  45 C :   -0.027194
  46 C :    0.000368
  47 C :    0.029395
  48 C :   -0.096411
  49 C :   -0.072720
  50 C :   -0.019868
  51 C :   -0.108761
  52 H :    0.024364
  53 H :    0.003215
  54 H :    0.040059
  55 H :    0.023588
  56 H :    0.021880
  57 H :    0.026622
  58 H :    0.027684
  59 H :    0.010515
  60 H :    0.041614
  61 H :    0.060113
  62 H :    0.061651
  63 H :    0.030803
  64 H :    0.005421
  65 H :    0.045972
  66 H :    0.029543
  67 H :    0.028270
  68 H :    0.031744
  69 H :    0.030483
  70 H :   -0.004128
  71 H :    0.043714
  72 H :    0.036497
  73 H :    0.006699
  74 H :    0.049678
  75 H :    0.036058
  76 H :    0.033605
  77 H :    0.035357
  78 H :    0.035029
  79 H :    0.003256
  80 H :    0.049619
  81 H :    0.028889
  82 H :   -0.002593
  83 H :    0.042626
  84 H :    0.029696
  85 H :    0.027181
  86 H :    0.030178
  87 H :    0.031270
  88 H :    0.001888
  89 H :    0.044433

  Mayer bond orders larger than 0.100000
B(  0-C ,  1-N ) :   1.0919 B(  0-C , 17-C ) :   1.7018 B(  0-C , 52-H ) :   0.9670
B(  1-N ,  8-C ) :   1.0906 B(  1-N , 10-C ) :   0.9768 B(  2-C , 12-C ) :   1.5093
B(  2-C , 16-C ) :   1.3540 B(  2-C , 53-H ) :   0.9754 B(  3-N , 14-C ) :   1.2177
B(  3-N , 16-C ) :   1.1904 B(  3-N , 61-H ) :   0.8990 B(  4-C ,  6-C ) :   1.2159
B(  4-C , 17-C ) :   1.2151 B(  4-C , 18-C ) :   1.4252 B(  5-N , 19-C ) :   1.4500
B(  5-N , 27-C ) :   1.3807 B(  6-C ,  8-C ) :   1.6994 B(  6-C , 54-H ) :   0.9586
B(  7-N , 30-C ) :   1.1954 B(  7-N , 38-C ) :   1.1921 B(  7-N , 62-H ) :   0.8970
B(  8-C , 55-H ) :   0.9678 B(  9-N , 41-C ) :   1.3957 B(  9-N , 49-C ) :   1.4245
B( 10-C , 56-H ) :   0.9769 B( 10-C , 57-H ) :   0.9821 B( 10-C , 58-H ) :   0.9843
B( 11-N , 20-C ) :   1.1303 B( 11-N , 24-C ) :   1.1094 B( 11-N , 25-C ) :   0.9598
B( 12-C , 14-C ) :   1.3540 B( 12-C , 59-H ) :   0.9735 B( 13-N , 31-C ) :   1.1547
B( 13-N , 35-C ) :   1.1515 B( 13-N , 36-C ) :   0.9447 B( 14-C , 18-C ) :   1.1348
B( 15-N , 42-C ) :   1.1085 B( 15-N , 46-C ) :   1.1218 B( 15-N , 47-C ) :   0.9617
B( 16-C , 51-C ) :   1.1737 B( 17-C , 60-H ) :   0.9560 B( 18-C , 19-C ) :   1.1402
B( 19-C , 21-C ) :   1.2427 B( 20-C , 28-C ) :   1.6275 B( 20-C , 63-H ) :   0.9703
B( 21-C , 26-C ) :   1.6106 B( 21-C , 64-H ) :   0.9678 B( 22-C , 23-C ) :   1.2890
B( 22-C , 28-C ) :   1.2657 B( 22-C , 29-C ) :   1.2231 B( 23-C , 24-C ) :   1.6194
B( 23-C , 65-H ) :   0.9704 B( 24-C , 66-H ) :   0.9694 B( 25-C , 67-H ) :   0.9760
B( 25-C , 68-H ) :   0.9828 B( 25-C , 69-H ) :   0.9823 B( 26-C , 27-C ) :   1.2389
B( 26-C , 70-H ) :   0.9709 B( 27-C , 29-C ) :   1.2153 B( 28-C , 71-H ) :   0.9719
B( 29-C , 30-C ) :   1.2384 B( 30-C , 32-C ) :   1.2858 B( 31-C , 39-C ) :   1.5958
B( 31-C , 72-H ) :   0.9684 B( 32-C , 37-C ) :   1.5730 B( 32-C , 73-H ) :   0.9785
B( 33-C , 34-C ) :   1.3017 B( 33-C , 39-C ) :   1.2971 B( 33-C , 40-C ) :   1.1889
B( 34-C , 35-C ) :   1.5929 B( 34-C , 74-H ) :   0.9698 B( 35-C , 75-H ) :   0.9684
B( 36-C , 76-H ) :   0.9767 B( 36-C , 77-H ) :   0.9817 B( 36-C , 78-H ) :   0.9825
B( 37-C , 38-C ) :   1.2903 B( 37-C , 79-H ) :   0.9767 B( 38-C , 40-C ) :   1.2287
B( 39-C , 80-H ) :   0.9707 B( 40-C , 41-C ) :   1.2455 B( 41-C , 43-C ) :   1.1896
B( 42-C , 50-C ) :   1.6339 B( 42-C , 81-H ) :   0.9697 B( 43-C , 48-C ) :   1.6627
B( 43-C , 82-H ) :   0.9724 B( 44-C , 45-C ) :   1.2642 B( 44-C , 50-C ) :   1.2709
B( 44-C , 51-C ) :   1.2609 B( 45-C , 46-C ) :   1.6351 B( 45-C , 83-H ) :   0.9717
B( 46-C , 84-H ) :   0.9700 B( 47-C , 85-H ) :   0.9762 B( 47-C , 86-H ) :   0.9829
B( 47-C , 87-H ) :   0.9825 B( 48-C , 49-C ) :   1.1928 B( 48-C , 88-H ) :   0.9747
B( 49-C , 51-C ) :   1.2385 B( 50-C , 89-H ) :   0.9710

MP2 TOTAL ENERGY:    -2130.888190416 Eh
FINAL SINGLE POINT ENERGY     -2130.888190416245

DIPOLE MOMENT
-------------
                                X             Y             Z
Electronic contribution:      2.14603      -3.77588      -0.16013
Nuclear contribution   :      0.07607       0.24174       0.16105
                        -----------------------------------------
Total Dipole Moment    :      2.22210      -3.53414       0.00091
                        -----------------------------------------
Magnitude (a.u.)       :      4.17467
Magnitude (Debye)      :     10.61117

Rotational constants in cm-1:     0.001500     0.001478     0.000761
Rotational constants in MHz :    44.975928    44.309172    22.804050

                             ****ORCA TERMINATED NORMALLY****
TOTAL RUN TIME: 0 days 1 hours 12 minutes 43 seconds 92 msec
