                         Program Version 5.0.4 -  RELEASE  -
|  1> ! PAL2
|  2> ! mp2 cc-pvdz TightSCF  NoKeepInts
|  3>
|  4> %scf
|  5>   MaxCore 2000
|  6> end
|  7> %mp2
|  8>   MaxCore 2000
|  9> end
| 10> * xyz 0 1
| 11>    C       -3.90400         5.92400        -1.07300
| 12>    C        1.47400         4.04100         0.05700
| 13>    C       -2.80200         4.09300         0.04900
| 14>    C       -3.28900         4.60900         1.26000
| 15>    C       -4.06200         5.75300         1.26500
| 16>    C       -5.22000         7.59700         0.14700
| 17>    C        0.13200         4.30700         0.06100
| 18>    C       -0.56900         3.05600         0.04700
| 19>    C        1.64900         2.61800         0.02300
| 20>    C       -3.13100         4.78000        -1.13000
| 21>    N       -4.35700         6.39500         0.11100
| 22>    N        0.38800         2.06700         0.02500
| 23>    N       -2.01000         0.39500        -0.07500
| 24>    N       -0.38800        -2.07400        -0.02700
| 25>    N        2.01000        -0.40100         0.06500
| 26>    C       -1.96000         2.86100         0.02400
| 27>    C       -2.62300         1.61500        -0.01800
| 28>    C       -5.57300        -4.32900         1.06600
| 29>    C       -4.07300         1.47100         0.05600
| 30>    C       -4.10600        -2.75600        -0.02600
| 31>    C       -4.99500        -2.75700        -1.11100
| 32>    C       -6.13200        -3.54200        -1.07600
| 33>    C       -7.65100        -5.11300         0.04000
| 34>    C       -4.32400         0.14100         0.03700
| 35>    C       -3.02500        -0.52000        -0.04800
| 36>    C       -4.42200        -3.56600         1.07500
| 37>    N       -6.40700        -4.31300         0.00100
| 38>    C       -2.86700        -1.92200        -0.04000
| 39>    C       -1.65000        -2.62400        -0.02700
| 40>    C        3.56800        -6.14200        -1.04000
| 41>    C       -1.47600        -4.04900        -0.03400
| 42>    C        2.80300        -4.09900        -0.00800
| 43>    C        3.65700        -4.38400         1.06900
| 44>    C        4.42700        -5.53000         1.05900
| 45>    C        5.24500        -7.58800         0.01400
| 46>    C       -0.13400        -4.31500        -0.02200
| 47>    C        0.56800        -3.06400        -0.02700
| 48>    C        2.77500        -5.01200        -1.07400
| 49>    N        4.37600        -6.39100         0.01700
| 50>    C        1.95900        -2.86900        -0.00900
| 51>    C        2.62100        -1.62200         0.00900
| 52>    C        5.54300         4.33900        -1.13000
| 53>    C        4.07000        -1.47900        -0.09400
| 54>    C        4.10400         2.75100        -0.02100
| 55>    C        5.02700         2.72900         1.03600
| 56>    C        6.16600         3.50900         0.97800
| 57>    C        7.61900         5.15300        -0.11500
| 58>    C        4.32100        -0.14800        -0.09200
| 59>    C        3.02500         0.51400         0.01500
| 60>    C        4.38700         3.58200        -1.11500
| 61>    C        2.86600         1.91600         0.01300
| 62>    N        6.41300         4.29600        -0.09500
| 63>    H       -4.17200         6.49200        -1.95500
| 64>    H        2.27400         4.76600         0.08100
| 65>    H       -3.07700         4.11800         2.20200
| 66>    H       -4.46700         6.18300         2.17200
| 67>    H       -6.26600         7.28400         0.11800
| 68>    H       -5.01700         8.14700         1.06600
| 69>    H       -4.99100         8.21800        -0.71900
| 70>    H       -0.33200         5.28200         0.06900
| 71>    H       -2.77400         4.43900        -2.09500
| 72>    H        0.18200         1.07200         0.00500
| 73>    H       -0.18300        -1.08000        -0.02100
| 74>    H       -5.86400        -4.96200         1.89500
| 75>    H       -4.79400         2.27200         0.13900
| 76>    H       -4.80000        -2.16000        -1.99400
| 77>    H       -6.84100        -3.58200        -1.89300
| 78>    H       -8.42800        -4.53600         0.54600
| 79>    H       -7.95600        -5.33700        -0.98100
| 80>    H       -7.45600        -6.03700         0.58400
| 81>    H       -5.28700        -0.34400         0.10000
| 82>    H       -3.78000        -3.60100         1.94700
| 83>    H        3.58700        -6.86800        -1.84300
| 84>    H       -2.27600        -4.77400        -0.05000
| 85>    H        3.71400        -3.72400         1.92600
| 86>    H        5.09200        -5.79500         1.87100
| 87>    H        6.20500        -7.32900        -0.43900
| 88>    H        5.39300        -7.91700         1.04200
| 89>    H        4.75900        -8.37300        -0.56400
| 90>    H        0.32900        -5.29000        -0.00800
| 91>    H        2.14600        -4.84200        -1.94000
| 92>    H        5.80800         4.98600        -1.95600
| 93>    H        4.78800        -2.28100        -0.18500
| 94>    H        4.86000         2.11400         1.91200
| 95>    H        6.90100         3.53100         1.77200
| 96>    H        7.38300         6.10900         0.35600
| 97>    H        8.41400         4.65200         0.43500
| 98>    H        7.92100         5.31000        -1.15000
| 99>    H        5.28300         0.33600        -0.17900
|100>    H        3.72000         3.63200        -1.96700
|101> *
|102>
|103>                          ****END OF INPUT****

CARTESIAN COORDINATES (ANGSTROEM)
---------------------------------
  C     -3.904000    5.924000   -1.073000
  C      1.474000    4.041000    0.057000
  C     -2.802000    4.093000    0.049000
  C     -3.289000    4.609000    1.260000
  C     -4.062000    5.753000    1.265000
  C     -5.220000    7.597000    0.147000
  C      0.132000    4.307000    0.061000
  C     -0.569000    3.056000    0.047000
  C      1.649000    2.618000    0.023000
  C     -3.131000    4.780000   -1.130000
  N     -4.357000    6.395000    0.111000
  N      0.388000    2.067000    0.025000
  N     -2.010000    0.395000   -0.075000
  N     -0.388000   -2.074000   -0.027000
  N      2.010000   -0.401000    0.065000
  C     -1.960000    2.861000    0.024000
  C     -2.623000    1.615000   -0.018000
  C     -5.573000   -4.329000    1.066000
  C     -4.073000    1.471000    0.056000
  C     -4.106000   -2.756000   -0.026000
  C     -4.995000   -2.757000   -1.111000
  C     -6.132000   -3.542000   -1.076000
  C     -7.651000   -5.113000    0.040000
  C     -4.324000    0.141000    0.037000
  C     -3.025000   -0.520000   -0.048000
  C     -4.422000   -3.566000    1.075000
  N     -6.407000   -4.313000    0.001000
  C     -2.867000   -1.922000   -0.040000
  C     -1.650000   -2.624000   -0.027000
  C      3.568000   -6.142000   -1.040000
  C     -1.476000   -4.049000   -0.034000
  C      2.803000   -4.099000   -0.008000
  C      3.657000   -4.384000    1.069000
  C      4.427000   -5.530000    1.059000
  C      5.245000   -7.588000    0.014000
  C     -0.134000   -4.315000   -0.022000
  C      0.568000   -3.064000   -0.027000
  C      2.775000   -5.012000   -1.074000
  N      4.376000   -6.391000    0.017000
  C      1.959000   -2.869000   -0.009000
  C      2.621000   -1.622000    0.009000
  C      5.543000    4.339000   -1.130000
  C      4.070000   -1.479000   -0.094000
  C      4.104000    2.751000   -0.021000
  C      5.027000    2.729000    1.036000
  C      6.166000    3.509000    0.978000
  C      7.619000    5.153000   -0.115000
  C      4.321000   -0.148000   -0.092000
  C      3.025000    0.514000    0.015000
  C      4.387000    3.582000   -1.115000
  C      2.866000    1.916000    0.013000
  N      6.413000    4.296000   -0.095000
  H     -4.172000    6.492000   -1.955000
  H      2.274000    4.766000    0.081000
  H     -3.077000    4.118000    2.202000
  H     -4.467000    6.183000    2.172000
  H     -6.266000    7.284000    0.118000
  H     -5.017000    8.147000    1.066000
  H     -4.991000    8.218000   -0.719000
  H     -0.332000    5.282000    0.069000
  H     -2.774000    4.439000   -2.095000
  H      0.182000    1.072000    0.005000
  H     -0.183000   -1.080000   -0.021000
  H     -5.864000   -4.962000    1.895000
  H     -4.794000    2.272000    0.139000
  H     -4.800000   -2.160000   -1.994000
  H     -6.841000   -3.582000   -1.893000
  H     -8.428000   -4.536000    0.546000
  H     -7.956000   -5.337000   -0.981000
  H     -7.456000   -6.037000    0.584000
  H     -5.287000   -0.344000    0.100000
  H     -3.780000   -3.601000    1.947000
  H      3.587000   -6.868000   -1.843000
  H     -2.276000   -4.774000   -0.050000
  H      3.714000   -3.724000    1.926000
  H      5.092000   -5.795000    1.871000
  H      6.205000   -7.329000   -0.439000
  H      5.393000   -7.917000    1.042000
  H      4.759000   -8.373000   -0.564000
  H      0.329000   -5.290000   -0.008000
  H      2.146000   -4.842000   -1.940000
  H      5.808000    4.986000   -1.956000
  H      4.788000   -2.281000   -0.185000
  H      4.860000    2.114000    1.912000
  H      6.901000    3.531000    1.772000
  H      7.383000    6.109000    0.356000
  H      8.414000    4.652000    0.435000
  H      7.921000    5.310000   -1.150000
  H      5.283000    0.336000   -0.179000
  H      3.720000    3.632000   -1.967000

 Total Charge           Charge          ....    0
 Multiplicity           Mult            ....    1
 Number of Electrons    NEL             ....  358
 Basis Dimension        Dim             ....  918

ORBITAL ENERGIES
----------------

  NO   OCC          E(Eh)            E(eV)
   0   2.0000     -15.719303      -427.7440
   1   2.0000     -15.628295      -425.2675
   2   2.0000     -15.618650      -425.0051
   3   2.0000     -15.576731      -423.8644
   4   2.0000     -15.520895      -422.3450
   5   2.0000     -15.504124      -421.8887
   6   2.0000     -15.451193      -420.4483
   7   2.0000     -15.426945      -419.7885
   8   2.0000     -11.357608      -309.0562
   9   2.0000     -11.355699      -309.0043
  10   2.0000     -11.349995      -308.8491
  11   2.0000     -11.313211      -307.8481
  12   2.0000     -11.296270      -307.3871
  13   2.0000     -11.290449      -307.2287
  14   2.0000     -11.289662      -307.2073
  15   2.0000     -11.286486      -307.1209
  16   2.0000     -11.286058      -307.1093
  17   2.0000     -11.281562      -306.9869
  18   2.0000     -11.280315      -306.9530
  19   2.0000     -11.271352      -306.7091
  20   2.0000     -11.263275      -306.4893
  21   2.0000     -11.243205      -305.9432
  22   2.0000     -11.239630      -305.8459
  23   2.0000     -11.232059      -305.6399
  24   2.0000     -11.226616      -305.4918
  25   2.0000     -11.225711      -305.4671
  26   2.0000     -11.222963      -305.3923
  27   2.0000     -11.219041      -305.2856
  28   2.0000     -11.218726      -305.2771
  29   2.0000     -11.211305      -305.0751
  30   2.0000     -11.209415      -305.0237
  31   2.0000     -11.195284      -304.6392
  32   2.0000     -11.194217      -304.6101
  33   2.0000     -11.192897      -304.5742
  34   2.0000     -11.188354      -304.4506
  35   2.0000     -11.187597      -304.4300
  36   2.0000     -11.183315      -304.3135
  37   2.0000     -11.179711      -304.2154
  38   2.0000     -11.179667      -304.2142
  39   2.0000     -11.177781      -304.1629
  40   2.0000     -11.170013      -303.9515
  41   2.0000     -11.165329      -303.8240
  42   2.0000     -11.164363      -303.7978
  43   2.0000     -11.161704      -303.7254
  44   2.0000     -11.160869      -303.7027
  45   2.0000     -11.144846      -303.2667
  46   2.0000     -11.144328      -303.2526
  47   2.0000     -11.140439      -303.1468
  48   2.0000     -11.137403      -303.0641
  49   2.0000     -11.130720      -302.8823
  50   2.0000     -11.116998      -302.5089
  51   2.0000     -11.111253      -302.3526
  52   2.0000      -1.391165       -37.8555
  53   2.0000      -1.316568       -35.8257
  54   2.0000      -1.307654       -35.5831
  55   2.0000      -1.271996       -34.6128
  56   2.0000      -1.224546       -33.3216
  57   2.0000      -1.200112       -32.6567
  58   2.0000      -1.178036       -32.0560
  59   2.0000      -1.164710       -31.6934
  60   2.0000      -1.137074       -30.9414
  61   2.0000      -1.109002       -30.1775
  62   2.0000      -1.105873       -30.0923
  63   2.0000      -1.097441       -29.8629
  64   2.0000      -1.066168       -29.0119
  65   2.0000      -1.057205       -28.7680
  66   2.0000      -1.041025       -28.3277
  67   2.0000      -1.032608       -28.0987
  68   2.0000      -1.015113       -27.6226
  69   2.0000      -1.003942       -27.3186
  70   2.0000      -0.999207       -27.1898
  71   2.0000      -0.995017       -27.0758
  72   2.0000      -0.985519       -26.8173
  73   2.0000      -0.976114       -26.5614
  74   2.0000      -0.964263       -26.2389
  75   2.0000      -0.961273       -26.1576
  76   2.0000      -0.950745       -25.8711
  77   2.0000      -0.940488       -25.5920
  78   2.0000      -0.934947       -25.4412
  79   2.0000      -0.919900       -25.0318
  80   2.0000      -0.912350       -24.8263
  81   2.0000      -0.891112       -24.2484
  82   2.0000      -0.886570       -24.1248
  83   2.0000      -0.868143       -23.6234
  84   2.0000      -0.860116       -23.4050
  85   2.0000      -0.846358       -23.0306
  86   2.0000      -0.829028       -22.5590
  87   2.0000      -0.826586       -22.4926
  88   2.0000      -0.820256       -22.3203
  89   2.0000      -0.794309       -21.6142
  90   2.0000      -0.785810       -21.3830
  91   2.0000      -0.771990       -21.0069
  92   2.0000      -0.739890       -20.1334
  93   2.0000      -0.733586       -19.9619
  94   2.0000      -0.728884       -19.8339
  95   2.0000      -0.723916       -19.6988
  96   2.0000      -0.716192       -19.4886
  97   2.0000      -0.709488       -19.3062
  98   2.0000      -0.707355       -19.2481
  99   2.0000      -0.704488       -19.1701
 100   2.0000      -0.695762       -18.9326
 101   2.0000      -0.688244       -18.7281
 102   2.0000      -0.684154       -18.6168
 103   2.0000      -0.675438       -18.3796
 104   2.0000      -0.672294       -18.2941
 105   2.0000      -0.670868       -18.2553
 106   2.0000      -0.666874       -18.1466
 107   2.0000      -0.661777       -18.0079
 108   2.0000      -0.651960       -17.7407
 109   2.0000      -0.649034       -17.6611
 110   2.0000      -0.648332       -17.6420
 111   2.0000      -0.642095       -17.4723
 112   2.0000      -0.640490       -17.4286
 113   2.0000      -0.634363       -17.2619
 114   2.0000      -0.633960       -17.2509
 115   2.0000      -0.629317       -17.1246
 116   2.0000      -0.626989       -17.0612
 117   2.0000      -0.614964       -16.7340
 118   2.0000      -0.610937       -16.6244
 119   2.0000      -0.608938       -16.5701
 120   2.0000      -0.608249       -16.5513
 121   2.0000      -0.600773       -16.3479
 122   2.0000      -0.592275       -16.1166
 123   2.0000      -0.589337       -16.0367
 124   2.0000      -0.584423       -15.9030
 125   2.0000      -0.578074       -15.7302
 126   2.0000      -0.574751       -15.6398
 127   2.0000      -0.570905       -15.5351
 128   2.0000      -0.570519       -15.5246
 129   2.0000      -0.569946       -15.5090
 130   2.0000      -0.556302       -15.1378
 131   2.0000      -0.543143       -14.7797
 132   2.0000      -0.542055       -14.7501
 133   2.0000      -0.538393       -14.6504
 134   2.0000      -0.533466       -14.5163
 135   2.0000      -0.529295       -14.4029
 136   2.0000      -0.519410       -14.1339
 137   2.0000      -0.515753       -14.0344
 138   2.0000      -0.513674       -13.9778
 139   2.0000      -0.511994       -13.9321
 140   2.0000      -0.509657       -13.8685
 141   2.0000      -0.503238       -13.6938
 142   2.0000      -0.501117       -13.6361
 143   2.0000      -0.497779       -13.5453
 144   2.0000      -0.495300       -13.4778
 145   2.0000      -0.492822       -13.4104
 146   2.0000      -0.488377       -13.2894
 147   2.0000      -0.473279       -12.8786
 148   2.0000      -0.470187       -12.7945
 149   2.0000      -0.466030       -12.6813
 150   2.0000      -0.462496       -12.5852
 151   2.0000      -0.460123       -12.5206
 152   2.0000      -0.451847       -12.2954
 153   2.0000      -0.440712       -11.9924
 154   2.0000      -0.432977       -11.7819
 155   2.0000      -0.431239       -11.7346
 156   2.0000      -0.418217       -11.3803
 157   2.0000      -0.416811       -11.3420
 158   2.0000      -0.411396       -11.1947
 159   2.0000      -0.409586       -11.1454
 160   2.0000      -0.381295       -10.3756
 161   2.0000      -0.369497       -10.0545
 162   2.0000      -0.353186        -9.6107
 163   2.0000      -0.351763        -9.5720
 164   2.0000      -0.345706        -9.4071
 165   2.0000      -0.341455        -9.2915
 166   2.0000      -0.338021        -9.1980
 167   2.0000      -0.317085        -8.6283
 168   2.0000      -0.312074        -8.4920
 169   2.0000      -0.304967        -8.2986
 170   2.0000      -0.298030        -8.1098
 171   2.0000      -0.282555        -7.6887
 172   2.0000      -0.275342        -7.4924
 173   2.0000      -0.266437        -7.2501
 174   2.0000      -0.229189        -6.2365
 175   2.0000      -0.182993        -4.9795
 176   2.0000      -0.173215        -4.7134
 177   2.0000      -0.062683        -1.7057
 178   2.0000      -0.050722        -1.3802
 179   0.0000       0.036127         0.9831
 180   0.0000       0.054387         1.4799
 181   0.0000       0.073960         2.0126
 182   0.0000       0.098662         2.6847
 183   0.0000       0.102160         2.7799

MULLIKEN ATOMIC CHARGES
-----------------------
   0 C :    0.239184
   1 N :   -0.410549
   2 C :   -0.066072
   3 N :   -0.344026
   4 C :   -0.065420
   5 N :   -0.566345
   6 C :   -0.025557
   7 N :   -0.336727
   8 C :    0.234639
   9 N :   -0.566485
  10 C :    0.102653
  11 N :   -0.440210
  12 C :   -0.058464
  13 N :   -0.451920
  14 C :    0.220130
  15 N :   -0.441822
  16 C :    0.257647
  17 C :   -0.033095
  18 C :   -0.177058
  19 C :    0.231512
  20 C :    0.185972
  21 C :   -0.068163
  22 C :   -0.092250
  23 C :   -0.069078
  24 C :    0.217484
  25 C :    0.115199
  26 C :   -0.064828
  27 C :    0.249928
  28 C :   -0.038923
  29 C :   -0.198038
  30 C :    0.219627
  31 C :    0.185913
  32 C :   -0.064616
  33 C :   -0.104237
  34 C :   -0.050703
  35 C :    0.176518
  36 C :    0.121595
  37 C :   -0.070996
  38 C :    0.244903
  39 C :   -0.065540
  40 C :   -0.205829
  41 C :    0.216232
  42 C :    0.212701
  43 C :   -0.077653
  44 C :   -0.092948
  45 C :   -0.037044
  46 C :    0.182025
  47 C :    0.116916
  48 C :   -0.082359
  49 C :    0.206199
  50 C :   -0.068971
  51 C :   -0.188331
  52 H :    0.084010
  53 H :   -0.006093
  54 H :    0.069514
  55 H :    0.082649
  56 H :    0.087196
  57 H :    0.078116
  58 H :    0.075977
  59 H :   -0.029826
  60 H :    0.068603
  61 H :    0.177631
  62 H :    0.167252
  63 H :    0.051771
  64 H :   -0.035647
  65 H :    0.039688
  66 H :    0.054070
  67 H :    0.057227
  68 H :    0.055430
  69 H :    0.058583
  70 H :   -0.012250
  71 H :    0.045920
  72 H :    0.035778
  73 H :   -0.019683
  74 H :    0.027812
  75 H :    0.034441
  76 H :    0.044797
  77 H :    0.044996
  78 H :    0.044264
  79 H :   -0.011636
  80 H :    0.027589
  81 H :    0.049801
  82 H :   -0.022867
  83 H :    0.042473
  84 H :    0.048719
  85 H :    0.053628
  86 H :    0.056258
  87 H :    0.054090
  88 H :   -0.031019
  89 H :    0.038013
Sum of atomic charges:    0.0000000

LOEWDIN ATOMIC CHARGES
----------------------
   0 C :    0.042868
   1 N :    0.197312
   2 C :   -0.097945
   3 N :    0.170701
   4 C :    0.125199
   5 N :   -0.148937
   6 C :   -0.008800
   7 N :    0.177516
   8 C :    0.039539
   9 N :   -0.138524
  10 C :    0.041266
  11 N :    0.138000
  12 C :   -0.096271
  13 N :    0.111050
  14 C :   -0.062471
  15 N :    0.133974
  16 C :   -0.014699
  17 C :   -0.011945
  18 C :   -0.122003
  19 C :   -0.089462
  20 C :   -0.020739
  21 C :   -0.098785
  22 C :    0.030815
  23 C :   -0.035407
  24 C :    0.007243
  25 C :    0.028960
  26 C :   -0.090671
  27 C :   -0.051016
  28 C :   -0.014706
  29 C :   -0.119321
  30 C :   -0.066621
  31 C :   -0.028962
  32 C :   -0.101114
  33 C :   -0.010215
  34 C :   -0.027544
  35 C :   -0.037380
  36 C :    0.022544
  37 C :   -0.111081
  38 C :   -0.028309
  39 C :   -0.035226
  40 C :   -0.114029
  41 C :   -0.093124
  42 C :    0.000976
  43 C :   -0.114964
  44 C :    0.025617
  45 C :   -0.013600
  46 C :   -0.025710
  47 C :    0.028015
  48 C :   -0.115214
  49 C :   -0.120026
  50 C :   -0.034813
  51 C :   -0.107657
  52 H :    0.042998
  53 H :    0.008168
  54 H :    0.056838
  55 H :    0.042751
  56 H :    0.041161
  57 H :    0.040643
  58 H :    0.040299
  59 H :   -0.000993
  60 H :    0.056300
  61 H :    0.062879
  62 H :    0.057414
  63 H :    0.028186
  64 H :   -0.005804
  65 H :    0.041152
  66 H :    0.029569
  67 H :    0.025865
  68 H :    0.030757
  69 H :    0.031057
  70 H :    0.003734
  71 H :    0.045176
  72 H :    0.021265
  73 H :    0.001572
  74 H :    0.037073
  75 H :    0.020269
  76 H :    0.019299
  77 H :    0.025412
  78 H :    0.025114
  79 H :    0.005623
  80 H :    0.036166
  81 H :    0.027764
  82 H :   -0.001260
  83 H :    0.044092
  84 H :    0.026429
  85 H :    0.023969
  86 H :    0.030280
  87 H :    0.029908
  88 H :   -0.005514
  89 H :    0.040084

  Mayer bond orders larger than 0.100000
B(  0-C ,  1-N ) :   1.2138 B(  0-C , 17-C ) :   1.5104 B(  0-C , 52-H ) :   0.9666
B(  1-N ,  8-C ) :   1.2067 B(  1-N , 10-C ) :   0.9235 B(  2-C , 12-C ) :   1.5827
B(  2-C , 16-C ) :   1.2708 B(  2-C , 53-H ) :   0.9793 B(  3-N , 14-C ) :   1.1745
B(  3-N , 16-C ) :   1.2020 B(  3-N , 61-H ) :   0.8950 B(  4-C ,  6-C ) :   1.3637
B(  4-C , 17-C ) :   1.3628 B(  4-C , 18-C ) :   1.0479 B(  5-N , 19-C ) :   1.3629
B(  5-N , 27-C ) :   1.4496 B(  6-C ,  8-C ) :   1.5102 B(  6-C , 54-H ) :   0.9704
B(  7-N , 30-C ) :   1.1840 B(  7-N , 38-C ) :   1.2159 B(  7-N , 62-H ) :   0.9016
B(  8-C , 55-H ) :   0.9674 B(  9-N , 41-C ) :   1.4365 B(  9-N , 49-C ) :   1.3912
B( 10-C , 56-H ) :   0.9767 B( 10-C , 57-H ) :   0.9805 B( 10-C , 58-H ) :   0.9816
B( 11-N , 20-C ) :   1.0952 B( 11-N , 24-C ) :   1.1341 B( 11-N , 25-C ) :   0.9628
B( 12-C , 14-C ) :   1.2709 B( 12-C , 59-H ) :   0.9767 B( 13-N , 31-C ) :   1.0805
B( 13-N , 35-C ) :   1.0705 B( 13-N , 36-C ) :   0.9832 B( 14-C , 18-C ) :   1.2636
B( 15-N , 42-C ) :   1.1265 B( 15-N , 46-C ) :   1.0879 B( 15-N , 47-C ) :   0.9667
B( 16-C , 51-C ) :   1.2497 B( 17-C , 60-H ) :   0.9709 B( 18-C , 19-C ) :   1.3152
B( 19-C , 21-C ) :   1.1599 B( 20-C , 28-C ) :   1.6301 B( 20-C , 63-H ) :   0.9710
B( 21-C , 26-C ) :   1.6848 B( 21-C , 64-H ) :   0.9714 B( 22-C , 23-C ) :   1.2540
B( 22-C , 28-C ) :   1.2793 B( 22-C , 29-C ) :   1.2587 B( 23-C , 24-C ) :   1.6362
B( 23-C , 65-H ) :   0.9723 B( 24-C , 66-H ) :   0.9691 B( 25-C , 67-H ) :   0.9762
B( 25-C , 68-H ) :   0.9834 B( 25-C , 69-H ) :   0.9819 B( 26-C , 27-C ) :   1.1701
B( 26-C , 70-H ) :   0.9758 B( 27-C , 29-C ) :   1.2440 B( 28-C , 71-H ) :   0.9709
B( 29-C , 30-C ) :   1.1724 B( 30-C , 32-C ) :   1.3535 B( 31-C , 39-C ) :   1.6869
B( 31-C , 72-H ) :   0.9709 B( 32-C , 37-C ) :   1.5065 B( 32-C , 73-H ) :   0.9771
B( 33-C , 34-C ) :   1.2307 B( 33-C , 39-C ) :   1.2233 B( 33-C , 40-C ) :   1.3628
B( 34-C , 35-C ) :   1.6856 B( 34-C , 74-H ) :   0.9710 B( 35-C , 75-H ) :   0.9709
B( 36-C , 76-H ) :   0.9755 B( 36-C , 77-H ) :   0.9826 B( 36-C , 78-H ) :   0.9838
B( 37-C , 38-C ) :   1.3469 B( 37-C , 79-H ) :   0.9793 B( 38-C , 40-C ) :   1.1765
B( 39-C , 80-H ) :   0.9721 B( 40-C , 41-C ) :   1.1668 B( 41-C , 43-C ) :   1.2572
B( 42-C , 50-C ) :   1.6426 B( 42-C , 81-H ) :   0.9696 B( 43-C , 48-C ) :   1.5939
B( 43-C , 82-H ) :   0.9757 B( 44-C , 45-C ) :   1.2814 B( 44-C , 50-C ) :   1.2480
B( 44-C , 51-C ) :   1.2460 B( 45-C , 46-C ) :   1.6331 B( 45-C , 83-H ) :   0.9702
B( 46-C , 84-H ) :   0.9709 B( 47-C , 85-H ) :   0.9759 B( 47-C , 86-H ) :   0.9825
B( 47-C , 87-H ) :   0.9830 B( 48-C , 49-C ) :   1.2514 B( 48-C , 88-H ) :   0.9726
B( 49-C , 51-C ) :   1.1895 B( 50-C , 89-H ) :   0.9723

MP2 TOTAL ENERGY:    -2130.870061682 Eh
FINAL SINGLE POINT ENERGY     -2130.870061682291

DIPOLE MOMENT
-------------
                                X             Y             Z
Electronic contribution:     -4.64458       5.53441      -0.14849
Nuclear contribution   :     -0.03141       0.16210       0.20438
                        -----------------------------------------
Total Dipole Moment    :     -4.67599       5.69651       0.05589
                        -----------------------------------------
Magnitude (a.u.)       :      7.37009
Magnitude (Debye)      :     18.73329

Rotational constants in cm-1:     0.001498     0.001472     0.000763
Rotational constants in MHz :    44.903177    44.137773    22.868007

                             ****ORCA TERMINATED NORMALLY****
TOTAL RUN TIME: 0 days 1 hours 36 minutes 25 seconds 781 msec
