                         Program Version 5.0.4 -  RELEASE  -
|  1> ! PAL2
|  2> ! mp2 cc-pvdz TightSCF  NoKeepInts
|  3>
|  4> %scf
|  5>   MaxCore 2000
|  6> end
|  7> %mp2
|  8>   MaxCore 2000
|  9> end
| 10> * xyz 0 1
| 11>    C       -4.62000         5.39300         0.95900
| 12>    C        1.47400         4.04100         0.05700
| 13>    C       -2.80200         4.09300         0.04900
| 14>    C       -2.57200         5.14200        -0.85500
| 15>    C       -3.36400         6.27200        -0.82100
| 16>    C       -5.17900         7.62500         0.11000
| 17>    C        0.13200         4.30700         0.06100
| 18>    C       -0.56900         3.05600         0.04700
| 19>    C        1.64900         2.61800         0.02300
| 20>    C       -3.85200         4.24500         0.96800
| 21>    N       -4.37300         6.38500         0.07400
| 22>    N        0.38800         2.06700         0.02500
| 23>    N       -2.01000         0.39500        -0.07500
| 24>    N       -0.38800        -2.07400        -0.02700
| 25>    N        2.01000        -0.40100         0.06500
| 26>    C       -1.96000         2.86100         0.02400
| 27>    C       -2.62300         1.61500        -0.01800
| 28>    C       -5.57300        -4.32900         1.06600
| 29>    C       -4.07300         1.47100         0.05600
| 30>    C       -4.10600        -2.75600        -0.02600
| 31>    C       -4.99500        -2.75700        -1.11100
| 32>    C       -6.13200        -3.54200        -1.07600
| 33>    C       -7.65100        -5.11300         0.04000
| 34>    C       -4.32400         0.14100         0.03700
| 35>    C       -3.02500        -0.52000        -0.04800
| 36>    C       -4.42200        -3.56600         1.07500
| 37>    N       -6.40700        -4.31300         0.00100
| 38>    C       -2.86700        -1.92200        -0.04000
| 39>    C       -1.65000        -2.62400        -0.02700
| 40>    C        3.56800        -6.14200        -1.04000
| 41>    C       -1.47600        -4.04900        -0.03400
| 42>    C        2.80300        -4.09900        -0.00800
| 43>    C        3.65700        -4.38400         1.06900
| 44>    C        4.42700        -5.53000         1.05900
| 45>    C        5.24500        -7.58800         0.01400
| 46>    C       -0.13400        -4.31500        -0.02200
| 47>    C        0.56800        -3.06400        -0.02700
| 48>    C        2.77500        -5.01200        -1.07400
| 49>    N        4.37600        -6.39100         0.01700
| 50>    C        1.95900        -2.86900        -0.00900
| 51>    C        2.62100        -1.62200         0.00900
| 52>    C        5.54300         4.33900        -1.13000
| 53>    C        4.07000        -1.47900        -0.09400
| 54>    C        4.10400         2.75100        -0.02100
| 55>    C        5.02700         2.72900         1.03600
| 56>    C        6.16600         3.50900         0.97800
| 57>    C        7.61900         5.15300        -0.11500
| 58>    C        4.32100        -0.14800        -0.09200
| 59>    C        3.02500         0.51400         0.01500
| 60>    C        4.38700         3.58200        -1.11500
| 61>    C        2.86600         1.91600         0.01300
| 62>    N        6.41300         4.29600        -0.09500
| 63>    H       -5.44700         5.54800         1.64100
| 64>    H        2.27400         4.76600         0.08100
| 65>    H       -1.77100         5.08800        -1.58200
| 66>    H       -3.22000         7.11000        -1.49100
| 67>    H       -4.67500         8.35900         0.74300
| 68>    H       -5.27700         8.01000        -0.90500
| 69>    H       -6.16200         7.39200         0.51700
| 70>    H       -0.33200         5.28200         0.06900
| 71>    H       -4.08800         3.46500         1.68200
| 72>    H        0.18200         1.07200         0.00500
| 73>    H       -0.18300        -1.08000        -0.02100
| 74>    H       -5.86400        -4.96200         1.89500
| 75>    H       -4.79400         2.27200         0.13900
| 76>    H       -4.80000        -2.16000        -1.99400
| 77>    H       -6.84100        -3.58200        -1.89300
| 78>    H       -8.42800        -4.53600         0.54600
| 79>    H       -7.95600        -5.33700        -0.98100
| 80>    H       -7.45600        -6.03700         0.58400
| 81>    H       -5.28700        -0.34400         0.10000
| 82>    H       -3.78000        -3.60100         1.94700
| 83>    H        3.58700        -6.86800        -1.84300
| 84>    H       -2.27600        -4.77400        -0.05000
| 85>    H        3.71400        -3.72400         1.92600
| 86>    H        5.09200        -5.79500         1.87100
| 87>    H        6.20500        -7.32900        -0.43900
| 88>    H        5.39300        -7.91700         1.04200
| 89>    H        4.75900        -8.37300        -0.56400
| 90>    H        0.32900        -5.29000        -0.00800
| 91>    H        2.14600        -4.84200        -1.94000
| 92>    H        5.80800         4.98600        -1.95600
| 93>    H        4.78800        -2.28100        -0.18500
| 94>    H        4.86000         2.11400         1.91200
| 95>    H        6.90100         3.53100         1.77200
| 96>    H        7.38300         6.10900         0.35600
| 97>    H        8.41400         4.65200         0.43500
| 98>    H        7.92100         5.31000        -1.15000
| 99>    H        5.28300         0.33600        -0.17900
|100>    H        3.72000         3.63200        -1.96700
|101> *
|102>
|103>                          ****END OF INPUT****

CARTESIAN COORDINATES (ANGSTROEM)
---------------------------------
  C     -4.620000    5.393000    0.959000
  C      1.474000    4.041000    0.057000
  C     -2.802000    4.093000    0.049000
  C     -2.572000    5.142000   -0.855000
  C     -3.364000    6.272000   -0.821000
  C     -5.179000    7.625000    0.110000
  C      0.132000    4.307000    0.061000
  C     -0.569000    3.056000    0.047000
  C      1.649000    2.618000    0.023000
  C     -3.852000    4.245000    0.968000
  N     -4.373000    6.385000    0.074000
  N      0.388000    2.067000    0.025000
  N     -2.010000    0.395000   -0.075000
  N     -0.388000   -2.074000   -0.027000
  N      2.010000   -0.401000    0.065000
  C     -1.960000    2.861000    0.024000
  C     -2.623000    1.615000   -0.018000
  C     -5.573000   -4.329000    1.066000
  C     -4.073000    1.471000    0.056000
  C     -4.106000   -2.756000   -0.026000
  C     -4.995000   -2.757000   -1.111000
  C     -6.132000   -3.542000   -1.076000
  C     -7.651000   -5.113000    0.040000
  C     -4.324000    0.141000    0.037000
  C     -3.025000   -0.520000   -0.048000
  C     -4.422000   -3.566000    1.075000
  N     -6.407000   -4.313000    0.001000
  C     -2.867000   -1.922000   -0.040000
  C     -1.650000   -2.624000   -0.027000
  C      3.568000   -6.142000   -1.040000
  C     -1.476000   -4.049000   -0.034000
  C      2.803000   -4.099000   -0.008000
  C      3.657000   -4.384000    1.069000
  C      4.427000   -5.530000    1.059000
  C      5.245000   -7.588000    0.014000
  C     -0.134000   -4.315000   -0.022000
  C      0.568000   -3.064000   -0.027000
  C      2.775000   -5.012000   -1.074000
  N      4.376000   -6.391000    0.017000
  C      1.959000   -2.869000   -0.009000
  C      2.621000   -1.622000    0.009000
  C      5.543000    4.339000   -1.130000
  C      4.070000   -1.479000   -0.094000
  C      4.104000    2.751000   -0.021000
  C      5.027000    2.729000    1.036000
  C      6.166000    3.509000    0.978000
  C      7.619000    5.153000   -0.115000
  C      4.321000   -0.148000   -0.092000
  C      3.025000    0.514000    0.015000
  C      4.387000    3.582000   -1.115000
  C      2.866000    1.916000    0.013000
  N      6.413000    4.296000   -0.095000
  H     -5.447000    5.548000    1.641000
  H      2.274000    4.766000    0.081000
  H     -1.771000    5.088000   -1.582000
  H     -3.220000    7.110000   -1.491000
  H     -4.675000    8.359000    0.743000
  H     -5.277000    8.010000   -0.905000
  H     -6.162000    7.392000    0.517000
  H     -0.332000    5.282000    0.069000
  H     -4.088000    3.465000    1.682000
  H      0.182000    1.072000    0.005000
  H     -0.183000   -1.080000   -0.021000
  H     -5.864000   -4.962000    1.895000
  H     -4.794000    2.272000    0.139000
  H     -4.800000   -2.160000   -1.994000
  H     -6.841000   -3.582000   -1.893000
  H     -8.428000   -4.536000    0.546000
  H     -7.956000   -5.337000   -0.981000
  H     -7.456000   -6.037000    0.584000
  H     -5.287000   -0.344000    0.100000
  H     -3.780000   -3.601000    1.947000
  H      3.587000   -6.868000   -1.843000
  H     -2.276000   -4.774000   -0.050000
  H      3.714000   -3.724000    1.926000
  H      5.092000   -5.795000    1.871000
  H      6.205000   -7.329000   -0.439000
  H      5.393000   -7.917000    1.042000
  H      4.759000   -8.373000   -0.564000
  H      0.329000   -5.290000   -0.008000
  H      2.146000   -4.842000   -1.940000
  H      5.808000    4.986000   -1.956000
  H      4.788000   -2.281000   -0.185000
  H      4.860000    2.114000    1.912000
  H      6.901000    3.531000    1.772000
  H      7.383000    6.109000    0.356000
  H      8.414000    4.652000    0.435000
  H      7.921000    5.310000   -1.150000
  H      5.283000    0.336000   -0.179000
  H      3.720000    3.632000   -1.967000

 Total Charge           Charge          ....    0
 Multiplicity           Mult            ....    1
 Number of Electrons    NEL             ....  358
 Basis Dimension        Dim             ....  918

ORBITAL ENERGIES
----------------

  NO   OCC          E(Eh)            E(eV)
   0   2.0000     -15.651469      -425.8981
   1   2.0000     -15.637828      -425.5269
   2   2.0000     -15.629511      -425.3006
   3   2.0000     -15.611195      -424.8022
   4   2.0000     -15.521165      -422.3524
   5   2.0000     -15.516332      -422.2208
   6   2.0000     -15.447176      -420.3390
   7   2.0000     -15.443353      -420.2350
   8   2.0000     -11.310382      -307.7711
   9   2.0000     -11.306150      -307.6560
  10   2.0000     -11.304001      -307.5975
  11   2.0000     -11.301670      -307.5341
  12   2.0000     -11.296655      -307.3976
  13   2.0000     -11.294540      -307.3401
  14   2.0000     -11.291521      -307.2579
  15   2.0000     -11.287350      -307.1444
  16   2.0000     -11.285920      -307.1055
  17   2.0000     -11.285795      -307.1021
  18   2.0000     -11.273074      -306.7559
  19   2.0000     -11.272134      -306.7304
  20   2.0000     -11.255313      -306.2726
  21   2.0000     -11.243267      -305.9449
  22   2.0000     -11.242368      -305.9204
  23   2.0000     -11.241191      -305.8884
  24   2.0000     -11.234078      -305.6948
  25   2.0000     -11.233686      -305.6841
  26   2.0000     -11.232906      -305.6629
  27   2.0000     -11.227654      -305.5200
  28   2.0000     -11.227505      -305.5159
  29   2.0000     -11.219488      -305.2978
  30   2.0000     -11.214306      -305.1568
  31   2.0000     -11.212710      -305.1133
  32   2.0000     -11.203705      -304.8683
  33   2.0000     -11.203088      -304.8515
  34   2.0000     -11.192806      -304.5717
  35   2.0000     -11.192303      -304.5580
  36   2.0000     -11.178201      -304.1743
  37   2.0000     -11.176755      -304.1350
  38   2.0000     -11.176429      -304.1261
  39   2.0000     -11.172363      -304.0155
  40   2.0000     -11.168151      -303.9008
  41   2.0000     -11.167603      -303.8859
  42   2.0000     -11.166211      -303.8481
  43   2.0000     -11.164019      -303.7884
  44   2.0000     -11.163936      -303.7862
  45   2.0000     -11.161947      -303.7320
  46   2.0000     -11.151296      -303.4422
  47   2.0000     -11.149136      -303.3834
  48   2.0000     -11.148176      -303.3573
  49   2.0000     -11.146345      -303.3075
  50   2.0000     -11.139518      -303.1217
  51   2.0000     -11.134942      -302.9972
  52   2.0000      -1.336235       -36.3608
  53   2.0000      -1.324482       -36.0410
  54   2.0000      -1.317410       -35.8486
  55   2.0000      -1.302651       -35.4469
  56   2.0000      -1.220379       -33.2082
  57   2.0000      -1.212150       -32.9843
  58   2.0000      -1.164515       -31.6881
  59   2.0000      -1.156277       -31.4639
  60   2.0000      -1.123196       -30.5637
  61   2.0000      -1.112685       -30.2777
  62   2.0000      -1.106721       -30.1154
  63   2.0000      -1.094808       -29.7912
  64   2.0000      -1.059595       -28.8331
  65   2.0000      -1.048397       -28.5283
  66   2.0000      -1.042076       -28.3563
  67   2.0000      -1.029243       -28.0071
  68   2.0000      -1.029006       -28.0007
  69   2.0000      -1.011666       -27.5288
  70   2.0000      -1.009644       -27.4738
  71   2.0000      -0.995625       -27.0923
  72   2.0000      -0.984679       -26.7945
  73   2.0000      -0.974912       -26.5287
  74   2.0000      -0.971960       -26.4484
  75   2.0000      -0.959433       -26.1075
  76   2.0000      -0.951690       -25.8968
  77   2.0000      -0.946226       -25.7481
  78   2.0000      -0.938786       -25.5457
  79   2.0000      -0.922997       -25.1160
  80   2.0000      -0.895280       -24.3618
  81   2.0000      -0.884759       -24.0755
  82   2.0000      -0.875452       -23.8222
  83   2.0000      -0.869530       -23.6611
  84   2.0000      -0.862435       -23.4680
  85   2.0000      -0.856336       -23.3021
  86   2.0000      -0.848911       -23.1000
  87   2.0000      -0.841354       -22.8944
  88   2.0000      -0.822024       -22.3684
  89   2.0000      -0.798741       -21.7349
  90   2.0000      -0.797037       -21.6885
  91   2.0000      -0.740860       -20.1598
  92   2.0000      -0.733538       -19.9606
  93   2.0000      -0.730040       -19.8654
  94   2.0000      -0.721681       -19.6379
  95   2.0000      -0.720410       -19.6033
  96   2.0000      -0.712820       -19.3968
  97   2.0000      -0.707370       -19.2485
  98   2.0000      -0.700174       -19.0527
  99   2.0000      -0.694196       -18.8900
 100   2.0000      -0.688801       -18.7432
 101   2.0000      -0.681316       -18.5395
 102   2.0000      -0.679019       -18.4770
 103   2.0000      -0.674102       -18.3433
 104   2.0000      -0.670197       -18.2370
 105   2.0000      -0.665877       -18.1194
 106   2.0000      -0.664748       -18.0887
 107   2.0000      -0.659638       -17.9497
 108   2.0000      -0.657630       -17.8950
 109   2.0000      -0.656339       -17.8599
 110   2.0000      -0.652209       -17.7475
 111   2.0000      -0.649167       -17.6647
 112   2.0000      -0.646267       -17.5858
 113   2.0000      -0.638697       -17.3798
 114   2.0000      -0.635673       -17.2975
 115   2.0000      -0.625474       -17.0200
 116   2.0000      -0.624138       -16.9837
 117   2.0000      -0.615282       -16.7427
 118   2.0000      -0.612814       -16.6755
 119   2.0000      -0.609931       -16.5971
 120   2.0000      -0.609210       -16.5774
 121   2.0000      -0.603248       -16.4152
 122   2.0000      -0.595882       -16.2148
 123   2.0000      -0.593220       -16.1423
 124   2.0000      -0.591307       -16.0903
 125   2.0000      -0.584020       -15.8920
 126   2.0000      -0.579014       -15.7558
 127   2.0000      -0.574241       -15.6259
 128   2.0000      -0.567452       -15.4411
 129   2.0000      -0.559617       -15.2280
 130   2.0000      -0.553853       -15.0711
 131   2.0000      -0.547895       -14.9090
 132   2.0000      -0.541150       -14.7254
 133   2.0000      -0.536442       -14.5973
 134   2.0000      -0.534486       -14.5441
 135   2.0000      -0.529119       -14.3981
 136   2.0000      -0.526431       -14.3249
 137   2.0000      -0.522837       -14.2271
 138   2.0000      -0.520163       -14.1544
 139   2.0000      -0.516495       -14.0545
 140   2.0000      -0.510541       -13.8925
 141   2.0000      -0.506835       -13.7917
 142   2.0000      -0.505977       -13.7683
 143   2.0000      -0.501293       -13.6409
 144   2.0000      -0.500691       -13.6245
 145   2.0000      -0.498368       -13.5613
 146   2.0000      -0.495062       -13.4713
 147   2.0000      -0.491276       -13.3683
 148   2.0000      -0.489646       -13.3239
 149   2.0000      -0.469569       -12.7776
 150   2.0000      -0.461717       -12.5640
 151   2.0000      -0.453480       -12.3398
 152   2.0000      -0.448102       -12.1935
 153   2.0000      -0.446869       -12.1599
 154   2.0000      -0.446298       -12.1444
 155   2.0000      -0.439689       -11.9645
 156   2.0000      -0.435070       -11.8389
 157   2.0000      -0.430384       -11.7114
 158   2.0000      -0.394760       -10.7420
 159   2.0000      -0.385646       -10.4940
 160   2.0000      -0.377842       -10.2816
 161   2.0000      -0.371830       -10.1180
 162   2.0000      -0.368543       -10.0286
 163   2.0000      -0.358970        -9.7681
 164   2.0000      -0.353766        -9.6265
 165   2.0000      -0.341120        -9.2824
 166   2.0000      -0.337134        -9.1739
 167   2.0000      -0.334597        -9.1049
 168   2.0000      -0.328858        -8.9487
 169   2.0000      -0.300242        -8.1700
 170   2.0000      -0.298166        -8.1135
 171   2.0000      -0.288332        -7.8459
 172   2.0000      -0.286640        -7.7999
 173   2.0000      -0.257268        -7.0006
 174   2.0000      -0.247601        -6.7376
 175   2.0000      -0.188800        -5.1375
 176   2.0000      -0.178844        -4.8666
 177   2.0000      -0.068996        -1.8775
 178   2.0000      -0.055515        -1.5106
 179   0.0000       0.030098         0.8190
 180   0.0000       0.069917         1.9025
 181   0.0000       0.092654         2.5212
 182   0.0000       0.100242         2.7277
 183   0.0000       0.125481         3.4145

MULLIKEN ATOMIC CHARGES
-----------------------
   0 C :    0.208597
   1 N :   -0.447889
   2 C :   -0.063109
   3 N :   -0.336323
   4 C :   -0.055485
   5 N :   -0.562923
   6 C :   -0.084927
   7 N :   -0.338678
   8 C :    0.202765
   9 N :   -0.562984
  10 C :    0.116759
  11 N :   -0.437552
  12 C :   -0.078101
  13 N :   -0.436082
  14 C :    0.244258
  15 N :   -0.440925
  16 C :    0.230379
  17 C :   -0.090924
  18 C :   -0.215637
  19 C :    0.240175
  20 C :    0.210513
  21 C :   -0.091000
  22 C :   -0.088523
  23 C :   -0.044990
  24 C :    0.201158
  25 C :    0.114034
  26 C :   -0.072341
  27 C :    0.217975
  28 C :   -0.056089
  29 C :   -0.182635
  30 C :    0.239341
  31 C :    0.218089
  32 C :   -0.064072
  33 C :   -0.073703
  34 C :   -0.050376
  35 C :    0.212936
  36 C :    0.111965
  37 C :   -0.066017
  38 C :    0.234956
  39 C :   -0.060052
  40 C :   -0.186438
  41 C :    0.222938
  42 C :    0.200837
  43 C :   -0.072998
  44 C :   -0.089353
  45 C :   -0.055804
  46 C :    0.206290
  47 C :    0.115556
  48 C :   -0.071540
  49 C :    0.231022
  50 C :   -0.050545
  51 C :   -0.189789
  52 H :    0.048570
  53 H :   -0.014820
  54 H :    0.046760
  55 H :    0.046439
  56 H :    0.054631
  57 H :    0.052822
  58 H :    0.052259
  59 H :   -0.006192
  60 H :    0.049766
  61 H :    0.172164
  62 H :    0.173824
  63 H :    0.056366
  64 H :   -0.013306
  65 H :    0.047633
  66 H :    0.057277
  67 H :    0.062787
  68 H :    0.058064
  69 H :    0.058077
  70 H :   -0.026184
  71 H :    0.046831
  72 H :    0.061899
  73 H :   -0.011902
  74 H :    0.051724
  75 H :    0.061062
  76 H :    0.066698
  77 H :    0.061737
  78 H :    0.060973
  79 H :   -0.014843
  80 H :    0.052280
  81 H :    0.053511
  82 H :   -0.023910
  83 H :    0.042673
  84 H :    0.053532
  85 H :    0.059694
  86 H :    0.055978
  87 H :    0.056700
  88 H :   -0.018861
  89 H :    0.044544
Sum of atomic charges:   -0.0000000

LOEWDIN ATOMIC CHARGES
----------------------
   0 C :   -0.011011
   1 N :    0.126962
   2 C :   -0.100784
   3 N :    0.180946
   4 C :    0.017363
   5 N :   -0.135905
   6 C :   -0.029758
   7 N :    0.177092
   8 C :   -0.014839
   9 N :   -0.139771
  10 C :    0.026577
  11 N :    0.144119
  12 C :   -0.105189
  13 N :    0.150664
  14 C :   -0.038893
  15 N :    0.138425
  16 C :   -0.051739
  17 C :   -0.032078
  18 C :   -0.105381
  19 C :   -0.084499
  20 C :    0.002591
  21 C :   -0.110127
  22 C :    0.040810
  23 C :   -0.017597
  24 C :   -0.005355
  25 C :    0.030296
  26 C :   -0.103679
  27 C :   -0.103692
  28 C :   -0.023568
  29 C :   -0.104417
  30 C :   -0.039838
  31 C :    0.009933
  32 C :   -0.097665
  33 C :    0.055579
  34 C :   -0.017982
  35 C :    0.005599
  36 C :    0.031720
  37 C :   -0.098772
  38 C :   -0.045442
  39 C :   -0.022402
  40 C :   -0.108653
  41 C :   -0.092654
  42 C :   -0.007719
  43 C :   -0.102434
  44 C :    0.033307
  45 C :   -0.024507
  46 C :   -0.002782
  47 C :    0.029323
  48 C :   -0.100560
  49 C :   -0.081854
  50 C :   -0.021844
  51 C :   -0.108495
  52 H :    0.027300
  53 H :    0.003934
  54 H :    0.041439
  55 H :    0.026433
  56 H :    0.024304
  57 H :    0.028761
  58 H :    0.029202
  59 H :    0.006190
  60 H :    0.042715
  61 H :    0.060355
  62 H :    0.061013
  63 H :    0.031058
  64 H :    0.001224
  65 H :    0.045813
  66 H :    0.030218
  67 H :    0.028472
  68 H :    0.032001
  69 H :    0.031042
  70 H :   -0.002838
  71 H :    0.044636
  72 H :    0.033303
  73 H :    0.005236
  74 H :    0.047040
  75 H :    0.032707
  76 H :    0.030537
  77 H :    0.033238
  78 H :    0.032907
  79 H :    0.003841
  80 H :    0.046778
  81 H :    0.028844
  82 H :   -0.002155
  83 H :    0.043148
  84 H :    0.029406
  85 H :    0.026833
  86 H :    0.030335
  87 H :    0.031160
  88 H :    0.000300
  89 H :    0.043846

  Mayer bond orders larger than 0.100000
B(  0-C ,  1-N ) :   1.1044 B(  0-C , 17-C ) :   1.6671 B(  0-C , 52-H ) :   0.9689
B(  1-N ,  8-C ) :   1.0991 B(  1-N , 10-C ) :   0.9695 B(  2-C , 12-C ) :   1.5250
B(  2-C , 16-C ) :   1.3375 B(  2-C , 53-H ) :   0.9771 B(  3-N , 14-C ) :   1.2099
B(  3-N , 16-C ) :   1.1943 B(  3-N , 61-H ) :   0.8987 B(  4-C ,  6-C ) :   1.2390
B(  4-C , 17-C ) :   1.2387 B(  4-C , 18-C ) :   1.3453 B(  5-N , 19-C ) :   1.4353
B(  5-N , 27-C ) :   1.3922 B(  6-C ,  8-C ) :   1.6675 B(  6-C , 54-H ) :   0.9690
B(  7-N , 30-C ) :   1.1946 B(  7-N , 38-C ) :   1.1976 B(  7-N , 62-H ) :   0.8977
B(  8-C , 55-H ) :   0.9696 B(  9-N , 41-C ) :   1.4025 B(  9-N , 49-C ) :   1.4195
B( 10-C , 56-H ) :   0.9765 B( 10-C , 57-H ) :   0.9820 B( 10-C , 58-H ) :   0.9839
B( 11-N , 20-C ) :   1.1281 B( 11-N , 24-C ) :   1.1170 B( 11-N , 25-C ) :   0.9586
B( 12-C , 14-C ) :   1.3389 B( 12-C , 59-H ) :   0.9750 B( 13-N , 31-C ) :   1.1375
B( 13-N , 35-C ) :   1.1321 B( 13-N , 36-C ) :   0.9530 B( 14-C , 18-C ) :   1.1668
B( 15-N , 42-C ) :   1.1123 B( 15-N , 46-C ) :   1.1176 B( 15-N , 47-C ) :   0.9620
B( 16-C , 51-C ) :   1.1870 B( 17-C , 60-H ) :   0.9687 B( 18-C , 19-C ) :   1.1791
B( 19-C , 21-C ) :   1.2225 B( 20-C , 28-C ) :   1.6244 B( 20-C , 63-H ) :   0.9702
B( 21-C , 26-C ) :   1.6337 B( 21-C , 64-H ) :   0.9703 B( 22-C , 23-C ) :   1.2873
B( 22-C , 28-C ) :   1.2710 B( 22-C , 29-C ) :   1.2240 B( 23-C , 24-C ) :   1.6177
B( 23-C , 65-H ) :   0.9707 B( 24-C , 66-H ) :   0.9692 B( 25-C , 67-H ) :   0.9761
B( 25-C , 68-H ) :   0.9829 B( 25-C , 69-H ) :   0.9822 B( 26-C , 27-C ) :   1.2202
B( 26-C , 70-H ) :   0.9725 B( 27-C , 29-C ) :   1.2274 B( 28-C , 71-H ) :   0.9716
B( 29-C , 30-C ) :   1.2213 B( 30-C , 32-C ) :   1.3019 B( 31-C , 39-C ) :   1.6152
B( 31-C , 72-H ) :   0.9691 B( 32-C , 37-C ) :   1.5567 B( 32-C , 73-H ) :   0.9781
B( 33-C , 34-C ) :   1.2871 B( 33-C , 39-C ) :   1.2809 B( 33-C , 40-C ) :   1.2220
B( 34-C , 35-C ) :   1.6121 B( 34-C , 74-H ) :   0.9702 B( 35-C , 75-H ) :   0.9691
B( 36-C , 76-H ) :   0.9765 B( 36-C , 77-H ) :   0.9819 B( 36-C , 78-H ) :   0.9828
B( 37-C , 38-C ) :   1.3043 B( 37-C , 79-H ) :   0.9773 B( 38-C , 40-C ) :   1.2161
B( 39-C , 80-H ) :   0.9712 B( 40-C , 41-C ) :   1.2312 B( 41-C , 43-C ) :   1.2025
B( 42-C , 50-C ) :   1.6337 B( 42-C , 81-H ) :   0.9697 B( 43-C , 48-C ) :   1.6494
B( 43-C , 82-H ) :   0.9731 B( 44-C , 45-C ) :   1.2678 B( 44-C , 50-C ) :   1.2687
B( 44-C , 51-C ) :   1.2578 B( 45-C , 46-C ) :   1.6338 B( 45-C , 83-H ) :   0.9714
B( 46-C , 84-H ) :   0.9701 B( 47-C , 85-H ) :   0.9761 B( 47-C , 86-H ) :   0.9828
B( 47-C , 87-H ) :   0.9825 B( 48-C , 49-C ) :   1.2038 B( 48-C , 88-H ) :   0.9743
B( 49-C , 51-C ) :   1.2284 B( 50-C , 89-H ) :   0.9712

MP2 TOTAL ENERGY:    -2130.912778651 Eh
FINAL SINGLE POINT ENERGY     -2130.912778650971

DIPOLE MOMENT
-------------
                                X             Y             Z
Electronic contribution:      0.76673      -2.18144      -0.12805
Nuclear contribution   :      0.07804       0.24112       0.13676
                        -----------------------------------------
Total Dipole Moment    :      0.84478      -1.94032       0.00871
                        -----------------------------------------
Magnitude (a.u.)       :      2.11626
Magnitude (Debye)      :      5.37911

Rotational constants in cm-1:     0.001499     0.001476     0.000762
Rotational constants in MHz :    44.940593    44.241885    22.830550

                             ****ORCA TERMINATED NORMALLY****
TOTAL RUN TIME: 0 days 1 hours 19 minutes 59 seconds 598 msec
