                         Program Version 5.0.4 -  RELEASE  -
|  1> ! PAL2
|  2> ! mp2 cc-pvdz TightSCF  NoKeepInts
|  3>
|  4> %scf
|  5>   MaxCore 2000
|  6> end
|  7> %mp2
|  8>   MaxCore 2000
|  9> end
| 10> * xyz 0 1
| 11>    C       -3.97900         5.82600         1.24800
| 12>    C        1.47400         4.04100         0.05700
| 13>    C       -2.80200         4.09300         0.04900
| 14>    C       -3.23900         4.69200        -1.14300
| 15>    C       -4.02200         5.82800        -1.10100
| 16>    C       -5.19100         7.61700         0.09200
| 17>    C        0.13200         4.30700         0.06100
| 18>    C       -0.56900         3.05600         0.04700
| 19>    C        1.64900         2.61800         0.02300
| 20>    C       -3.19000         4.69200         1.25800
| 21>    N       -4.38400         6.37700         0.08200
| 22>    N        0.38800         2.06700         0.02500
| 23>    N       -2.01000         0.39500        -0.07500
| 24>    N       -0.38800        -2.07400        -0.02700
| 25>    N        2.01000        -0.40100         0.06500
| 26>    C       -1.96000         2.86100         0.02400
| 27>    C       -2.62300         1.61500        -0.01800
| 28>    C       -5.57300        -4.32900         1.06600
| 29>    C       -4.07300         1.47100         0.05600
| 30>    C       -4.10600        -2.75600        -0.02600
| 31>    C       -4.99500        -2.75700        -1.11100
| 32>    C       -6.13200        -3.54200        -1.07600
| 33>    C       -7.65100        -5.11300         0.04000
| 34>    C       -4.32400         0.14100         0.03700
| 35>    C       -3.02500        -0.52000        -0.04800
| 36>    C       -4.42200        -3.56600         1.07500
| 37>    N       -6.40700        -4.31300         0.00100
| 38>    C       -2.86700        -1.92200        -0.04000
| 39>    C       -1.65000        -2.62400        -0.02700
| 40>    C        3.56800        -6.14200        -1.04000
| 41>    C       -1.47600        -4.04900        -0.03400
| 42>    C        2.80300        -4.09900        -0.00800
| 43>    C        3.65700        -4.38400         1.06900
| 44>    C        4.42700        -5.53000         1.05900
| 45>    C        5.24500        -7.58800         0.01400
| 46>    C       -0.13400        -4.31500        -0.02200
| 47>    C        0.56800        -3.06400        -0.02700
| 48>    C        2.77500        -5.01200        -1.07400
| 49>    N        4.37600        -6.39100         0.01700
| 50>    C        1.95900        -2.86900        -0.00900
| 51>    C        2.62100        -1.62200         0.00900
| 52>    C        5.54300         4.33900        -1.13000
| 53>    C        4.07000        -1.47900        -0.09400
| 54>    C        4.10400         2.75100        -0.02100
| 55>    C        5.02700         2.72900         1.03600
| 56>    C        6.16600         3.50900         0.97800
| 57>    C        7.61900         5.15300        -0.11500
| 58>    C        4.32100        -0.14800        -0.09200
| 59>    C        3.02500         0.51400         0.01500
| 60>    C        4.38700         3.58200        -1.11500
| 61>    C        2.86600         1.91600         0.01300
| 62>    N        6.41300         4.29600        -0.09500
| 63>    H       -4.31100         6.31300         2.15600
| 64>    H        2.27400         4.76600         0.08100
| 65>    H       -2.96500         4.28200        -2.10700
| 66>    H       -4.37500         6.33000        -1.99200
| 67>    H       -4.52300         8.47800         0.01600
| 68>    H       -5.87500         7.59700        -0.75600
| 69>    H       -5.75400         7.66100         1.02400
| 70>    H       -0.33200         5.28200         0.06900
| 71>    H       -2.89600         4.26900         2.21200
| 72>    H        0.18200         1.07200         0.00500
| 73>    H       -0.18300        -1.08000        -0.02100
| 74>    H       -5.86400        -4.96200         1.89500
| 75>    H       -4.79400         2.27200         0.13900
| 76>    H       -4.80000        -2.16000        -1.99400
| 77>    H       -6.84100        -3.58200        -1.89300
| 78>    H       -8.42800        -4.53600         0.54600
| 79>    H       -7.95600        -5.33700        -0.98100
| 80>    H       -7.45600        -6.03700         0.58400
| 81>    H       -5.28700        -0.34400         0.10000
| 82>    H       -3.78000        -3.60100         1.94700
| 83>    H        3.58700        -6.86800        -1.84300
| 84>    H       -2.27600        -4.77400        -0.05000
| 85>    H        3.71400        -3.72400         1.92600
| 86>    H        5.09200        -5.79500         1.87100
| 87>    H        6.20500        -7.32900        -0.43900
| 88>    H        5.39300        -7.91700         1.04200
| 89>    H        4.75900        -8.37300        -0.56400
| 90>    H        0.32900        -5.29000        -0.00800
| 91>    H        2.14600        -4.84200        -1.94000
| 92>    H        5.80800         4.98600        -1.95600
| 93>    H        4.78800        -2.28100        -0.18500
| 94>    H        4.86000         2.11400         1.91200
| 95>    H        6.90100         3.53100         1.77200
| 96>    H        7.38300         6.10900         0.35600
| 97>    H        8.41400         4.65200         0.43500
| 98>    H        7.92100         5.31000        -1.15000
| 99>    H        5.28300         0.33600        -0.17900
|100>    H        3.72000         3.63200        -1.96700
|101> *
|102>
|103>                          ****END OF INPUT****

CARTESIAN COORDINATES (ANGSTROEM)
---------------------------------
  C     -3.979000    5.826000    1.248000
  C      1.474000    4.041000    0.057000
  C     -2.802000    4.093000    0.049000
  C     -3.239000    4.692000   -1.143000
  C     -4.022000    5.828000   -1.101000
  C     -5.191000    7.617000    0.092000
  C      0.132000    4.307000    0.061000
  C     -0.569000    3.056000    0.047000
  C      1.649000    2.618000    0.023000
  C     -3.190000    4.692000    1.258000
  N     -4.384000    6.377000    0.082000
  N      0.388000    2.067000    0.025000
  N     -2.010000    0.395000   -0.075000
  N     -0.388000   -2.074000   -0.027000
  N      2.010000   -0.401000    0.065000
  C     -1.960000    2.861000    0.024000
  C     -2.623000    1.615000   -0.018000
  C     -5.573000   -4.329000    1.066000
  C     -4.073000    1.471000    0.056000
  C     -4.106000   -2.756000   -0.026000
  C     -4.995000   -2.757000   -1.111000
  C     -6.132000   -3.542000   -1.076000
  C     -7.651000   -5.113000    0.040000
  C     -4.324000    0.141000    0.037000
  C     -3.025000   -0.520000   -0.048000
  C     -4.422000   -3.566000    1.075000
  N     -6.407000   -4.313000    0.001000
  C     -2.867000   -1.922000   -0.040000
  C     -1.650000   -2.624000   -0.027000
  C      3.568000   -6.142000   -1.040000
  C     -1.476000   -4.049000   -0.034000
  C      2.803000   -4.099000   -0.008000
  C      3.657000   -4.384000    1.069000
  C      4.427000   -5.530000    1.059000
  C      5.245000   -7.588000    0.014000
  C     -0.134000   -4.315000   -0.022000
  C      0.568000   -3.064000   -0.027000
  C      2.775000   -5.012000   -1.074000
  N      4.376000   -6.391000    0.017000
  C      1.959000   -2.869000   -0.009000
  C      2.621000   -1.622000    0.009000
  C      5.543000    4.339000   -1.130000
  C      4.070000   -1.479000   -0.094000
  C      4.104000    2.751000   -0.021000
  C      5.027000    2.729000    1.036000
  C      6.166000    3.509000    0.978000
  C      7.619000    5.153000   -0.115000
  C      4.321000   -0.148000   -0.092000
  C      3.025000    0.514000    0.015000
  C      4.387000    3.582000   -1.115000
  C      2.866000    1.916000    0.013000
  N      6.413000    4.296000   -0.095000
  H     -4.311000    6.313000    2.156000
  H      2.274000    4.766000    0.081000
  H     -2.965000    4.282000   -2.107000
  H     -4.375000    6.330000   -1.992000
  H     -4.523000    8.478000    0.016000
  H     -5.875000    7.597000   -0.756000
  H     -5.754000    7.661000    1.024000
  H     -0.332000    5.282000    0.069000
  H     -2.896000    4.269000    2.212000
  H      0.182000    1.072000    0.005000
  H     -0.183000   -1.080000   -0.021000
  H     -5.864000   -4.962000    1.895000
  H     -4.794000    2.272000    0.139000
  H     -4.800000   -2.160000   -1.994000
  H     -6.841000   -3.582000   -1.893000
  H     -8.428000   -4.536000    0.546000
  H     -7.956000   -5.337000   -0.981000
  H     -7.456000   -6.037000    0.584000
  H     -5.287000   -0.344000    0.100000
  H     -3.780000   -3.601000    1.947000
  H      3.587000   -6.868000   -1.843000
  H     -2.276000   -4.774000   -0.050000
  H      3.714000   -3.724000    1.926000
  H      5.092000   -5.795000    1.871000
  H      6.205000   -7.329000   -0.439000
  H      5.393000   -7.917000    1.042000
  H      4.759000   -8.373000   -0.564000
  H      0.329000   -5.290000   -0.008000
  H      2.146000   -4.842000   -1.940000
  H      5.808000    4.986000   -1.956000
  H      4.788000   -2.281000   -0.185000
  H      4.860000    2.114000    1.912000
  H      6.901000    3.531000    1.772000
  H      7.383000    6.109000    0.356000
  H      8.414000    4.652000    0.435000
  H      7.921000    5.310000   -1.150000
  H      5.283000    0.336000   -0.179000
  H      3.720000    3.632000   -1.967000

 Total Charge           Charge          ....    0
 Multiplicity           Mult            ....    1
 Number of Electrons    NEL             ....  358
 Basis Dimension        Dim             ....  918

ORBITAL ENERGIES
----------------

  NO   OCC          E(Eh)            E(eV)
   0   2.0000     -15.719727      -427.7555
   1   2.0000     -15.628342      -425.2688
   2   2.0000     -15.618645      -425.0049
   3   2.0000     -15.576567      -423.8599
   4   2.0000     -15.520616      -422.3374
   5   2.0000     -15.504114      -421.8884
   6   2.0000     -15.451277      -420.4506
   7   2.0000     -15.426761      -419.7835
   8   2.0000     -11.357011      -309.0400
   9   2.0000     -11.356503      -309.0262
  10   2.0000     -11.350043      -308.8504
  11   2.0000     -11.313566      -307.8578
  12   2.0000     -11.296294      -307.3878
  13   2.0000     -11.290550      -307.2315
  14   2.0000     -11.289646      -307.2069
  15   2.0000     -11.286446      -307.1198
  16   2.0000     -11.286302      -307.1159
  17   2.0000     -11.281518      -306.9857
  18   2.0000     -11.280289      -306.9523
  19   2.0000     -11.271342      -306.7088
  20   2.0000     -11.263164      -306.4863
  21   2.0000     -11.243117      -305.9408
  22   2.0000     -11.239408      -305.8398
  23   2.0000     -11.232102      -305.6410
  24   2.0000     -11.226671      -305.4933
  25   2.0000     -11.225783      -305.4691
  26   2.0000     -11.222936      -305.3916
  27   2.0000     -11.218956      -305.2833
  28   2.0000     -11.218654      -305.2751
  29   2.0000     -11.211176      -305.0716
  30   2.0000     -11.209369      -305.0224
  31   2.0000     -11.195347      -304.6409
  32   2.0000     -11.194218      -304.6102
  33   2.0000     -11.193041      -304.5781
  34   2.0000     -11.188227      -304.4471
  35   2.0000     -11.187470      -304.4265
  36   2.0000     -11.183147      -304.3089
  37   2.0000     -11.179840      -304.2189
  38   2.0000     -11.179748      -304.2164
  39   2.0000     -11.177835      -304.1644
  40   2.0000     -11.170105      -303.9540
  41   2.0000     -11.165237      -303.8215
  42   2.0000     -11.164601      -303.8042
  43   2.0000     -11.161735      -303.7263
  44   2.0000     -11.160550      -303.6940
  45   2.0000     -11.144511      -303.2576
  46   2.0000     -11.143872      -303.2402
  47   2.0000     -11.140674      -303.1531
  48   2.0000     -11.137316      -303.0618
  49   2.0000     -11.130836      -302.8854
  50   2.0000     -11.116546      -302.4966
  51   2.0000     -11.110869      -302.3421
  52   2.0000      -1.391626       -37.8681
  53   2.0000      -1.316606       -35.8267
  54   2.0000      -1.307634       -35.5825
  55   2.0000      -1.271847       -34.6087
  56   2.0000      -1.224404       -33.3177
  57   2.0000      -1.200177       -32.6585
  58   2.0000      -1.178135       -32.0587
  59   2.0000      -1.164871       -31.6978
  60   2.0000      -1.136777       -30.9333
  61   2.0000      -1.109339       -30.1866
  62   2.0000      -1.105934       -30.0940
  63   2.0000      -1.097363       -29.8608
  64   2.0000      -1.066035       -29.0083
  65   2.0000      -1.057395       -28.7732
  66   2.0000      -1.041071       -28.3290
  67   2.0000      -1.032567       -28.0976
  68   2.0000      -1.015160       -27.6239
  69   2.0000      -1.003916       -27.3179
  70   2.0000      -0.999065       -27.1860
  71   2.0000      -0.994987       -27.0750
  72   2.0000      -0.985497       -26.8167
  73   2.0000      -0.976074       -26.5603
  74   2.0000      -0.964288       -26.2396
  75   2.0000      -0.961370       -26.1602
  76   2.0000      -0.950745       -25.8711
  77   2.0000      -0.940441       -25.5907
  78   2.0000      -0.935176       -25.4474
  79   2.0000      -0.919664       -25.0253
  80   2.0000      -0.912212       -24.8226
  81   2.0000      -0.891137       -24.2491
  82   2.0000      -0.886642       -24.1268
  83   2.0000      -0.868187       -23.6246
  84   2.0000      -0.860071       -23.4037
  85   2.0000      -0.846342       -23.0301
  86   2.0000      -0.829017       -22.5587
  87   2.0000      -0.826483       -22.4897
  88   2.0000      -0.820174       -22.3181
  89   2.0000      -0.794270       -21.6132
  90   2.0000      -0.785785       -21.3823
  91   2.0000      -0.772215       -21.0130
  92   2.0000      -0.740139       -20.1402
  93   2.0000      -0.733506       -19.9597
  94   2.0000      -0.728816       -19.8321
  95   2.0000      -0.723989       -19.7007
  96   2.0000      -0.716068       -19.4852
  97   2.0000      -0.710553       -19.3351
  98   2.0000      -0.706069       -19.2131
  99   2.0000      -0.705403       -19.1950
 100   2.0000      -0.695781       -18.9332
 101   2.0000      -0.688036       -18.7224
 102   2.0000      -0.684040       -18.6137
 103   2.0000      -0.675511       -18.3816
 104   2.0000      -0.672327       -18.2950
 105   2.0000      -0.671171       -18.2635
 106   2.0000      -0.666845       -18.1458
 107   2.0000      -0.661727       -18.0065
 108   2.0000      -0.651997       -17.7417
 109   2.0000      -0.648961       -17.6591
 110   2.0000      -0.648373       -17.6431
 111   2.0000      -0.642056       -17.4712
 112   2.0000      -0.640445       -17.4274
 113   2.0000      -0.634487       -17.2653
 114   2.0000      -0.633882       -17.2488
 115   2.0000      -0.629238       -17.1224
 116   2.0000      -0.627052       -17.0630
 117   2.0000      -0.614850       -16.7309
 118   2.0000      -0.610802       -16.6208
 119   2.0000      -0.608923       -16.5696
 120   2.0000      -0.608282       -16.5522
 121   2.0000      -0.600734       -16.3468
 122   2.0000      -0.592563       -16.1245
 123   2.0000      -0.589225       -16.0336
 124   2.0000      -0.584193       -15.8967
 125   2.0000      -0.578107       -15.7311
 126   2.0000      -0.574723       -15.6390
 127   2.0000      -0.570942       -15.5361
 128   2.0000      -0.570542       -15.5252
 129   2.0000      -0.569815       -15.5054
 130   2.0000      -0.556275       -15.1370
 131   2.0000      -0.543026       -14.7765
 132   2.0000      -0.541959       -14.7475
 133   2.0000      -0.538354       -14.6494
 134   2.0000      -0.533467       -14.5164
 135   2.0000      -0.529257       -14.4018
 136   2.0000      -0.519418       -14.1341
 137   2.0000      -0.515637       -14.0312
 138   2.0000      -0.513587       -13.9754
 139   2.0000      -0.512062       -13.9339
 140   2.0000      -0.509655       -13.8684
 141   2.0000      -0.503233       -13.6937
 142   2.0000      -0.501194       -13.6382
 143   2.0000      -0.497556       -13.5392
 144   2.0000      -0.495254       -13.4766
 145   2.0000      -0.492743       -13.4082
 146   2.0000      -0.488422       -13.2906
 147   2.0000      -0.473237       -12.8774
 148   2.0000      -0.470141       -12.7932
 149   2.0000      -0.465776       -12.6744
 150   2.0000      -0.462735       -12.5917
 151   2.0000      -0.460073       -12.5192
 152   2.0000      -0.451838       -12.2951
 153   2.0000      -0.440771       -11.9940
 154   2.0000      -0.432735       -11.7753
 155   2.0000      -0.431000       -11.7281
 156   2.0000      -0.418300       -11.3825
 157   2.0000      -0.416605       -11.3364
 158   2.0000      -0.411141       -11.1877
 159   2.0000      -0.409836       -11.1522
 160   2.0000      -0.381451       -10.3798
 161   2.0000      -0.369376       -10.0512
 162   2.0000      -0.353227        -9.6118
 163   2.0000      -0.351690        -9.5700
 164   2.0000      -0.345649        -9.4056
 165   2.0000      -0.341574        -9.2947
 166   2.0000      -0.337950        -9.1961
 167   2.0000      -0.316957        -8.6248
 168   2.0000      -0.311842        -8.4856
 169   2.0000      -0.304910        -8.2970
 170   2.0000      -0.298040        -8.1101
 171   2.0000      -0.282440        -7.6856
 172   2.0000      -0.275438        -7.4951
 173   2.0000      -0.266460        -7.2508
 174   2.0000      -0.228877        -6.2281
 175   2.0000      -0.182949        -4.9783
 176   2.0000      -0.173133        -4.7112
 177   2.0000      -0.062610        -1.7037
 178   2.0000      -0.050777        -1.3817
 179   0.0000       0.036164         0.9841
 180   0.0000       0.054393         1.4801
 181   0.0000       0.073678         2.0049
 182   0.0000       0.098630         2.6839
 183   0.0000       0.102324         2.7844

MULLIKEN ATOMIC CHARGES
-----------------------
   0 C :    0.237539
   1 N :   -0.409856
   2 C :   -0.066465
   3 N :   -0.344394
   4 C :   -0.067705
   5 N :   -0.566171
   6 C :   -0.026918
   7 N :   -0.336814
   8 C :    0.236509
   9 N :   -0.566409
  10 C :    0.102710
  11 N :   -0.440211
  12 C :   -0.057923
  13 N :   -0.451935
  14 C :    0.218727
  15 N :   -0.441795
  16 C :    0.258157
  17 C :   -0.029879
  18 C :   -0.173718
  19 C :    0.229379
  20 C :    0.185805
  21 C :   -0.066774
  22 C :   -0.092291
  23 C :   -0.069260
  24 C :    0.217642
  25 C :    0.115196
  26 C :   -0.064988
  27 C :    0.249974
  28 C :   -0.038770
  29 C :   -0.197858
  30 C :    0.219521
  31 C :    0.186040
  32 C :   -0.064271
  33 C :   -0.104302
  34 C :   -0.050446
  35 C :    0.176218
  36 C :    0.121617
  37 C :   -0.070939
  38 C :    0.245209
  39 C :   -0.065767
  40 C :   -0.205676
  41 C :    0.215749
  42 C :    0.212741
  43 C :   -0.077787
  44 C :   -0.092794
  45 C :   -0.037016
  46 C :    0.182088
  47 C :    0.116909
  48 C :   -0.082802
  49 C :    0.205945
  50 C :   -0.068942
  51 C :   -0.188553
  52 H :    0.084170
  53 H :   -0.006176
  54 H :    0.068228
  55 H :    0.082308
  56 H :    0.087221
  57 H :    0.077641
  58 H :    0.076328
  59 H :   -0.030401
  60 H :    0.069676
  61 H :    0.177572
  62 H :    0.167299
  63 H :    0.051801
  64 H :   -0.035650
  65 H :    0.039479
  66 H :    0.054037
  67 H :    0.057269
  68 H :    0.055396
  69 H :    0.058598
  70 H :   -0.012146
  71 H :    0.045994
  72 H :    0.035730
  73 H :   -0.019544
  74 H :    0.027793
  75 H :    0.034363
  76 H :    0.044757
  77 H :    0.044965
  78 H :    0.044210
  79 H :   -0.011511
  80 H :    0.027504
  81 H :    0.049842
  82 H :   -0.023068
  83 H :    0.042480
  84 H :    0.048713
  85 H :    0.053616
  86 H :    0.056272
  87 H :    0.054120
  88 H :   -0.031303
  89 H :    0.038174
Sum of atomic charges:    0.0000000

LOEWDIN ATOMIC CHARGES
----------------------
   0 C :    0.041238
   1 N :    0.198082
   2 C :   -0.098080
   3 N :    0.170343
   4 C :    0.125844
   5 N :   -0.148838
   6 C :   -0.010375
   7 N :    0.177420
   8 C :    0.041282
   9 N :   -0.138392
  10 C :    0.041104
  11 N :    0.138010
  12 C :   -0.096009
  13 N :    0.110983
  14 C :   -0.062834
  15 N :    0.134021
  16 C :   -0.014395
  17 C :   -0.010731
  18 C :   -0.122225
  19 C :   -0.089420
  20 C :   -0.020890
  21 C :   -0.098573
  22 C :    0.030708
  23 C :   -0.035573
  24 C :    0.007355
  25 C :    0.028966
  26 C :   -0.090810
  27 C :   -0.050885
  28 C :   -0.014590
  29 C :   -0.118899
  30 C :   -0.066843
  31 C :   -0.028873
  32 C :   -0.100607
  33 C :   -0.010331
  34 C :   -0.027398
  35 C :   -0.037670
  36 C :    0.022523
  37 C :   -0.110948
  38 C :   -0.027869
  39 C :   -0.035378
  40 C :   -0.113884
  41 C :   -0.093798
  42 C :    0.001037
  43 C :   -0.115237
  44 C :    0.025897
  45 C :   -0.013587
  46 C :   -0.025632
  47 C :    0.028020
  48 C :   -0.115868
  49 C :   -0.120193
  50 C :   -0.034743
  51 C :   -0.108059
  52 H :    0.043025
  53 H :    0.008119
  54 H :    0.056297
  55 H :    0.042661
  56 H :    0.041247
  57 H :    0.040432
  58 H :    0.040487
  59 H :   -0.001077
  60 H :    0.056891
  61 H :    0.062830
  62 H :    0.057436
  63 H :    0.028193
  64 H :   -0.005643
  65 H :    0.041059
  66 H :    0.029562
  67 H :    0.025882
  68 H :    0.030742
  69 H :    0.031064
  70 H :    0.003778
  71 H :    0.045213
  72 H :    0.021250
  73 H :    0.001643
  74 H :    0.037080
  75 H :    0.020226
  76 H :    0.019278
  77 H :    0.025397
  78 H :    0.025090
  79 H :    0.005685
  80 H :    0.036119
  81 H :    0.027783
  82 H :   -0.001351
  83 H :    0.044099
  84 H :    0.026428
  85 H :    0.023968
  86 H :    0.030286
  87 H :    0.029922
  88 H :   -0.005650
  89 H :    0.040152

  Mayer bond orders larger than 0.100000
B(  0-C ,  1-N ) :   1.2127 B(  0-C , 17-C ) :   1.5072 B(  0-C , 52-H ) :   0.9665
B(  1-N ,  8-C ) :   1.2094 B(  1-N , 10-C ) :   0.9237 B(  2-C , 12-C ) :   1.5831
B(  2-C , 16-C ) :   1.2697 B(  2-C , 53-H ) :   0.9793 B(  3-N , 14-C ) :   1.1740
B(  3-N , 16-C ) :   1.2019 B(  3-N , 61-H ) :   0.8951 B(  4-C ,  6-C ) :   1.3612
B(  4-C , 17-C ) :   1.3668 B(  4-C , 18-C ) :   1.0452 B(  5-N , 19-C ) :   1.3628
B(  5-N , 27-C ) :   1.4496 B(  6-C ,  8-C ) :   1.5106 B(  6-C , 54-H ) :   0.9707
B(  7-N , 30-C ) :   1.1834 B(  7-N , 38-C ) :   1.2162 B(  7-N , 62-H ) :   0.9016
B(  8-C , 55-H ) :   0.9675 B(  9-N , 41-C ) :   1.4358 B(  9-N , 49-C ) :   1.3921
B( 10-C , 56-H ) :   0.9767 B( 10-C , 57-H ) :   0.9807 B( 10-C , 58-H ) :   0.9814
B( 11-N , 20-C ) :   1.0950 B( 11-N , 24-C ) :   1.1343 B( 11-N , 25-C ) :   0.9628
B( 12-C , 14-C ) :   1.2703 B( 12-C , 59-H ) :   0.9767 B( 13-N , 31-C ) :   1.0807
B( 13-N , 35-C ) :   1.0701 B( 13-N , 36-C ) :   0.9833 B( 14-C , 18-C ) :   1.2660
B( 15-N , 42-C ) :   1.1266 B( 15-N , 46-C ) :   1.0880 B( 15-N , 47-C ) :   0.9666
B( 16-C , 51-C ) :   1.2512 B( 17-C , 60-H ) :   0.9707 B( 18-C , 19-C ) :   1.3148
B( 19-C , 21-C ) :   1.1602 B( 20-C , 28-C ) :   1.6300 B( 20-C , 63-H ) :   0.9710
B( 21-C , 26-C ) :   1.6846 B( 21-C , 64-H ) :   0.9716 B( 22-C , 23-C ) :   1.2538
B( 22-C , 28-C ) :   1.2796 B( 22-C , 29-C ) :   1.2581 B( 23-C , 24-C ) :   1.6362
B( 23-C , 65-H ) :   0.9723 B( 24-C , 66-H ) :   0.9691 B( 25-C , 67-H ) :   0.9762
B( 25-C , 68-H ) :   0.9834 B( 25-C , 69-H ) :   0.9819 B( 26-C , 27-C ) :   1.1700
B( 26-C , 70-H ) :   0.9758 B( 27-C , 29-C ) :   1.2436 B( 28-C , 71-H ) :   0.9709
B( 29-C , 30-C ) :   1.1736 B( 30-C , 32-C ) :   1.3525 B( 31-C , 39-C ) :   1.6870
B( 31-C , 72-H ) :   0.9709 B( 32-C , 37-C ) :   1.5077 B( 32-C , 73-H ) :   0.9771
B( 33-C , 34-C ) :   1.2308 B( 33-C , 39-C ) :   1.2231 B( 33-C , 40-C ) :   1.3627
B( 34-C , 35-C ) :   1.6857 B( 34-C , 74-H ) :   0.9709 B( 35-C , 75-H ) :   0.9709
B( 36-C , 76-H ) :   0.9755 B( 36-C , 77-H ) :   0.9826 B( 36-C , 78-H ) :   0.9838
B( 37-C , 38-C ) :   1.3457 B( 37-C , 79-H ) :   0.9793 B( 38-C , 40-C ) :   1.1773
B( 39-C , 80-H ) :   0.9721 B( 40-C , 41-C ) :   1.1661 B( 41-C , 43-C ) :   1.2585
B( 42-C , 50-C ) :   1.6426 B( 42-C , 81-H ) :   0.9696 B( 43-C , 48-C ) :   1.5926
B( 43-C , 82-H ) :   0.9757 B( 44-C , 45-C ) :   1.2813 B( 44-C , 50-C ) :   1.2481
B( 44-C , 51-C ) :   1.2465 B( 45-C , 46-C ) :   1.6331 B( 45-C , 83-H ) :   0.9702
B( 46-C , 84-H ) :   0.9709 B( 47-C , 85-H ) :   0.9759 B( 47-C , 86-H ) :   0.9825
B( 47-C , 87-H ) :   0.9830 B( 48-C , 49-C ) :   1.2526 B( 48-C , 88-H ) :   0.9725
B( 49-C , 51-C ) :   1.1876 B( 50-C , 89-H ) :   0.9723

MP2 TOTAL ENERGY:    -2130.869809269 Eh
FINAL SINGLE POINT ENERGY     -2130.869809269412

DIPOLE MOMENT
-------------
                                X             Y             Z
Electronic contribution:     -4.75214       5.48718      -0.06278
Nuclear contribution   :      0.05533       0.22369       0.08930
                        -----------------------------------------
Total Dipole Moment    :     -4.69681       5.71086       0.02652
                        -----------------------------------------
Magnitude (a.u.)       :      7.39423
Magnitude (Debye)      :     18.79464

Rotational constants in cm-1:     0.001498     0.001472     0.000763
Rotational constants in MHz :    44.914780    44.124770    22.868417

                             ****ORCA TERMINATED NORMALLY****
TOTAL RUN TIME: 0 days 1 hours 24 minutes 55 seconds 290 msec
