                         Program Version 5.0.4 -  RELEASE  -
|  1> ! PAL2
|  2> ! mp2 cc-pvdz TightSCF  NoKeepInts
|  3>
|  4> %scf
|  5>   MaxCore 2000
|  6> end
|  7> %mp2
|  8>   MaxCore 2000
|  9> end
| 10> * xyz 0 1
| 11>    C       -4.79300         5.30600        -0.57500
| 12>    C        1.47400         4.04100         0.05700
| 13>    C       -2.80200         4.09300         0.04900
| 14>    C       -2.37600         5.24400         0.73000
| 15>    C       -3.16500         6.37700         0.73800
| 16>    C       -5.19200         7.61500         0.15000
| 17>    C        0.13200         4.30700         0.06100
| 18>    C       -0.56900         3.05600         0.04700
| 19>    C        1.64900         2.61800         0.02300
| 20>    C       -4.04100         4.14800        -0.60800
| 21>    N       -4.35300         6.39900         0.08900
| 22>    N        0.38800         2.06700         0.02500
| 23>    N       -2.01000         0.39500        -0.07500
| 24>    N       -0.38800        -2.07400        -0.02700
| 25>    N        2.01000        -0.40100         0.06500
| 26>    C       -1.96000         2.86100         0.02400
| 27>    C       -2.62300         1.61500        -0.01800
| 28>    C       -5.57300        -4.32900         1.06600
| 29>    C       -4.07300         1.47100         0.05600
| 30>    C       -4.10600        -2.75600        -0.02600
| 31>    C       -4.99500        -2.75700        -1.11100
| 32>    C       -6.13200        -3.54200        -1.07600
| 33>    C       -7.65100        -5.11300         0.04000
| 34>    C       -4.32400         0.14100         0.03700
| 35>    C       -3.02500        -0.52000        -0.04800
| 36>    C       -4.42200        -3.56600         1.07500
| 37>    N       -6.40700        -4.31300         0.00100
| 38>    C       -2.86700        -1.92200        -0.04000
| 39>    C       -1.65000        -2.62400        -0.02700
| 40>    C        3.56800        -6.14200        -1.04000
| 41>    C       -1.47600        -4.04900        -0.03400
| 42>    C        2.80300        -4.09900        -0.00800
| 43>    C        3.65700        -4.38400         1.06900
| 44>    C        4.42700        -5.53000         1.05900
| 45>    C        5.24500        -7.58800         0.01400
| 46>    C       -0.13400        -4.31500        -0.02200
| 47>    C        0.56800        -3.06400        -0.02700
| 48>    C        2.77500        -5.01200        -1.07400
| 49>    N        4.37600        -6.39100         0.01700
| 50>    C        1.95900        -2.86900        -0.00900
| 51>    C        2.62100        -1.62200         0.00900
| 52>    C        5.54300         4.33900        -1.13000
| 53>    C        4.07000        -1.47900        -0.09400
| 54>    C        4.10400         2.75100        -0.02100
| 55>    C        5.02700         2.72900         1.03600
| 56>    C        6.16600         3.50900         0.97800
| 57>    C        7.61900         5.15300        -0.11500
| 58>    C        4.32100        -0.14800        -0.09200
| 59>    C        3.02500         0.51400         0.01500
| 60>    C        4.38700         3.58200        -1.11500
| 61>    C        2.86600         1.91600         0.01300
| 62>    N        6.41300         4.29600        -0.09500
| 63>    H       -5.74800         5.39700        -1.07800
| 64>    H        2.27400         4.76600         0.08100
| 65>    H       -1.43300         5.26100         1.26300
| 66>    H       -2.88300         7.28400         1.25600
| 67>    H       -5.80500         7.58000         1.05300
| 68>    H       -4.54200         8.49000         0.17100
| 69>    H       -5.83000         7.64500        -0.73400
| 70>    H       -0.33200         5.28200         0.06900
| 71>    H       -4.41900         3.29600        -1.16200
| 72>    H        0.18200         1.07200         0.00500
| 73>    H       -0.18300        -1.08000        -0.02100
| 74>    H       -5.86400        -4.96200         1.89500
| 75>    H       -4.79400         2.27200         0.13900
| 76>    H       -4.80000        -2.16000        -1.99400
| 77>    H       -6.84100        -3.58200        -1.89300
| 78>    H       -8.42800        -4.53600         0.54600
| 79>    H       -7.95600        -5.33700        -0.98100
| 80>    H       -7.45600        -6.03700         0.58400
| 81>    H       -5.28700        -0.34400         0.10000
| 82>    H       -3.78000        -3.60100         1.94700
| 83>    H        3.58700        -6.86800        -1.84300
| 84>    H       -2.27600        -4.77400        -0.05000
| 85>    H        3.71400        -3.72400         1.92600
| 86>    H        5.09200        -5.79500         1.87100
| 87>    H        6.20500        -7.32900        -0.43900
| 88>    H        5.39300        -7.91700         1.04200
| 89>    H        4.75900        -8.37300        -0.56400
| 90>    H        0.32900        -5.29000        -0.00800
| 91>    H        2.14600        -4.84200        -1.94000
| 92>    H        5.80800         4.98600        -1.95600
| 93>    H        4.78800        -2.28100        -0.18500
| 94>    H        4.86000         2.11400         1.91200
| 95>    H        6.90100         3.53100         1.77200
| 96>    H        7.38300         6.10900         0.35600
| 97>    H        8.41400         4.65200         0.43500
| 98>    H        7.92100         5.31000        -1.15000
| 99>    H        5.28300         0.33600        -0.17900
|100>    H        3.72000         3.63200        -1.96700
|101> *
|102>
|103>                          ****END OF INPUT****

CARTESIAN COORDINATES (ANGSTROEM)
---------------------------------
  C     -4.793000    5.306000   -0.575000
  C      1.474000    4.041000    0.057000
  C     -2.802000    4.093000    0.049000
  C     -2.376000    5.244000    0.730000
  C     -3.165000    6.377000    0.738000
  C     -5.192000    7.615000    0.150000
  C      0.132000    4.307000    0.061000
  C     -0.569000    3.056000    0.047000
  C      1.649000    2.618000    0.023000
  C     -4.041000    4.148000   -0.608000
  N     -4.353000    6.399000    0.089000
  N      0.388000    2.067000    0.025000
  N     -2.010000    0.395000   -0.075000
  N     -0.388000   -2.074000   -0.027000
  N      2.010000   -0.401000    0.065000
  C     -1.960000    2.861000    0.024000
  C     -2.623000    1.615000   -0.018000
  C     -5.573000   -4.329000    1.066000
  C     -4.073000    1.471000    0.056000
  C     -4.106000   -2.756000   -0.026000
  C     -4.995000   -2.757000   -1.111000
  C     -6.132000   -3.542000   -1.076000
  C     -7.651000   -5.113000    0.040000
  C     -4.324000    0.141000    0.037000
  C     -3.025000   -0.520000   -0.048000
  C     -4.422000   -3.566000    1.075000
  N     -6.407000   -4.313000    0.001000
  C     -2.867000   -1.922000   -0.040000
  C     -1.650000   -2.624000   -0.027000
  C      3.568000   -6.142000   -1.040000
  C     -1.476000   -4.049000   -0.034000
  C      2.803000   -4.099000   -0.008000
  C      3.657000   -4.384000    1.069000
  C      4.427000   -5.530000    1.059000
  C      5.245000   -7.588000    0.014000
  C     -0.134000   -4.315000   -0.022000
  C      0.568000   -3.064000   -0.027000
  C      2.775000   -5.012000   -1.074000
  N      4.376000   -6.391000    0.017000
  C      1.959000   -2.869000   -0.009000
  C      2.621000   -1.622000    0.009000
  C      5.543000    4.339000   -1.130000
  C      4.070000   -1.479000   -0.094000
  C      4.104000    2.751000   -0.021000
  C      5.027000    2.729000    1.036000
  C      6.166000    3.509000    0.978000
  C      7.619000    5.153000   -0.115000
  C      4.321000   -0.148000   -0.092000
  C      3.025000    0.514000    0.015000
  C      4.387000    3.582000   -1.115000
  C      2.866000    1.916000    0.013000
  N      6.413000    4.296000   -0.095000
  H     -5.748000    5.397000   -1.078000
  H      2.274000    4.766000    0.081000
  H     -1.433000    5.261000    1.263000
  H     -2.883000    7.284000    1.256000
  H     -5.805000    7.580000    1.053000
  H     -4.542000    8.490000    0.171000
  H     -5.830000    7.645000   -0.734000
  H     -0.332000    5.282000    0.069000
  H     -4.419000    3.296000   -1.162000
  H      0.182000    1.072000    0.005000
  H     -0.183000   -1.080000   -0.021000
  H     -5.864000   -4.962000    1.895000
  H     -4.794000    2.272000    0.139000
  H     -4.800000   -2.160000   -1.994000
  H     -6.841000   -3.582000   -1.893000
  H     -8.428000   -4.536000    0.546000
  H     -7.956000   -5.337000   -0.981000
  H     -7.456000   -6.037000    0.584000
  H     -5.287000   -0.344000    0.100000
  H     -3.780000   -3.601000    1.947000
  H      3.587000   -6.868000   -1.843000
  H     -2.276000   -4.774000   -0.050000
  H      3.714000   -3.724000    1.926000
  H      5.092000   -5.795000    1.871000
  H      6.205000   -7.329000   -0.439000
  H      5.393000   -7.917000    1.042000
  H      4.759000   -8.373000   -0.564000
  H      0.329000   -5.290000   -0.008000
  H      2.146000   -4.842000   -1.940000
  H      5.808000    4.986000   -1.956000
  H      4.788000   -2.281000   -0.185000
  H      4.860000    2.114000    1.912000
  H      6.901000    3.531000    1.772000
  H      7.383000    6.109000    0.356000
  H      8.414000    4.652000    0.435000
  H      7.921000    5.310000   -1.150000
  H      5.283000    0.336000   -0.179000
  H      3.720000    3.632000   -1.967000

 Total Charge           Charge          ....    0
 Multiplicity           Mult            ....    1
 Number of Electrons    NEL             ....  358
 Basis Dimension        Dim             ....  918

ORBITAL ENERGIES
----------------

  NO   OCC          E(Eh)            E(eV)
   0   2.0000     -15.671558      -426.4448
   1   2.0000     -15.637584      -425.5203
   2   2.0000     -15.628719      -425.2791
   3   2.0000     -15.591054      -424.2542
   4   2.0000     -15.525037      -422.4577
   5   2.0000     -15.515917      -422.2096
   6   2.0000     -15.451534      -420.4576
   7   2.0000     -15.442905      -420.2228
   8   2.0000     -11.323050      -308.1159
   9   2.0000     -11.322850      -308.1104
  10   2.0000     -11.320929      -308.0582
  11   2.0000     -11.301571      -307.5314
  12   2.0000     -11.296356      -307.3895
  13   2.0000     -11.295564      -307.3679
  14   2.0000     -11.290290      -307.2244
  15   2.0000     -11.288076      -307.1642
  16   2.0000     -11.284246      -307.0599
  17   2.0000     -11.274342      -306.7904
  18   2.0000     -11.273420      -306.7654
  19   2.0000     -11.257631      -306.3357
  20   2.0000     -11.256691      -306.3101
  21   2.0000     -11.256369      -306.3014
  22   2.0000     -11.255502      -306.2778
  23   2.0000     -11.241228      -305.8894
  24   2.0000     -11.233892      -305.6897
  25   2.0000     -11.233527      -305.6798
  26   2.0000     -11.233312      -305.6740
  27   2.0000     -11.227380      -305.5125
  28   2.0000     -11.227079      -305.5043
  29   2.0000     -11.210378      -305.0499
  30   2.0000     -11.208963      -305.0114
  31   2.0000     -11.201054      -304.7962
  32   2.0000     -11.194723      -304.6239
  33   2.0000     -11.194164      -304.6087
  34   2.0000     -11.189619      -304.4850
  35   2.0000     -11.189053      -304.4696
  36   2.0000     -11.187964      -304.4400
  37   2.0000     -11.184030      -304.3329
  38   2.0000     -11.183040      -304.3060
  39   2.0000     -11.174559      -304.0752
  40   2.0000     -11.172695      -304.0245
  41   2.0000     -11.168528      -303.9111
  42   2.0000     -11.168317      -303.9054
  43   2.0000     -11.162108      -303.7364
  44   2.0000     -11.160739      -303.6991
  45   2.0000     -11.158862      -303.6481
  46   2.0000     -11.157305      -303.6057
  47   2.0000     -11.152407      -303.4724
  48   2.0000     -11.147602      -303.3417
  49   2.0000     -11.140680      -303.1533
  50   2.0000     -11.134202      -302.9770
  51   2.0000     -11.126351      -302.7634
  52   2.0000      -1.353379       -36.8273
  53   2.0000      -1.324349       -36.0374
  54   2.0000      -1.316901       -35.8347
  55   2.0000      -1.285335       -34.9757
  56   2.0000      -1.225663       -33.3520
  57   2.0000      -1.210311       -32.9342
  58   2.0000      -1.170138       -31.8411
  59   2.0000      -1.153412       -31.3859
  60   2.0000      -1.137753       -30.9598
  61   2.0000      -1.112830       -30.2817
  62   2.0000      -1.106672       -30.1141
  63   2.0000      -1.081415       -29.4268
  64   2.0000      -1.075587       -29.2682
  65   2.0000      -1.048409       -28.5287
  66   2.0000      -1.041676       -28.3454
  67   2.0000      -1.037347       -28.2276
  68   2.0000      -1.014990       -27.6193
  69   2.0000      -1.013780       -27.5864
  70   2.0000      -1.009383       -27.4667
  71   2.0000      -0.993114       -27.0240
  72   2.0000      -0.987025       -26.8583
  73   2.0000      -0.979493       -26.6533
  74   2.0000      -0.972078       -26.4516
  75   2.0000      -0.959926       -26.1209
  76   2.0000      -0.952302       -25.9134
  77   2.0000      -0.946568       -25.7574
  78   2.0000      -0.935331       -25.4516
  79   2.0000      -0.919596       -25.0235
  80   2.0000      -0.904830       -24.6217
  81   2.0000      -0.893133       -24.3034
  82   2.0000      -0.875701       -23.8290
  83   2.0000      -0.871884       -23.7252
  84   2.0000      -0.867254       -23.5992
  85   2.0000      -0.855808       -23.2877
  86   2.0000      -0.840064       -22.8593
  87   2.0000      -0.837121       -22.7792
  88   2.0000      -0.823203       -22.4005
  89   2.0000      -0.798206       -21.7203
  90   2.0000      -0.792227       -21.5576
  91   2.0000      -0.749050       -20.3827
  92   2.0000      -0.740018       -20.1369
  93   2.0000      -0.733125       -19.9493
  94   2.0000      -0.724246       -19.7077
  95   2.0000      -0.720610       -19.6088
  96   2.0000      -0.715118       -19.4594
  97   2.0000      -0.709325       -19.3017
  98   2.0000      -0.704764       -19.1776
  99   2.0000      -0.696523       -18.9534
 100   2.0000      -0.695987       -18.9388
 101   2.0000      -0.683331       -18.5944
 102   2.0000      -0.679842       -18.4994
 103   2.0000      -0.678822       -18.4717
 104   2.0000      -0.675547       -18.3826
 105   2.0000      -0.671292       -18.2668
 106   2.0000      -0.667879       -18.1739
 107   2.0000      -0.661948       -18.0125
 108   2.0000      -0.655669       -17.8417
 109   2.0000      -0.653673       -17.7874
 110   2.0000      -0.649070       -17.6621
 111   2.0000      -0.642971       -17.4961
 112   2.0000      -0.641380       -17.4529
 113   2.0000      -0.640099       -17.4180
 114   2.0000      -0.637007       -17.3338
 115   2.0000      -0.625842       -17.0300
 116   2.0000      -0.624772       -17.0009
 117   2.0000      -0.616518       -16.7763
 118   2.0000      -0.615101       -16.7378
 119   2.0000      -0.613082       -16.6828
 120   2.0000      -0.609064       -16.5735
 121   2.0000      -0.606172       -16.4948
 122   2.0000      -0.599610       -16.3162
 123   2.0000      -0.586659       -15.9638
 124   2.0000      -0.583565       -15.8796
 125   2.0000      -0.581213       -15.8156
 126   2.0000      -0.578864       -15.7517
 127   2.0000      -0.577637       -15.7183
 128   2.0000      -0.565972       -15.4009
 129   2.0000      -0.558617       -15.2007
 130   2.0000      -0.551033       -14.9944
 131   2.0000      -0.547890       -14.9088
 132   2.0000      -0.543511       -14.7897
 133   2.0000      -0.539731       -14.6868
 134   2.0000      -0.539552       -14.6820
 135   2.0000      -0.534219       -14.5368
 136   2.0000      -0.526222       -14.3192
 137   2.0000      -0.523197       -14.2369
 138   2.0000      -0.518275       -14.1030
 139   2.0000      -0.512842       -13.9551
 140   2.0000      -0.512739       -13.9523
 141   2.0000      -0.510307       -13.8862
 142   2.0000      -0.510160       -13.8822
 143   2.0000      -0.503490       -13.7007
 144   2.0000      -0.500354       -13.6153
 145   2.0000      -0.496577       -13.5125
 146   2.0000      -0.494253       -13.4493
 147   2.0000      -0.484215       -13.1762
 148   2.0000      -0.479758       -13.0549
 149   2.0000      -0.467278       -12.7153
 150   2.0000      -0.465581       -12.6691
 151   2.0000      -0.457220       -12.4416
 152   2.0000      -0.449624       -12.2349
 153   2.0000      -0.446268       -12.1436
 154   2.0000      -0.442734       -12.0474
 155   2.0000      -0.436891       -11.8884
 156   2.0000      -0.429690       -11.6925
 157   2.0000      -0.423897       -11.5348
 158   2.0000      -0.404470       -11.0062
 159   2.0000      -0.386642       -10.5211
 160   2.0000      -0.382248       -10.4015
 161   2.0000      -0.378494       -10.2993
 162   2.0000      -0.370988       -10.0951
 163   2.0000      -0.359146        -9.7729
 164   2.0000      -0.353632        -9.6228
 165   2.0000      -0.339340        -9.2339
 166   2.0000      -0.337682        -9.1888
 167   2.0000      -0.327460        -8.9106
 168   2.0000      -0.325817        -8.8659
 169   2.0000      -0.304552        -8.2873
 170   2.0000      -0.299593        -8.1523
 171   2.0000      -0.285996        -7.7824
 172   2.0000      -0.282473        -7.6865
 173   2.0000      -0.261482        -7.1153
 174   2.0000      -0.243975        -6.6389
 175   2.0000      -0.189909        -5.1677
 176   2.0000      -0.180242        -4.9046
 177   2.0000      -0.075134        -2.0445
 178   2.0000      -0.058205        -1.5838
 179   0.0000       0.028488         0.7752
 180   0.0000       0.066485         1.8091
 181   0.0000       0.091576         2.4919
 182   0.0000       0.108807         2.9608
 183   0.0000       0.111659         3.0384

MULLIKEN ATOMIC CHARGES
-----------------------
   0 C :    0.207165
   1 N :   -0.455053
   2 C :   -0.066241
   3 N :   -0.336660
   4 C :   -0.054630
   5 N :   -0.561554
   6 C :   -0.118084
   7 N :   -0.340226
   8 C :    0.208092
   9 N :   -0.562679
  10 C :    0.118597
  11 N :   -0.437749
  12 C :   -0.080849
  13 N :   -0.431342
  14 C :    0.222751
  15 N :   -0.441506
  16 C :    0.230009
  17 C :   -0.115343
  18 C :   -0.165586
  19 C :    0.209486
  20 C :    0.213956
  21 C :   -0.092276
  22 C :   -0.088756
  23 C :   -0.041259
  24 C :    0.196865
  25 C :    0.114119
  26 C :   -0.076582
  27 C :    0.212491
  28 C :   -0.059803
  29 C :   -0.180904
  30 C :    0.244069
  31 C :    0.227823
  32 C :   -0.061680
  33 C :   -0.064401
  34 C :   -0.049710
  35 C :    0.222739
  36 C :    0.109322
  37 C :   -0.064682
  38 C :    0.233328
  39 C :   -0.059366
  40 C :   -0.181847
  41 C :    0.223648
  42 C :    0.197479
  43 C :   -0.072864
  44 C :   -0.091154
  45 C :   -0.060243
  46 C :    0.208883
  47 C :    0.115719
  48 C :   -0.068672
  49 C :    0.236301
  50 C :   -0.047492
  51 C :   -0.193501
  52 H :    0.040352
  53 H :   -0.016520
  54 H :    0.051223
  55 H :    0.038931
  56 H :    0.049422
  57 H :    0.048411
  58 H :    0.047436
  59 H :    0.001608
  60 H :    0.051652
  61 H :    0.171090
  62 H :    0.175316
  63 H :    0.056572
  64 H :   -0.004650
  65 H :    0.047067
  66 H :    0.056722
  67 H :    0.063415
  68 H :    0.057848
  69 H :    0.057403
  70 H :   -0.028131
  71 H :    0.046356
  72 H :    0.068755
  73 H :   -0.008818
  74 H :    0.058065
  75 H :    0.067986
  76 H :    0.072703
  77 H :    0.066256
  78 H :    0.065414
  79 H :   -0.015542
  80 H :    0.058645
  81 H :    0.053620
  82 H :   -0.025110
  83 H :    0.041076
  84 H :    0.053074
  85 H :    0.059810
  86 H :    0.055091
  87 H :    0.056684
  88 H :   -0.015654
  89 H :    0.046275
Sum of atomic charges:   -0.0000000

LOEWDIN ATOMIC CHARGES
----------------------
   0 C :   -0.023130
   1 N :    0.116006
   2 C :   -0.102037
   3 N :    0.183307
   4 C :   -0.007084
   5 N :   -0.130782
   6 C :   -0.041382
   7 N :    0.175756
   8 C :   -0.020640
   9 N :   -0.140305
  10 C :    0.023427
  11 N :    0.143764
  12 C :   -0.111568
  13 N :    0.161805
  14 C :   -0.032315
  15 N :    0.137394
  16 C :   -0.057179
  17 C :   -0.040005
  18 C :   -0.100989
  19 C :   -0.084249
  20 C :    0.005513
  21 C :   -0.116208
  22 C :    0.039672
  23 C :   -0.015386
  24 C :   -0.009376
  25 C :    0.030254
  26 C :   -0.107868
  27 C :   -0.114338
  28 C :   -0.025793
  29 C :   -0.099349
  30 C :   -0.033612
  31 C :    0.021197
  32 C :   -0.093965
  33 C :    0.074320
  34 C :   -0.015150
  35 C :    0.016997
  36 C :    0.034240
  37 C :   -0.095276
  38 C :   -0.048369
  39 C :   -0.019557
  40 C :   -0.108049
  41 C :   -0.093906
  42 C :   -0.010611
  43 C :   -0.100656
  44 C :    0.031045
  45 C :   -0.027787
  46 C :   -0.000822
  47 C :    0.029165
  48 C :   -0.097363
  49 C :   -0.072514
  50 C :   -0.019790
  51 C :   -0.109943
  52 H :    0.023744
  53 H :    0.003118
  54 H :    0.040668
  55 H :    0.023685
  56 H :    0.021609
  57 H :    0.026633
  58 H :    0.027261
  59 H :    0.010583
  60 H :    0.041651
  61 H :    0.060006
  62 H :    0.061759
  63 H :    0.031288
  64 H :    0.006145
  65 H :    0.045809
  66 H :    0.029812
  67 H :    0.028725
  68 H :    0.031911
  69 H :    0.030774
  70 H :   -0.003900
  71 H :    0.044228
  72 H :    0.036551
  73 H :    0.006724
  74 H :    0.049768
  75 H :    0.036000
  76 H :    0.033639
  77 H :    0.035364
  78 H :    0.034995
  79 H :    0.003466
  80 H :    0.049520
  81 H :    0.028773
  82 H :   -0.002826
  83 H :    0.042213
  84 H :    0.029317
  85 H :    0.026861
  86 H :    0.029952
  87 H :    0.031157
  88 H :    0.001830
  89 H :    0.044678

  Mayer bond orders larger than 0.100000
B(  0-C ,  1-N ) :   1.0883 B(  0-C , 17-C ) :   1.7053 B(  0-C , 52-H ) :   0.9670
B(  1-N ,  8-C ) :   1.0898 B(  1-N , 10-C ) :   0.9779 B(  2-C , 12-C ) :   1.5097
B(  2-C , 16-C ) :   1.3531 B(  2-C , 53-H ) :   0.9760 B(  3-N , 14-C ) :   1.2176
B(  3-N , 16-C ) :   1.1918 B(  3-N , 61-H ) :   0.8994 B(  4-C ,  6-C ) :   1.2129
B(  4-C , 17-C ) :   1.2128 B(  4-C , 18-C ) :   1.4247 B(  5-N , 19-C ) :   1.4507
B(  5-N , 27-C ) :   1.3813 B(  6-C ,  8-C ) :   1.7041 B(  6-C , 54-H ) :   0.9595
B(  7-N , 30-C ) :   1.1939 B(  7-N , 38-C ) :   1.1931 B(  7-N , 62-H ) :   0.8969
B(  8-C , 55-H ) :   0.9680 B(  9-N , 41-C ) :   1.3936 B(  9-N , 49-C ) :   1.4272
B( 10-C , 56-H ) :   0.9768 B( 10-C , 57-H ) :   0.9831 B( 10-C , 58-H ) :   0.9834
B( 11-N , 20-C ) :   1.1318 B( 11-N , 24-C ) :   1.1116 B( 11-N , 25-C ) :   0.9588
B( 12-C , 14-C ) :   1.3542 B( 12-C , 59-H ) :   0.9746 B( 13-N , 31-C ) :   1.1558
B( 13-N , 35-C ) :   1.1504 B( 13-N , 36-C ) :   0.9447 B( 14-C , 18-C ) :   1.1340
B( 15-N , 42-C ) :   1.1072 B( 15-N , 46-C ) :   1.1205 B( 15-N , 47-C ) :   0.9624
B( 16-C , 51-C ) :   1.1738 B( 17-C , 60-H ) :   0.9595 B( 18-C , 19-C ) :   1.1388
B( 19-C , 21-C ) :   1.2415 B( 20-C , 28-C ) :   1.6254 B( 20-C , 63-H ) :   0.9701
B( 21-C , 26-C ) :   1.6155 B( 21-C , 64-H ) :   0.9713 B( 22-C , 23-C ) :   1.2907
B( 22-C , 28-C ) :   1.2679 B( 22-C , 29-C ) :   1.2203 B( 23-C , 24-C ) :   1.6171
B( 23-C , 65-H ) :   0.9705 B( 24-C , 66-H ) :   0.9694 B( 25-C , 67-H ) :   0.9760
B( 25-C , 68-H ) :   0.9828 B( 25-C , 69-H ) :   0.9822 B( 26-C , 27-C ) :   1.2359
B( 26-C , 70-H ) :   0.9706 B( 27-C , 29-C ) :   1.2152 B( 28-C , 71-H ) :   0.9718
B( 29-C , 30-C ) :   1.2407 B( 30-C , 32-C ) :   1.2836 B( 31-C , 39-C ) :   1.5959
B( 31-C , 72-H ) :   0.9684 B( 32-C , 37-C ) :   1.5758 B( 32-C , 73-H ) :   0.9784
B( 33-C , 34-C ) :   1.3028 B( 33-C , 39-C ) :   1.2964 B( 33-C , 40-C ) :   1.1874
B( 34-C , 35-C ) :   1.5924 B( 34-C , 74-H ) :   0.9697 B( 35-C , 75-H ) :   0.9684
B( 36-C , 76-H ) :   0.9767 B( 36-C , 77-H ) :   0.9816 B( 36-C , 78-H ) :   0.9825
B( 37-C , 38-C ) :   1.2876 B( 37-C , 79-H ) :   0.9768 B( 38-C , 40-C ) :   1.2308
B( 39-C , 80-H ) :   0.9708 B( 40-C , 41-C ) :   1.2449 B( 41-C , 43-C ) :   1.1917
B( 42-C , 50-C ) :   1.6360 B( 42-C , 81-H ) :   0.9697 B( 43-C , 48-C ) :   1.6601
B( 43-C , 82-H ) :   0.9723 B( 44-C , 45-C ) :   1.2625 B( 44-C , 50-C ) :   1.2690
B( 44-C , 51-C ) :   1.2650 B( 45-C , 46-C ) :   1.6369 B( 45-C , 83-H ) :   0.9718
B( 46-C , 84-H ) :   0.9701 B( 47-C , 85-H ) :   0.9762 B( 47-C , 86-H ) :   0.9829
B( 47-C , 87-H ) :   0.9825 B( 48-C , 49-C ) :   1.1951 B( 48-C , 88-H ) :   0.9748
B( 49-C , 51-C ) :   1.2352 B( 50-C , 89-H ) :   0.9710

MP2 TOTAL ENERGY:    -2130.899578319 Eh
FINAL SINGLE POINT ENERGY     -2130.899578319220

DIPOLE MOMENT
-------------
                                X             Y             Z
Electronic contribution:      2.03432      -3.91039      -0.22319
Nuclear contribution   :      0.03309       0.20586       0.22423
                        -----------------------------------------
Total Dipole Moment    :      2.06741      -3.70453       0.00103
                        -----------------------------------------
Magnitude (a.u.)       :      4.24238
Magnitude (Debye)      :     10.78326

Rotational constants in cm-1:     0.001500     0.001478     0.000761
Rotational constants in MHz :    44.967086    44.301618    22.807648

                             ****ORCA TERMINATED NORMALLY****
TOTAL RUN TIME: 0 days 1 hours 19 minutes 21 seconds 879 msec
