                         Program Version 5.0.4 -  RELEASE  -
|  1> ! PAL2
|  2> ! mp2 cc-pvdz TightSCF  NoKeepInts
|  3>
|  4> %scf
|  5>   MaxCore 2000
|  6> end
|  7> %mp2
|  8>   MaxCore 2000
|  9> end
| 10> * xyz 0 1
| 11>    C       -3.86900         5.90100         1.24000
| 12>    C        1.47400         4.04100         0.05700
| 13>    C       -2.80200         4.09300         0.04900
| 14>    C       -3.35300         4.61400        -1.13200
| 15>    C       -4.13400         5.75200        -1.09000
| 16>    C       -5.19400         7.61500         0.09000
| 17>    C        0.13200         4.30700         0.06100
| 18>    C       -0.56900         3.05600         0.04700
| 19>    C        1.64900         2.61800         0.02300
| 20>    C       -3.07700         4.76900         1.24800
| 21>    N       -4.38500         6.37700         0.08400
| 22>    N        0.38800         2.06700         0.02500
| 23>    N       -2.01000         0.39500        -0.07500
| 24>    N       -0.38800        -2.07400        -0.02700
| 25>    N        2.01000        -0.40100         0.06500
| 26>    C       -1.96000         2.86100         0.02400
| 27>    C       -2.62300         1.61500        -0.01800
| 28>    C       -5.57300        -4.32900         1.06600
| 29>    C       -4.07300         1.47100         0.05600
| 30>    C       -4.10600        -2.75600        -0.02600
| 31>    C       -4.99500        -2.75700        -1.11100
| 32>    C       -6.13200        -3.54200        -1.07600
| 33>    C       -7.65100        -5.11300         0.04000
| 34>    C       -4.32400         0.14100         0.03700
| 35>    C       -3.02500        -0.52000        -0.04800
| 36>    C       -4.42200        -3.56600         1.07500
| 37>    N       -6.40700        -4.31300         0.00100
| 38>    C       -2.86700        -1.92200        -0.04000
| 39>    C       -1.65000        -2.62400        -0.02700
| 40>    C        3.56800        -6.14200        -1.04000
| 41>    C       -1.47600        -4.04900        -0.03400
| 42>    C        2.80300        -4.09900        -0.00800
| 43>    C        3.65700        -4.38400         1.06900
| 44>    C        4.42700        -5.53000         1.05900
| 45>    C        5.24500        -7.58800         0.01400
| 46>    C       -0.13400        -4.31500        -0.02200
| 47>    C        0.56800        -3.06400        -0.02700
| 48>    C        2.77500        -5.01200        -1.07400
| 49>    N        4.37600        -6.39100         0.01700
| 50>    C        1.95900        -2.86900        -0.00900
| 51>    C        2.62100        -1.62200         0.00900
| 52>    C        5.54300         4.33900        -1.13000
| 53>    C        4.07000        -1.47900        -0.09400
| 54>    C        4.10400         2.75100        -0.02100
| 55>    C        5.02700         2.72900         1.03600
| 56>    C        6.16600         3.50900         0.97800
| 57>    C        7.61900         5.15300        -0.11500
| 58>    C        4.32100        -0.14800        -0.09200
| 59>    C        3.02500         0.51400         0.01500
| 60>    C        4.38700         3.58200        -1.11500
| 61>    C        2.86600         1.91600         0.01300
| 62>    N        6.41300         4.29600        -0.09500
| 63>    H       -4.11600         6.44700         2.14200
| 64>    H        2.27400         4.76600         0.08100
| 65>    H       -3.16900         4.14200        -2.09000
| 66>    H       -4.57300         6.19500        -1.97500
| 67>    H       -4.54000         8.46800        -0.10400
| 68>    H       -5.95500         7.54200        -0.68600
| 69>    H       -5.66600         7.72100         1.06700
| 70>    H       -0.33200         5.28200         0.06900
| 71>    H       -2.69200         4.40900         2.19500
| 72>    H        0.18200         1.07200         0.00500
| 73>    H       -0.18300        -1.08000        -0.02100
| 74>    H       -5.86400        -4.96200         1.89500
| 75>    H       -4.79400         2.27200         0.13900
| 76>    H       -4.80000        -2.16000        -1.99400
| 77>    H       -6.84100        -3.58200        -1.89300
| 78>    H       -8.42800        -4.53600         0.54600
| 79>    H       -7.95600        -5.33700        -0.98100
| 80>    H       -7.45600        -6.03700         0.58400
| 81>    H       -5.28700        -0.34400         0.10000
| 82>    H       -3.78000        -3.60100         1.94700
| 83>    H        3.58700        -6.86800        -1.84300
| 84>    H       -2.27600        -4.77400        -0.05000
| 85>    H        3.71400        -3.72400         1.92600
| 86>    H        5.09200        -5.79500         1.87100
| 87>    H        6.20500        -7.32900        -0.43900
| 88>    H        5.39300        -7.91700         1.04200
| 89>    H        4.75900        -8.37300        -0.56400
| 90>    H        0.32900        -5.29000        -0.00800
| 91>    H        2.14600        -4.84200        -1.94000
| 92>    H        5.80800         4.98600        -1.95600
| 93>    H        4.78800        -2.28100        -0.18500
| 94>    H        4.86000         2.11400         1.91200
| 95>    H        6.90100         3.53100         1.77200
| 96>    H        7.38300         6.10900         0.35600
| 97>    H        8.41400         4.65200         0.43500
| 98>    H        7.92100         5.31000        -1.15000
| 99>    H        5.28300         0.33600        -0.17900
|100>    H        3.72000         3.63200        -1.96700
|101> *
|102>
|103>                          ****END OF INPUT****

CARTESIAN COORDINATES (ANGSTROEM)
---------------------------------
  C     -3.869000    5.901000    1.240000
  C      1.474000    4.041000    0.057000
  C     -2.802000    4.093000    0.049000
  C     -3.353000    4.614000   -1.132000
  C     -4.134000    5.752000   -1.090000
  C     -5.194000    7.615000    0.090000
  C      0.132000    4.307000    0.061000
  C     -0.569000    3.056000    0.047000
  C      1.649000    2.618000    0.023000
  C     -3.077000    4.769000    1.248000
  N     -4.385000    6.377000    0.084000
  N      0.388000    2.067000    0.025000
  N     -2.010000    0.395000   -0.075000
  N     -0.388000   -2.074000   -0.027000
  N      2.010000   -0.401000    0.065000
  C     -1.960000    2.861000    0.024000
  C     -2.623000    1.615000   -0.018000
  C     -5.573000   -4.329000    1.066000
  C     -4.073000    1.471000    0.056000
  C     -4.106000   -2.756000   -0.026000
  C     -4.995000   -2.757000   -1.111000
  C     -6.132000   -3.542000   -1.076000
  C     -7.651000   -5.113000    0.040000
  C     -4.324000    0.141000    0.037000
  C     -3.025000   -0.520000   -0.048000
  C     -4.422000   -3.566000    1.075000
  N     -6.407000   -4.313000    0.001000
  C     -2.867000   -1.922000   -0.040000
  C     -1.650000   -2.624000   -0.027000
  C      3.568000   -6.142000   -1.040000
  C     -1.476000   -4.049000   -0.034000
  C      2.803000   -4.099000   -0.008000
  C      3.657000   -4.384000    1.069000
  C      4.427000   -5.530000    1.059000
  C      5.245000   -7.588000    0.014000
  C     -0.134000   -4.315000   -0.022000
  C      0.568000   -3.064000   -0.027000
  C      2.775000   -5.012000   -1.074000
  N      4.376000   -6.391000    0.017000
  C      1.959000   -2.869000   -0.009000
  C      2.621000   -1.622000    0.009000
  C      5.543000    4.339000   -1.130000
  C      4.070000   -1.479000   -0.094000
  C      4.104000    2.751000   -0.021000
  C      5.027000    2.729000    1.036000
  C      6.166000    3.509000    0.978000
  C      7.619000    5.153000   -0.115000
  C      4.321000   -0.148000   -0.092000
  C      3.025000    0.514000    0.015000
  C      4.387000    3.582000   -1.115000
  C      2.866000    1.916000    0.013000
  N      6.413000    4.296000   -0.095000
  H     -4.116000    6.447000    2.142000
  H      2.274000    4.766000    0.081000
  H     -3.169000    4.142000   -2.090000
  H     -4.573000    6.195000   -1.975000
  H     -4.540000    8.468000   -0.104000
  H     -5.955000    7.542000   -0.686000
  H     -5.666000    7.721000    1.067000
  H     -0.332000    5.282000    0.069000
  H     -2.692000    4.409000    2.195000
  H      0.182000    1.072000    0.005000
  H     -0.183000   -1.080000   -0.021000
  H     -5.864000   -4.962000    1.895000
  H     -4.794000    2.272000    0.139000
  H     -4.800000   -2.160000   -1.994000
  H     -6.841000   -3.582000   -1.893000
  H     -8.428000   -4.536000    0.546000
  H     -7.956000   -5.337000   -0.981000
  H     -7.456000   -6.037000    0.584000
  H     -5.287000   -0.344000    0.100000
  H     -3.780000   -3.601000    1.947000
  H      3.587000   -6.868000   -1.843000
  H     -2.276000   -4.774000   -0.050000
  H      3.714000   -3.724000    1.926000
  H      5.092000   -5.795000    1.871000
  H      6.205000   -7.329000   -0.439000
  H      5.393000   -7.917000    1.042000
  H      4.759000   -8.373000   -0.564000
  H      0.329000   -5.290000   -0.008000
  H      2.146000   -4.842000   -1.940000
  H      5.808000    4.986000   -1.956000
  H      4.788000   -2.281000   -0.185000
  H      4.860000    2.114000    1.912000
  H      6.901000    3.531000    1.772000
  H      7.383000    6.109000    0.356000
  H      8.414000    4.652000    0.435000
  H      7.921000    5.310000   -1.150000
  H      5.283000    0.336000   -0.179000
  H      3.720000    3.632000   -1.967000

 Total Charge           Charge          ....    0
 Multiplicity           Mult            ....    1
 Number of Electrons    NEL             ....  358
 Basis Dimension        Dim             ....  918

ORBITAL ENERGIES
----------------

  NO   OCC          E(Eh)            E(eV)
   0   2.0000     -15.703718      -427.3199
   1   2.0000     -15.631556      -425.3563
   2   2.0000     -15.620833      -425.0645
   3   2.0000     -15.585210      -424.0951
   4   2.0000     -15.519380      -422.3038
   5   2.0000     -15.506297      -421.9478
   6   2.0000     -15.450061      -420.4175
   7   2.0000     -15.429061      -419.8461
   8   2.0000     -11.345193      -308.7184
   9   2.0000     -11.344732      -308.7059
  10   2.0000     -11.340730      -308.5970
  11   2.0000     -11.299293      -307.4694
  12   2.0000     -11.298153      -307.4384
  13   2.0000     -11.292432      -307.2827
  14   2.0000     -11.290950      -307.2424
  15   2.0000     -11.283708      -307.0453
  16   2.0000     -11.282580      -307.0146
  17   2.0000     -11.276903      -306.8601
  18   2.0000     -11.276693      -306.8544
  19   2.0000     -11.274099      -306.7838
  20   2.0000     -11.268653      -306.6356
  21   2.0000     -11.250467      -306.1408
  22   2.0000     -11.246824      -306.0416
  23   2.0000     -11.235173      -305.7246
  24   2.0000     -11.228864      -305.5529
  25   2.0000     -11.228000      -305.5294
  26   2.0000     -11.225039      -305.4488
  27   2.0000     -11.220418      -305.3231
  28   2.0000     -11.220170      -305.3164
  29   2.0000     -11.207683      -304.9765
  30   2.0000     -11.206691      -304.9496
  31   2.0000     -11.194722      -304.6239
  32   2.0000     -11.193947      -304.6028
  33   2.0000     -11.191397      -304.5334
  34   2.0000     -11.190928      -304.5206
  35   2.0000     -11.189608      -304.4847
  36   2.0000     -11.189597      -304.4844
  37   2.0000     -11.182943      -304.3033
  38   2.0000     -11.182827      -304.3002
  39   2.0000     -11.173421      -304.0443
  40   2.0000     -11.166048      -303.8436
  41   2.0000     -11.165399      -303.8260
  42   2.0000     -11.162725      -303.7532
  43   2.0000     -11.161131      -303.7098
  44   2.0000     -11.158490      -303.6379
  45   2.0000     -11.148165      -303.3570
  46   2.0000     -11.147513      -303.3392
  47   2.0000     -11.143701      -303.2355
  48   2.0000     -11.142188      -303.1943
  49   2.0000     -11.135066      -303.0006
  50   2.0000     -11.119903      -302.5879
  51   2.0000     -11.115226      -302.4607
  52   2.0000      -1.378696       -37.5162
  53   2.0000      -1.319291       -35.8997
  54   2.0000      -1.309511       -35.6336
  55   2.0000      -1.279293       -34.8113
  56   2.0000      -1.222062       -33.2540
  57   2.0000      -1.202625       -32.7251
  58   2.0000      -1.174053       -31.9476
  59   2.0000      -1.155905       -31.4538
  60   2.0000      -1.139726       -31.0135
  61   2.0000      -1.108104       -30.1531
  62   2.0000      -1.098998       -29.9052
  63   2.0000      -1.097716       -29.8704
  64   2.0000      -1.072511       -29.1845
  65   2.0000      -1.049053       -28.5462
  66   2.0000      -1.043538       -28.3961
  67   2.0000      -1.034304       -28.1448
  68   2.0000      -1.014085       -27.5947
  69   2.0000      -1.006217       -27.3806
  70   2.0000      -1.004467       -27.3329
  71   2.0000      -0.991368       -26.9765
  72   2.0000      -0.984045       -26.7772
  73   2.0000      -0.978984       -26.6395
  74   2.0000      -0.964996       -26.2589
  75   2.0000      -0.961314       -26.1587
  76   2.0000      -0.951464       -25.8907
  77   2.0000      -0.942083       -25.6354
  78   2.0000      -0.923856       -25.1394
  79   2.0000      -0.922299       -25.0970
  80   2.0000      -0.914911       -24.8960
  81   2.0000      -0.889198       -24.1963
  82   2.0000      -0.881841       -23.9961
  83   2.0000      -0.870229       -23.6801
  84   2.0000      -0.861653       -23.4468
  85   2.0000      -0.848626       -23.0923
  86   2.0000      -0.833821       -22.6894
  87   2.0000      -0.828666       -22.5492
  88   2.0000      -0.821538       -22.3552
  89   2.0000      -0.795012       -21.6334
  90   2.0000      -0.788138       -21.4463
  91   2.0000      -0.764097       -20.7921
  92   2.0000      -0.733552       -19.9610
  93   2.0000      -0.729348       -19.8466
  94   2.0000      -0.727288       -19.7905
  95   2.0000      -0.721486       -19.6326
  96   2.0000      -0.716679       -19.5018
  97   2.0000      -0.707266       -19.2457
  98   2.0000      -0.703159       -19.1339
  99   2.0000      -0.698324       -19.0024
 100   2.0000      -0.695659       -18.9298
 101   2.0000      -0.690436       -18.7877
 102   2.0000      -0.683815       -18.6076
 103   2.0000      -0.674718       -18.3600
 104   2.0000      -0.672969       -18.3124
 105   2.0000      -0.669000       -18.2044
 106   2.0000      -0.664229       -18.0746
 107   2.0000      -0.660487       -17.9728
 108   2.0000      -0.653355       -17.7787
 109   2.0000      -0.650944       -17.7131
 110   2.0000      -0.648652       -17.6507
 111   2.0000      -0.643677       -17.5153
 112   2.0000      -0.640495       -17.4287
 113   2.0000      -0.638089       -17.3633
 114   2.0000      -0.631679       -17.1889
 115   2.0000      -0.625518       -17.0212
 116   2.0000      -0.624839       -17.0027
 117   2.0000      -0.620082       -16.8733
 118   2.0000      -0.612943       -16.6790
 119   2.0000      -0.610884       -16.6230
 120   2.0000      -0.609557       -16.5869
 121   2.0000      -0.602332       -16.3903
 122   2.0000      -0.590896       -16.0791
 123   2.0000      -0.585730       -15.9385
 124   2.0000      -0.583221       -15.8703
 125   2.0000      -0.579705       -15.7746
 126   2.0000      -0.576226       -15.6799
 127   2.0000      -0.576110       -15.6767
 128   2.0000      -0.572224       -15.5710
 129   2.0000      -0.560680       -15.2569
 130   2.0000      -0.556753       -15.1500
 131   2.0000      -0.548537       -14.9264
 132   2.0000      -0.542381       -14.7589
 133   2.0000      -0.539280       -14.6746
 134   2.0000      -0.534215       -14.5367
 135   2.0000      -0.530368       -14.4321
 136   2.0000      -0.518510       -14.1094
 137   2.0000      -0.515727       -14.0336
 138   2.0000      -0.514880       -14.0106
 139   2.0000      -0.512419       -13.9436
 140   2.0000      -0.510293       -13.8858
 141   2.0000      -0.503537       -13.7019
 142   2.0000      -0.501818       -13.6552
 143   2.0000      -0.500085       -13.6080
 144   2.0000      -0.495313       -13.4782
 145   2.0000      -0.493773       -13.4363
 146   2.0000      -0.490760       -13.3543
 147   2.0000      -0.476599       -12.9689
 148   2.0000      -0.475221       -12.9314
 149   2.0000      -0.464865       -12.6496
 150   2.0000      -0.462226       -12.5778
 151   2.0000      -0.459602       -12.5064
 152   2.0000      -0.451230       -12.2786
 153   2.0000      -0.441485       -12.0134
 154   2.0000      -0.435222       -11.8430
 155   2.0000      -0.433517       -11.7966
 156   2.0000      -0.421224       -11.4621
 157   2.0000      -0.414773       -11.2866
 158   2.0000      -0.410790       -11.1782
 159   2.0000      -0.400373       -10.8947
 160   2.0000      -0.382533       -10.4093
 161   2.0000      -0.370597       -10.0844
 162   2.0000      -0.355123        -9.6634
 163   2.0000      -0.354253        -9.6397
 164   2.0000      -0.347129        -9.4458
 165   2.0000      -0.340016        -9.2523
 166   2.0000      -0.338818        -9.2197
 167   2.0000      -0.322921        -8.7871
 168   2.0000      -0.314366        -8.5543
 169   2.0000      -0.302052        -8.2193
 170   2.0000      -0.298427        -8.1206
 171   2.0000      -0.283497        -7.7143
 172   2.0000      -0.278043        -7.5659
 173   2.0000      -0.264751        -7.2042
 174   2.0000      -0.231916        -6.3108
 175   2.0000      -0.183800        -5.0014
 176   2.0000      -0.173799        -4.7293
 177   2.0000      -0.062257        -1.6941
 178   2.0000      -0.051121        -1.3911
 179   0.0000       0.034765         0.9460
 180   0.0000       0.057926         1.5762
 181   0.0000       0.083358         2.2683
 182   0.0000       0.097958         2.6656
 183   0.0000       0.102386         2.7861

MULLIKEN ATOMIC CHARGES
-----------------------
   0 C :    0.230859
   1 N :   -0.416318
   2 C :   -0.067151
   3 N :   -0.343412
   4 C :   -0.075341
   5 N :   -0.565252
   6 C :   -0.029070
   7 N :   -0.337023
   8 C :    0.230213
   9 N :   -0.565810
  10 C :    0.104901
  11 N :   -0.439417
  12 C :   -0.058589
  13 N :   -0.450184
  14 C :    0.220156
  15 N :   -0.441457
  16 C :    0.254854
  17 C :   -0.029943
  18 C :   -0.174882
  19 C :    0.227306
  20 C :    0.190003
  21 C :   -0.066420
  22 C :   -0.090117
  23 C :   -0.066052
  24 C :    0.216988
  25 C :    0.114746
  26 C :   -0.067235
  27 C :    0.245604
  28 C :   -0.040502
  29 C :   -0.195919
  30 C :    0.221940
  31 C :    0.189696
  32 C :   -0.064589
  33 C :   -0.101160
  34 C :   -0.050199
  35 C :    0.180042
  36 C :    0.120530
  37 C :   -0.070169
  38 C :    0.244196
  39 C :   -0.065273
  40 C :   -0.202981
  41 C :    0.216092
  42 C :    0.211562
  43 C :   -0.077117
  44 C :   -0.091451
  45 C :   -0.039430
  46 C :    0.185999
  47 C :    0.116600
  48 C :   -0.082081
  49 C :    0.208987
  50 C :   -0.066055
  51 C :   -0.189264
  52 H :    0.079429
  53 H :   -0.007887
  54 H :    0.064172
  55 H :    0.077953
  56 H :    0.081972
  57 H :    0.073935
  58 H :    0.072913
  59 H :   -0.028182
  60 H :    0.065166
  61 H :    0.176695
  62 H :    0.168274
  63 H :    0.053186
  64 H :   -0.033628
  65 H :    0.041082
  66 H :    0.055187
  67 H :    0.058721
  68 H :    0.056169
  69 H :    0.059041
  70 H :   -0.014597
  71 H :    0.046951
  72 H :    0.038789
  73 H :   -0.018997
  74 H :    0.030613
  75 H :    0.037470
  76 H :    0.047282
  77 H :    0.046891
  78 H :    0.046108
  79 H :   -0.011720
  80 H :    0.030366
  81 H :    0.050719
  82 H :   -0.023239
  83 H :    0.042819
  84 H :    0.049668
  85 H :    0.054694
  86 H :    0.056428
  87 H :    0.054709
  88 H :   -0.030250
  89 H :    0.039688
Sum of atomic charges:    0.0000000

LOEWDIN ATOMIC CHARGES
----------------------
   0 C :    0.033761
   1 N :    0.186416
   2 C :   -0.099292
   3 N :    0.171503
   4 C :    0.107946
   5 N :   -0.146857
   6 C :   -0.010874
   7 N :    0.177407
   8 C :    0.033748
   9 N :   -0.138404
  10 C :    0.038594
  11 N :    0.140031
  12 C :   -0.096720
  13 N :    0.115474
  14 C :   -0.061059
  15 N :    0.135185
  16 C :   -0.019330
  17 C :   -0.010797
  18 C :   -0.119317
  19 C :   -0.089959
  20 C :   -0.016607
  21 C :   -0.099172
  22 C :    0.034776
  23 C :   -0.032989
  24 C :    0.007361
  25 C :    0.029414
  26 C :   -0.093852
  27 C :   -0.057950
  28 C :   -0.015124
  29 C :   -0.117061
  30 C :   -0.063990
  31 C :   -0.024400
  32 C :   -0.100402
  33 C :   -0.002980
  34 C :   -0.026139
  35 C :   -0.032998
  36 C :    0.023570
  37 C :   -0.109250
  38 C :   -0.029598
  39 C :   -0.033957
  40 C :   -0.113021
  41 C :   -0.094321
  42 C :    0.000447
  43 C :   -0.113664
  44 C :    0.028436
  45 C :   -0.014845
  46 C :   -0.021786
  47 C :    0.028311
  48 C :   -0.114811
  49 C :   -0.115572
  50 C :   -0.032524
  51 C :   -0.108717
  52 H :    0.040794
  53 H :    0.007279
  54 H :    0.054392
  55 H :    0.040666
  56 H :    0.038507
  57 H :    0.038551
  58 H :    0.039000
  59 H :   -0.000298
  60 H :    0.054750
  61 H :    0.062404
  62 H :    0.057973
  63 H :    0.028936
  64 H :   -0.004830
  65 H :    0.041931
  66 H :    0.030009
  67 H :    0.026593
  68 H :    0.031105
  69 H :    0.031304
  70 H :    0.002586
  71 H :    0.045540
  72 H :    0.022642
  73 H :    0.001897
  74 H :    0.038253
  75 H :    0.021645
  76 H :    0.020565
  77 H :    0.026294
  78 H :    0.025973
  79 H :    0.005557
  80 H :    0.037327
  81 H :    0.028101
  82 H :   -0.001474
  83 H :    0.044121
  84 H :    0.026980
  85 H :    0.024491
  86 H :    0.030384
  87 H :    0.030202
  88 H :   -0.005139
  89 H :    0.040948

  Mayer bond orders larger than 0.100000
B(  0-C ,  1-N ) :   1.1914 B(  0-C , 17-C ) :   1.5343 B(  0-C , 52-H ) :   0.9671
B(  1-N ,  8-C ) :   1.1896 B(  1-N , 10-C ) :   0.9310 B(  2-C , 12-C ) :   1.5739
B(  2-C , 16-C ) :   1.2792 B(  2-C , 53-H ) :   0.9791 B(  3-N , 14-C ) :   1.1776
B(  3-N , 16-C ) :   1.2020 B(  3-N , 61-H ) :   0.8957 B(  4-C ,  6-C ) :   1.3459
B(  4-C , 17-C ) :   1.3475 B(  4-C , 18-C ) :   1.0772 B(  5-N , 19-C ) :   1.3699
B(  5-N , 27-C ) :   1.4446 B(  6-C ,  8-C ) :   1.5344 B(  6-C , 54-H ) :   0.9708
B(  7-N , 30-C ) :   1.1846 B(  7-N , 38-C ) :   1.2143 B(  7-N , 62-H ) :   0.9010
B(  8-C , 55-H ) :   0.9681 B(  9-N , 41-C ) :   1.4312 B(  9-N , 49-C ) :   1.3964
B( 10-C , 56-H ) :   0.9765 B( 10-C , 57-H ) :   0.9810 B( 10-C , 58-H ) :   0.9817
B( 11-N , 20-C ) :   1.1009 B( 11-N , 24-C ) :   1.1345 B( 11-N , 25-C ) :   0.9613
B( 12-C , 14-C ) :   1.2801 B( 12-C , 59-H ) :   0.9772 B( 13-N , 31-C ) :   1.0868
B( 13-N , 35-C ) :   1.0764 B( 13-N , 36-C ) :   0.9799 B( 14-C , 18-C ) :   1.2563
B( 15-N , 42-C ) :   1.1255 B( 15-N , 46-C ) :   1.0930 B( 15-N , 47-C ) :   0.9656
B( 16-C , 51-C ) :   1.2417 B( 17-C , 60-H ) :   0.9710 B( 18-C , 19-C ) :   1.3001
B( 19-C , 21-C ) :   1.1696 B( 20-C , 28-C ) :   1.6273 B( 20-C , 63-H ) :   0.9708
B( 21-C , 26-C ) :   1.6763 B( 21-C , 64-H ) :   0.9724 B( 22-C , 23-C ) :   1.2592
B( 22-C , 28-C ) :   1.2803 B( 22-C , 29-C ) :   1.2528 B( 23-C , 24-C ) :   1.6320
B( 23-C , 65-H ) :   0.9721 B( 24-C , 66-H ) :   0.9690 B( 25-C , 67-H ) :   0.9763
B( 25-C , 68-H ) :   0.9833 B( 25-C , 69-H ) :   0.9819 B( 26-C , 27-C ) :   1.1771
B( 26-C , 70-H ) :   0.9754 B( 27-C , 29-C ) :   1.2389 B( 28-C , 71-H ) :   0.9709
B( 29-C , 30-C ) :   1.1812 B( 30-C , 32-C ) :   1.3452 B( 31-C , 39-C ) :   1.6785
B( 31-C , 72-H ) :   0.9708 B( 32-C , 37-C ) :   1.5143 B( 32-C , 73-H ) :   0.9772
B( 33-C , 34-C ) :   1.2375 B( 33-C , 39-C ) :   1.2296 B( 33-C , 40-C ) :   1.3446
B( 34-C , 35-C ) :   1.6768 B( 34-C , 74-H ) :   0.9709 B( 35-C , 75-H ) :   0.9708
B( 36-C , 76-H ) :   0.9756 B( 36-C , 77-H ) :   0.9825 B( 36-C , 78-H ) :   0.9837
B( 37-C , 38-C ) :   1.3401 B( 37-C , 79-H ) :   0.9791 B( 38-C , 40-C ) :   1.1827
B( 39-C , 80-H ) :   0.9721 B( 40-C , 41-C ) :   1.1736 B( 41-C , 43-C ) :   1.2525
B( 42-C , 50-C ) :   1.6405 B( 42-C , 81-H ) :   0.9696 B( 43-C , 48-C ) :   1.5986
B( 43-C , 82-H ) :   0.9754 B( 44-C , 45-C ) :   1.2800 B( 44-C , 50-C ) :   1.2518
B( 44-C , 51-C ) :   1.2487 B( 45-C , 46-C ) :   1.6324 B( 45-C , 83-H ) :   0.9703
B( 46-C , 84-H ) :   0.9708 B( 47-C , 85-H ) :   0.9760 B( 47-C , 86-H ) :   0.9826
B( 47-C , 87-H ) :   0.9829 B( 48-C , 49-C ) :   1.2473 B( 48-C , 88-H ) :   0.9727
B( 49-C , 51-C ) :   1.1918 B( 50-C , 89-H ) :   0.9721

MP2 TOTAL ENERGY:    -2130.880529703 Eh
FINAL SINGLE POINT ENERGY     -2130.880529702604

DIPOLE MOMENT
-------------
                                X             Y             Z
Electronic contribution:     -4.08104       4.44795      -0.05995
Nuclear contribution   :      0.04923       0.22090       0.08304
                        -----------------------------------------
Total Dipole Moment    :     -4.03181       4.66885       0.02309
                        -----------------------------------------
Magnitude (a.u.)       :      6.16881
Magnitude (Debye)      :     15.67986

Rotational constants in cm-1:     0.001498     0.001472     0.000763
Rotational constants in MHz :    44.919947    44.124489    22.866769

                             ****ORCA TERMINATED NORMALLY****
TOTAL RUN TIME: 0 days 1 hours 16 minutes 25 seconds 848 msec
