                         Program Version 5.0.4 -  RELEASE  -
|  1> ! PAL2
|  2> ! mp2 cc-pvdz TightSCF  NoKeepInts
|  3>
|  4> %scf
|  5>   MaxCore 2000
|  6> end
|  7> %mp2
|  8>   MaxCore 2000
|  9> end
| 10> * xyz 0 1
| 11>    C       -3.57800         6.14400        -0.95800
| 12>    C        1.47400         4.04100         0.05700
| 13>    C       -2.80200         4.09300         0.04900
| 14>    C       -3.62800         4.38000         1.14700
| 15>    C       -4.39600         5.52700         1.15600
| 16>    C       -5.22600         7.59200         0.13800
| 17>    C        0.13200         4.30700         0.06100
| 18>    C       -0.56900         3.05600         0.04700
| 19>    C        1.64900         2.61800         0.02300
| 20>    C       -2.79500         5.00700        -1.01600
| 21>    N       -4.36200         6.39200         0.11500
| 22>    N        0.38800         2.06700         0.02500
| 23>    N       -2.01000         0.39500        -0.07500
| 24>    N       -0.38800        -2.07400        -0.02700
| 25>    N        2.01000        -0.40100         0.06500
| 26>    C       -1.96000         2.86100         0.02400
| 27>    C       -2.62300         1.61500        -0.01800
| 28>    C       -5.57300        -4.32900         1.06600
| 29>    C       -4.07300         1.47100         0.05600
| 30>    C       -4.10600        -2.75600        -0.02600
| 31>    C       -4.99500        -2.75700        -1.11100
| 32>    C       -6.13200        -3.54200        -1.07600
| 33>    C       -7.65100        -5.11300         0.04000
| 34>    C       -4.32400         0.14100         0.03700
| 35>    C       -3.02500        -0.52000        -0.04800
| 36>    C       -4.42200        -3.56600         1.07500
| 37>    N       -6.40700        -4.31300         0.00100
| 38>    C       -2.86700        -1.92200        -0.04000
| 39>    C       -1.65000        -2.62400        -0.02700
| 40>    C        3.56800        -6.14200        -1.04000
| 41>    C       -1.47600        -4.04900        -0.03400
| 42>    C        2.80300        -4.09900        -0.00800
| 43>    C        3.65700        -4.38400         1.06900
| 44>    C        4.42700        -5.53000         1.05900
| 45>    C        5.24500        -7.58800         0.01400
| 46>    C       -0.13400        -4.31500        -0.02200
| 47>    C        0.56800        -3.06400        -0.02700
| 48>    C        2.77500        -5.01200        -1.07400
| 49>    N        4.37600        -6.39100         0.01700
| 50>    C        1.95900        -2.86900        -0.00900
| 51>    C        2.62100        -1.62200         0.00900
| 52>    C        5.54300         4.33900        -1.13000
| 53>    C        4.07000        -1.47900        -0.09400
| 54>    C        4.10400         2.75100        -0.02100
| 55>    C        5.02700         2.72900         1.03600
| 56>    C        6.16600         3.50900         0.97800
| 57>    C        7.61900         5.15300        -0.11500
| 58>    C        4.32100        -0.14800        -0.09200
| 59>    C        3.02500         0.51400         0.01500
| 60>    C        4.38700         3.58200        -1.11500
| 61>    C        2.86600         1.91600         0.01300
| 62>    N        6.41300         4.29600        -0.09500
| 63>    H       -3.59500         6.88300        -1.75100
| 64>    H        2.27400         4.76600         0.08100
| 65>    H       -3.68300         3.70800         1.99500
| 66>    H       -5.05400         5.78600         1.97500
| 67>    H       -6.21300         7.32800        -0.24900
| 68>    H       -5.30900         7.94600         1.16600
| 69>    H       -4.77300         8.36200        -0.48600
| 70>    H       -0.33200         5.28200         0.06900
| 71>    H       -2.16800         4.84900        -1.88600
| 72>    H        0.18200         1.07200         0.00500
| 73>    H       -0.18300        -1.08000        -0.02100
| 74>    H       -5.86400        -4.96200         1.89500
| 75>    H       -4.79400         2.27200         0.13900
| 76>    H       -4.80000        -2.16000        -1.99400
| 77>    H       -6.84100        -3.58200        -1.89300
| 78>    H       -8.42800        -4.53600         0.54600
| 79>    H       -7.95600        -5.33700        -0.98100
| 80>    H       -7.45600        -6.03700         0.58400
| 81>    H       -5.28700        -0.34400         0.10000
| 82>    H       -3.78000        -3.60100         1.94700
| 83>    H        3.58700        -6.86800        -1.84300
| 84>    H       -2.27600        -4.77400        -0.05000
| 85>    H        3.71400        -3.72400         1.92600
| 86>    H        5.09200        -5.79500         1.87100
| 87>    H        6.20500        -7.32900        -0.43900
| 88>    H        5.39300        -7.91700         1.04200
| 89>    H        4.75900        -8.37300        -0.56400
| 90>    H        0.32900        -5.29000        -0.00800
| 91>    H        2.14600        -4.84200        -1.94000
| 92>    H        5.80800         4.98600        -1.95600
| 93>    H        4.78800        -2.28100        -0.18500
| 94>    H        4.86000         2.11400         1.91200
| 95>    H        6.90100         3.53100         1.77200
| 96>    H        7.38300         6.10900         0.35600
| 97>    H        8.41400         4.65200         0.43500
| 98>    H        7.92100         5.31000        -1.15000
| 99>    H        5.28300         0.33600        -0.17900
|100>    H        3.72000         3.63200        -1.96700
|101> *
|102>
|103>                          ****END OF INPUT****

CARTESIAN COORDINATES (ANGSTROEM)
---------------------------------
  C     -3.578000    6.144000   -0.958000
  C      1.474000    4.041000    0.057000
  C     -2.802000    4.093000    0.049000
  C     -3.628000    4.380000    1.147000
  C     -4.396000    5.527000    1.156000
  C     -5.226000    7.592000    0.138000
  C      0.132000    4.307000    0.061000
  C     -0.569000    3.056000    0.047000
  C      1.649000    2.618000    0.023000
  C     -2.795000    5.007000   -1.016000
  N     -4.362000    6.392000    0.115000
  N      0.388000    2.067000    0.025000
  N     -2.010000    0.395000   -0.075000
  N     -0.388000   -2.074000   -0.027000
  N      2.010000   -0.401000    0.065000
  C     -1.960000    2.861000    0.024000
  C     -2.623000    1.615000   -0.018000
  C     -5.573000   -4.329000    1.066000
  C     -4.073000    1.471000    0.056000
  C     -4.106000   -2.756000   -0.026000
  C     -4.995000   -2.757000   -1.111000
  C     -6.132000   -3.542000   -1.076000
  C     -7.651000   -5.113000    0.040000
  C     -4.324000    0.141000    0.037000
  C     -3.025000   -0.520000   -0.048000
  C     -4.422000   -3.566000    1.075000
  N     -6.407000   -4.313000    0.001000
  C     -2.867000   -1.922000   -0.040000
  C     -1.650000   -2.624000   -0.027000
  C      3.568000   -6.142000   -1.040000
  C     -1.476000   -4.049000   -0.034000
  C      2.803000   -4.099000   -0.008000
  C      3.657000   -4.384000    1.069000
  C      4.427000   -5.530000    1.059000
  C      5.245000   -7.588000    0.014000
  C     -0.134000   -4.315000   -0.022000
  C      0.568000   -3.064000   -0.027000
  C      2.775000   -5.012000   -1.074000
  N      4.376000   -6.391000    0.017000
  C      1.959000   -2.869000   -0.009000
  C      2.621000   -1.622000    0.009000
  C      5.543000    4.339000   -1.130000
  C      4.070000   -1.479000   -0.094000
  C      4.104000    2.751000   -0.021000
  C      5.027000    2.729000    1.036000
  C      6.166000    3.509000    0.978000
  C      7.619000    5.153000   -0.115000
  C      4.321000   -0.148000   -0.092000
  C      3.025000    0.514000    0.015000
  C      4.387000    3.582000   -1.115000
  C      2.866000    1.916000    0.013000
  N      6.413000    4.296000   -0.095000
  H     -3.595000    6.883000   -1.751000
  H      2.274000    4.766000    0.081000
  H     -3.683000    3.708000    1.995000
  H     -5.054000    5.786000    1.975000
  H     -6.213000    7.328000   -0.249000
  H     -5.309000    7.946000    1.166000
  H     -4.773000    8.362000   -0.486000
  H     -0.332000    5.282000    0.069000
  H     -2.168000    4.849000   -1.886000
  H      0.182000    1.072000    0.005000
  H     -0.183000   -1.080000   -0.021000
  H     -5.864000   -4.962000    1.895000
  H     -4.794000    2.272000    0.139000
  H     -4.800000   -2.160000   -1.994000
  H     -6.841000   -3.582000   -1.893000
  H     -8.428000   -4.536000    0.546000
  H     -7.956000   -5.337000   -0.981000
  H     -7.456000   -6.037000    0.584000
  H     -5.287000   -0.344000    0.100000
  H     -3.780000   -3.601000    1.947000
  H      3.587000   -6.868000   -1.843000
  H     -2.276000   -4.774000   -0.050000
  H      3.714000   -3.724000    1.926000
  H      5.092000   -5.795000    1.871000
  H      6.205000   -7.329000   -0.439000
  H      5.393000   -7.917000    1.042000
  H      4.759000   -8.373000   -0.564000
  H      0.329000   -5.290000   -0.008000
  H      2.146000   -4.842000   -1.940000
  H      5.808000    4.986000   -1.956000
  H      4.788000   -2.281000   -0.185000
  H      4.860000    2.114000    1.912000
  H      6.901000    3.531000    1.772000
  H      7.383000    6.109000    0.356000
  H      8.414000    4.652000    0.435000
  H      7.921000    5.310000   -1.150000
  H      5.283000    0.336000   -0.179000
  H      3.720000    3.632000   -1.967000

 Total Charge           Charge          ....    0
 Multiplicity           Mult            ....    1
 Number of Electrons    NEL             ....  358
 Basis Dimension        Dim             ....  918

ORBITAL ENERGIES
----------------

  NO   OCC          E(Eh)            E(eV)
   0   2.0000     -15.647377      -425.7868
   1   2.0000     -15.637948      -425.5302
   2   2.0000     -15.628425      -425.2711
   3   2.0000     -15.620810      -425.0639
   4   2.0000     -15.517315      -422.2476
   5   2.0000     -15.514611      -422.1740
   6   2.0000     -15.445335      -420.2889
   7   2.0000     -15.439542      -420.1313
   8   2.0000     -11.307634      -307.6964
   9   2.0000     -11.302025      -307.5437
  10   2.0000     -11.301753      -307.5363
  11   2.0000     -11.300471      -307.5015
  12   2.0000     -11.295732      -307.3725
  13   2.0000     -11.294092      -307.3279
  14   2.0000     -11.292286      -307.2787
  15   2.0000     -11.291209      -307.2494
  16   2.0000     -11.286478      -307.1207
  17   2.0000     -11.283930      -307.0513
  18   2.0000     -11.280314      -306.9530
  19   2.0000     -11.277839      -306.8856
  20   2.0000     -11.250404      -306.1391
  21   2.0000     -11.241194      -305.8884
  22   2.0000     -11.239992      -305.8557
  23   2.0000     -11.239530      -305.8431
  24   2.0000     -11.233236      -305.6719
  25   2.0000     -11.232655      -305.6561
  26   2.0000     -11.232413      -305.6495
  27   2.0000     -11.226339      -305.4842
  28   2.0000     -11.226118      -305.4782
  29   2.0000     -11.226066      -305.4768
  30   2.0000     -11.220970      -305.3381
  31   2.0000     -11.220125      -305.3151
  32   2.0000     -11.198541      -304.7278
  33   2.0000     -11.198140      -304.7169
  34   2.0000     -11.194003      -304.6043
  35   2.0000     -11.193772      -304.5980
  36   2.0000     -11.176483      -304.1276
  37   2.0000     -11.175936      -304.1127
  38   2.0000     -11.173599      -304.0491
  39   2.0000     -11.169191      -303.9292
  40   2.0000     -11.166291      -303.8502
  41   2.0000     -11.164765      -303.8087
  42   2.0000     -11.164538      -303.8025
  43   2.0000     -11.161915      -303.7312
  44   2.0000     -11.158569      -303.6401
  45   2.0000     -11.155817      -303.5652
  46   2.0000     -11.153432      -303.5003
  47   2.0000     -11.150391      -303.4176
  48   2.0000     -11.148239      -303.3590
  49   2.0000     -11.146664      -303.3161
  50   2.0000     -11.136150      -303.0300
  51   2.0000     -11.134422      -302.9830
  52   2.0000      -1.332670       -36.2638
  53   2.0000      -1.324564       -36.0432
  54   2.0000      -1.316215       -35.8160
  55   2.0000      -1.309962       -35.6459
  56   2.0000      -1.216143       -33.0929
  57   2.0000      -1.211812       -32.9751
  58   2.0000      -1.163530       -31.6612
  59   2.0000      -1.153261       -31.3818
  60   2.0000      -1.119858       -30.4729
  61   2.0000      -1.111889       -30.2560
  62   2.0000      -1.105792       -30.0901
  63   2.0000      -1.099070       -29.9072
  64   2.0000      -1.056042       -28.7364
  65   2.0000      -1.048356       -28.5272
  66   2.0000      -1.040756       -28.3204
  67   2.0000      -1.034993       -28.1636
  68   2.0000      -1.026954       -27.9448
  69   2.0000      -1.011343       -27.5200
  70   2.0000      -1.007315       -27.4104
  71   2.0000      -0.997164       -27.1342
  72   2.0000      -0.980102       -26.6699
  73   2.0000      -0.975605       -26.5476
  74   2.0000      -0.968816       -26.3628
  75   2.0000      -0.961434       -26.1620
  76   2.0000      -0.950731       -25.8707
  77   2.0000      -0.946103       -25.7448
  78   2.0000      -0.935956       -25.4687
  79   2.0000      -0.922808       -25.1109
  80   2.0000      -0.892252       -24.2794
  81   2.0000      -0.881754       -23.9938
  82   2.0000      -0.875213       -23.8158
  83   2.0000      -0.867907       -23.6170
  84   2.0000      -0.862632       -23.4734
  85   2.0000      -0.857239       -23.3267
  86   2.0000      -0.851435       -23.1687
  87   2.0000      -0.840358       -22.8673
  88   2.0000      -0.822068       -22.3696
  89   2.0000      -0.797582       -21.7033
  90   2.0000      -0.797256       -21.6944
  91   2.0000      -0.739292       -20.1172
  92   2.0000      -0.730094       -19.8669
  93   2.0000      -0.727207       -19.7883
  94   2.0000      -0.722609       -19.6632
  95   2.0000      -0.717274       -19.5180
  96   2.0000      -0.710865       -19.3436
  97   2.0000      -0.709362       -19.3027
  98   2.0000      -0.697825       -18.9888
  99   2.0000      -0.691033       -18.8040
 100   2.0000      -0.686204       -18.6726
 101   2.0000      -0.682053       -18.5596
 102   2.0000      -0.679309       -18.4849
 103   2.0000      -0.672203       -18.2916
 104   2.0000      -0.668964       -18.2034
 105   2.0000      -0.666095       -18.1254
 106   2.0000      -0.663276       -18.0487
 107   2.0000      -0.660276       -17.9670
 108   2.0000      -0.658873       -17.9288
 109   2.0000      -0.655567       -17.8389
 110   2.0000      -0.651321       -17.7234
 111   2.0000      -0.649043       -17.6614
 112   2.0000      -0.647810       -17.6278
 113   2.0000      -0.643441       -17.5089
 114   2.0000      -0.633670       -17.2430
 115   2.0000      -0.623555       -16.9678
 116   2.0000      -0.622148       -16.9295
 117   2.0000      -0.615386       -16.7455
 118   2.0000      -0.611207       -16.6318
 119   2.0000      -0.608467       -16.5572
 120   2.0000      -0.607476       -16.5303
 121   2.0000      -0.603103       -16.4113
 122   2.0000      -0.601181       -16.3590
 123   2.0000      -0.594272       -16.1710
 124   2.0000      -0.589867       -16.0511
 125   2.0000      -0.584070       -15.8933
 126   2.0000      -0.578041       -15.7293
 127   2.0000      -0.573208       -15.5978
 128   2.0000      -0.569274       -15.4907
 129   2.0000      -0.563771       -15.3410
 130   2.0000      -0.553307       -15.0563
 131   2.0000      -0.545262       -14.8373
 132   2.0000      -0.540157       -14.6984
 133   2.0000      -0.535074       -14.5601
 134   2.0000      -0.532306       -14.4848
 135   2.0000      -0.528895       -14.3920
 136   2.0000      -0.524128       -14.2622
 137   2.0000      -0.523547       -14.2464
 138   2.0000      -0.519344       -14.1321
 139   2.0000      -0.515058       -14.0154
 140   2.0000      -0.509396       -13.8614
 141   2.0000      -0.504796       -13.7362
 142   2.0000      -0.503883       -13.7114
 143   2.0000      -0.502353       -13.6697
 144   2.0000      -0.498338       -13.5605
 145   2.0000      -0.496345       -13.5062
 146   2.0000      -0.495900       -13.4941
 147   2.0000      -0.493800       -13.4370
 148   2.0000      -0.489534       -13.3209
 149   2.0000      -0.467616       -12.7245
 150   2.0000      -0.460216       -12.5231
 151   2.0000      -0.451701       -12.2914
 152   2.0000      -0.446369       -12.1463
 153   2.0000      -0.445767       -12.1299
 154   2.0000      -0.443725       -12.0744
 155   2.0000      -0.439667       -11.9640
 156   2.0000      -0.434486       -11.8230
 157   2.0000      -0.428750       -11.6669
 158   2.0000      -0.392329       -10.6758
 159   2.0000      -0.380454       -10.3527
 160   2.0000      -0.376100       -10.2342
 161   2.0000      -0.372028       -10.1234
 162   2.0000      -0.365073        -9.9341
 163   2.0000      -0.358834        -9.7644
 164   2.0000      -0.352414        -9.5897
 165   2.0000      -0.347645        -9.4599
 166   2.0000      -0.337805        -9.1921
 167   2.0000      -0.333201        -9.0669
 168   2.0000      -0.325774        -8.8648
 169   2.0000      -0.300128        -8.1669
 170   2.0000      -0.293298        -7.9810
 171   2.0000      -0.288970        -7.8633
 172   2.0000      -0.286923        -7.8076
 173   2.0000      -0.256762        -6.9869
 174   2.0000      -0.245187        -6.6719
 175   2.0000      -0.186923        -5.0864
 176   2.0000      -0.176709        -4.8085
 177   2.0000      -0.064196        -1.7469
 178   2.0000      -0.052817        -1.4372
 179   0.0000       0.032393         0.8815
 180   0.0000       0.069270         1.8849
 181   0.0000       0.092281         2.5111
 182   0.0000       0.095428         2.5967
 183   0.0000       0.128588         3.4991

MULLIKEN ATOMIC CHARGES
-----------------------
   0 C :    0.212885
   1 N :   -0.435644
   2 C :   -0.065045
   3 N :   -0.338821
   4 C :   -0.071084
   5 N :   -0.564444
   6 C :   -0.052389
   7 N :   -0.337395
   8 C :    0.211619
   9 N :   -0.563989
  10 C :    0.111865
  11 N :   -0.437651
  12 C :   -0.067121
  13 N :   -0.442877
  14 C :    0.238238
  15 N :   -0.440500
  16 C :    0.239149
  17 C :   -0.057209
  18 C :   -0.207140
  19 C :    0.239635
  20 C :    0.203841
  21 C :   -0.079597
  22 C :   -0.086462
  23 C :   -0.053193
  24 C :    0.209517
  25 C :    0.113902
  26 C :   -0.070996
  27 C :    0.229835
  28 C :   -0.049034
  29 C :   -0.189359
  30 C :    0.231919
  31 C :    0.204002
  32 C :   -0.066367
  33 C :   -0.087207
  34 C :   -0.050953
  35 C :    0.197892
  36 C :    0.115973
  37 C :   -0.067769
  38 C :    0.238138
  39 C :   -0.061828
  40 C :   -0.193692
  41 C :    0.220734
  42 C :    0.206506
  43 C :   -0.074085
  44 C :   -0.088590
  45 C :   -0.048628
  46 C :    0.199419
  47 C :    0.115624
  48 C :   -0.076145
  49 C :    0.221705
  50 C :   -0.056396
  51 C :   -0.188560
  52 H :    0.061084
  53 H :   -0.012571
  54 H :    0.052293
  55 H :    0.059465
  56 H :    0.065145
  57 H :    0.061538
  58 H :    0.059948
  59 H :   -0.016609
  60 H :    0.049612
  61 H :    0.174072
  62 H :    0.171415
  63 H :    0.056106
  64 H :   -0.023069
  65 H :    0.046273
  66 H :    0.057565
  67 H :    0.062012
  68 H :    0.057996
  69 H :    0.059215
  70 H :   -0.022268
  71 H :    0.047963
  72 H :    0.051235
  73 H :   -0.016292
  74 H :    0.041923
  75 H :    0.050265
  76 H :    0.057620
  77 H :    0.054832
  78 H :    0.054115
  79 H :   -0.013550
  80 H :    0.042259
  81 H :    0.053243
  82 H :   -0.022847
  83 H :    0.043819
  84 H :    0.052972
  85 H :    0.058477
  86 H :    0.056797
  87 H :    0.056453
  88 H :   -0.024046
  89 H :    0.043310
Sum of atomic charges:   -0.0000000

LOEWDIN ATOMIC CHARGES
----------------------
   0 C :    0.005520
   1 N :    0.149374
   2 C :   -0.100499
   3 N :    0.177008
   4 C :    0.052610
   5 N :   -0.141467
   6 C :   -0.018152
   7 N :    0.177856
   8 C :    0.004475
   9 N :   -0.139135
  10 C :    0.030941
  11 N :    0.144215
  12 C :   -0.101398
  13 N :    0.134073
  14 C :   -0.048030
  15 N :    0.138687
  16 C :   -0.039449
  17 C :   -0.021964
  18 C :   -0.111193
  19 C :   -0.087394
  20 C :   -0.003189
  21 C :   -0.104087
  22 C :    0.042774
  23 C :   -0.023145
  24 C :    0.002076
  25 C :    0.030319
  26 C :   -0.100582
  27 C :   -0.084432
  28 C :   -0.019299
  29 C :   -0.111673
  30 C :   -0.050430
  31 C :   -0.006739
  32 C :   -0.101409
  33 C :    0.027750
  34 C :   -0.022142
  35 C :   -0.012026
  36 C :    0.027911
  37 C :   -0.103643
  38 C :   -0.039567
  39 C :   -0.027334
  40 C :   -0.110350
  41 C :   -0.091996
  42 C :   -0.002838
  43 C :   -0.106394
  44 C :    0.034385
  45 C :   -0.019819
  46 C :   -0.008825
  47 C :    0.029251
  48 C :   -0.106368
  49 C :   -0.096825
  50 C :   -0.025577
  51 C :   -0.107907
  52 H :    0.032628
  53 H :    0.005020
  54 H :    0.047021
  55 H :    0.032084
  56 H :    0.029648
  57 H :    0.032903
  58 H :    0.032768
  59 H :    0.003071
  60 H :    0.046000
  61 H :    0.061201
  62 H :    0.059726
  63 H :    0.030691
  64 H :   -0.002111
  65 H :    0.044825
  66 H :    0.030682
  67 H :    0.028169
  68 H :    0.031962
  69 H :    0.031501
  70 H :   -0.001037
  71 H :    0.045531
  72 H :    0.028322
  73 H :    0.003138
  74 H :    0.042892
  75 H :    0.027617
  76 H :    0.025864
  77 H :    0.030001
  78 H :    0.029698
  79 H :    0.004554
  80 H :    0.042461
  81 H :    0.028950
  82 H :   -0.001488
  83 H :    0.044039
  84 H :    0.028894
  85 H :    0.026297
  86 H :    0.030653
  87 H :    0.031033
  88 H :   -0.002174
  89 H :    0.043018

  Mayer bond orders larger than 0.100000
B(  0-C ,  1-N ) :   1.1345 B(  0-C , 17-C ) :   1.6115 B(  0-C , 52-H ) :   0.9691
B(  1-N ,  8-C ) :   1.1282 B(  1-N , 10-C ) :   0.9550 B(  2-C , 12-C ) :   1.5439
B(  2-C , 16-C ) :   1.3147 B(  2-C , 53-H ) :   0.9781 B(  3-N , 14-C ) :   1.1963
B(  3-N , 16-C ) :   1.1978 B(  3-N , 61-H ) :   0.8975 B(  4-C ,  6-C ) :   1.2835
B(  4-C , 17-C ) :   1.2864 B(  4-C , 18-C ) :   1.2223 B(  5-N , 19-C ) :   1.4054
B(  5-N , 27-C ) :   1.4159 B(  6-C ,  8-C ) :   1.6145 B(  6-C , 54-H ) :   0.9709
B(  7-N , 30-C ) :   1.1924 B(  7-N , 38-C ) :   1.2046 B(  7-N , 62-H ) :   0.8991
B(  8-C , 55-H ) :   0.9695 B(  9-N , 41-C ) :   1.4166 B(  9-N , 49-C ) :   1.4079
B( 10-C , 56-H ) :   0.9762 B( 10-C , 57-H ) :   0.9815 B( 10-C , 58-H ) :   0.9832
B( 11-N , 20-C ) :   1.1198 B( 11-N , 24-C ) :   1.1273 B( 11-N , 25-C ) :   0.9584
B( 12-C , 14-C ) :   1.3146 B( 12-C , 59-H ) :   0.9772 B( 13-N , 31-C ) :   1.1120
B( 13-N , 35-C ) :   1.1056 B( 13-N , 36-C ) :   0.9656 B( 14-C , 18-C ) :   1.2083
B( 15-N , 42-C ) :   1.1201 B( 15-N , 46-C ) :   1.1099 B( 15-N , 47-C ) :   0.9624
B( 16-C , 51-C ) :   1.2080 B( 17-C , 60-H ) :   0.9716 B( 18-C , 19-C ) :   1.2360
B( 19-C , 21-C ) :   1.1989 B( 20-C , 28-C ) :   1.6231 B( 20-C , 63-H ) :   0.9704
B( 21-C , 26-C ) :   1.6516 B( 21-C , 64-H ) :   0.9721 B( 22-C , 23-C ) :   1.2782
B( 22-C , 28-C ) :   1.2769 B( 22-C , 29-C ) :   1.2359 B( 23-C , 24-C ) :   1.6208
B( 23-C , 65-H ) :   0.9712 B( 24-C , 66-H ) :   0.9690 B( 25-C , 67-H ) :   0.9762
B( 25-C , 68-H ) :   0.9830 B( 25-C , 69-H ) :   0.9820 B( 26-C , 27-C ) :   1.2012
B( 26-C , 70-H ) :   0.9738 B( 27-C , 29-C ) :   1.2339 B( 28-C , 71-H ) :   0.9713
B( 29-C , 30-C ) :   1.1994 B( 30-C , 32-C ) :   1.3248 B( 31-C , 39-C ) :   1.6444
B( 31-C , 72-H ) :   0.9700 B( 32-C , 37-C ) :   1.5332 B( 32-C , 73-H ) :   0.9776
B( 33-C , 34-C ) :   1.2635 B( 33-C , 39-C ) :   1.2573 B( 33-C , 40-C ) :   1.2768
B( 34-C , 35-C ) :   1.6420 B( 34-C , 74-H ) :   0.9707 B( 35-C , 75-H ) :   0.9700
B( 36-C , 76-H ) :   0.9761 B( 36-C , 77-H ) :   0.9822 B( 36-C , 78-H ) :   0.9833
B( 37-C , 38-C ) :   1.3251 B( 37-C , 79-H ) :   0.9781 B( 38-C , 40-C ) :   1.1980
B( 39-C , 80-H ) :   0.9717 B( 40-C , 41-C ) :   1.2070 B( 41-C , 43-C ) :   1.2223
B( 42-C , 50-C ) :   1.6336 B( 42-C , 81-H ) :   0.9696 B( 43-C , 48-C ) :   1.6294
B( 43-C , 82-H ) :   0.9743 B( 44-C , 45-C ) :   1.2751 B( 44-C , 50-C ) :   1.2642
B( 44-C , 51-C ) :   1.2505 B( 45-C , 46-C ) :   1.6306 B( 45-C , 83-H ) :   0.9709
B( 46-C , 84-H ) :   0.9703 B( 47-C , 85-H ) :   0.9761 B( 47-C , 86-H ) :   0.9827
B( 47-C , 87-H ) :   0.9827 B( 48-C , 49-C ) :   1.2203 B( 48-C , 88-H ) :   0.9735
B( 49-C , 51-C ) :   1.2163 B( 50-C , 89-H ) :   0.9715

MP2 TOTAL ENERGY:    -2130.908610337 Eh
FINAL SINGLE POINT ENERGY     -2130.908610336980

DIPOLE MOMENT
-------------
                                X             Y             Z
Electronic contribution:     -1.16668       0.71684      -0.14375
Nuclear contribution   :     -0.04446       0.15569       0.18059
                        -----------------------------------------
Total Dipole Moment    :     -1.21114       0.87253       0.03684
                        -----------------------------------------
Magnitude (a.u.)       :      1.49316
Magnitude (Debye)      :      3.79530

Rotational constants in cm-1:     0.001499     0.001473     0.000762
Rotational constants in MHz :    44.931929    44.170870    22.851996

                             ****ORCA TERMINATED NORMALLY****
TOTAL RUN TIME: 0 days 1 hours 10 minutes 40 seconds 801 msec
