                         Program Version 5.0.4 -  RELEASE  -
|  1> ! PAL2
|  2> ! mp2 cc-pvdz TightSCF  NoKeepInts
|  3>
|  4> %scf
|  5>   MaxCore 2000
|  6> end
|  7> %mp2
|  8>   MaxCore 2000
|  9> end
| 10> * xyz 0 1
| 11>    C       -3.25900         6.32600         0.84400
| 12>    C        1.47400         4.04100         0.05700
| 13>    C       -2.80200         4.09300         0.04900
| 14>    C       -3.97900         4.17800        -0.71100
| 15>    C       -4.74800         5.32300        -0.67300
| 16>    C       -5.21300         7.60200         0.09000
| 17>    C        0.13200         4.30700         0.06100
| 18>    C       -0.56900         3.05600         0.04700
| 19>    C        1.64900         2.61800         0.02300
| 20>    C       -2.45300         5.20300         0.83300
| 21>    N       -4.38700         6.37500         0.09900
| 22>    N        0.38800         2.06700         0.02500
| 23>    N       -2.01000         0.39500        -0.07500
| 24>    N       -0.38800        -2.07400        -0.02700
| 25>    N        2.01000        -0.40100         0.06500
| 26>    C       -1.96000         2.86100         0.02400
| 27>    C       -2.62300         1.61500        -0.01800
| 28>    C       -5.57300        -4.32900         1.06600
| 29>    C       -4.07300         1.47100         0.05600
| 30>    C       -4.10600        -2.75600        -0.02600
| 31>    C       -4.99500        -2.75700        -1.11100
| 32>    C       -6.13200        -3.54200        -1.07600
| 33>    C       -7.65100        -5.11300         0.04000
| 34>    C       -4.32400         0.14100         0.03700
| 35>    C       -3.02500        -0.52000        -0.04800
| 36>    C       -4.42200        -3.56600         1.07500
| 37>    N       -6.40700        -4.31300         0.00100
| 38>    C       -2.86700        -1.92200        -0.04000
| 39>    C       -1.65000        -2.62400        -0.02700
| 40>    C        3.56800        -6.14200        -1.04000
| 41>    C       -1.47600        -4.04900        -0.03400
| 42>    C        2.80300        -4.09900        -0.00800
| 43>    C        3.65700        -4.38400         1.06900
| 44>    C        4.42700        -5.53000         1.05900
| 45>    C        5.24500        -7.58800         0.01400
| 46>    C       -0.13400        -4.31500        -0.02200
| 47>    C        0.56800        -3.06400        -0.02700
| 48>    C        2.77500        -5.01200        -1.07400
| 49>    N        4.37600        -6.39100         0.01700
| 50>    C        1.95900        -2.86900        -0.00900
| 51>    C        2.62100        -1.62200         0.00900
| 52>    C        5.54300         4.33900        -1.13000
| 53>    C        4.07000        -1.47900        -0.09400
| 54>    C        4.10400         2.75100        -0.02100
| 55>    C        5.02700         2.72900         1.03600
| 56>    C        6.16600         3.50900         0.97800
| 57>    C        7.61900         5.15300        -0.11500
| 58>    C        4.32100        -0.14800        -0.09200
| 59>    C        3.02500         0.51400         0.01500
| 60>    C        4.38700         3.58200        -1.11500
| 61>    C        2.86600         1.91600         0.01300
| 62>    N        6.41300         4.29600        -0.09500
| 63>    H       -3.03600         7.20000         1.44300
| 64>    H        2.27400         4.76600         0.08100
| 65>    H       -4.29600         3.35800        -1.34400
| 66>    H       -5.65800         5.43800        -1.24800
| 67>    H       -4.89700         8.23700        -0.74100
| 68>    H       -6.25900         7.32000        -0.03100
| 69>    H       -5.07400         8.12600         1.03500
| 70>    H       -0.33200         5.28200         0.06900
| 71>    H       -1.56400         5.19400         1.45300
| 72>    H        0.18200         1.07200         0.00500
| 73>    H       -0.18300        -1.08000        -0.02100
| 74>    H       -5.86400        -4.96200         1.89500
| 75>    H       -4.79400         2.27200         0.13900
| 76>    H       -4.80000        -2.16000        -1.99400
| 77>    H       -6.84100        -3.58200        -1.89300
| 78>    H       -8.42800        -4.53600         0.54600
| 79>    H       -7.95600        -5.33700        -0.98100
| 80>    H       -7.45600        -6.03700         0.58400
| 81>    H       -5.28700        -0.34400         0.10000
| 82>    H       -3.78000        -3.60100         1.94700
| 83>    H        3.58700        -6.86800        -1.84300
| 84>    H       -2.27600        -4.77400        -0.05000
| 85>    H        3.71400        -3.72400         1.92600
| 86>    H        5.09200        -5.79500         1.87100
| 87>    H        6.20500        -7.32900        -0.43900
| 88>    H        5.39300        -7.91700         1.04200
| 89>    H        4.75900        -8.37300        -0.56400
| 90>    H        0.32900        -5.29000        -0.00800
| 91>    H        2.14600        -4.84200        -1.94000
| 92>    H        5.80800         4.98600        -1.95600
| 93>    H        4.78800        -2.28100        -0.18500
| 94>    H        4.86000         2.11400         1.91200
| 95>    H        6.90100         3.53100         1.77200
| 96>    H        7.38300         6.10900         0.35600
| 97>    H        8.41400         4.65200         0.43500
| 98>    H        7.92100         5.31000        -1.15000
| 99>    H        5.28300         0.33600        -0.17900
|100>    H        3.72000         3.63200        -1.96700
|101> *
|102>
|103>                          ****END OF INPUT****

CARTESIAN COORDINATES (ANGSTROEM)
---------------------------------
  C     -3.259000    6.326000    0.844000
  C      1.474000    4.041000    0.057000
  C     -2.802000    4.093000    0.049000
  C     -3.979000    4.178000   -0.711000
  C     -4.748000    5.323000   -0.673000
  C     -5.213000    7.602000    0.090000
  C      0.132000    4.307000    0.061000
  C     -0.569000    3.056000    0.047000
  C      1.649000    2.618000    0.023000
  C     -2.453000    5.203000    0.833000
  N     -4.387000    6.375000    0.099000
  N      0.388000    2.067000    0.025000
  N     -2.010000    0.395000   -0.075000
  N     -0.388000   -2.074000   -0.027000
  N      2.010000   -0.401000    0.065000
  C     -1.960000    2.861000    0.024000
  C     -2.623000    1.615000   -0.018000
  C     -5.573000   -4.329000    1.066000
  C     -4.073000    1.471000    0.056000
  C     -4.106000   -2.756000   -0.026000
  C     -4.995000   -2.757000   -1.111000
  C     -6.132000   -3.542000   -1.076000
  C     -7.651000   -5.113000    0.040000
  C     -4.324000    0.141000    0.037000
  C     -3.025000   -0.520000   -0.048000
  C     -4.422000   -3.566000    1.075000
  N     -6.407000   -4.313000    0.001000
  C     -2.867000   -1.922000   -0.040000
  C     -1.650000   -2.624000   -0.027000
  C      3.568000   -6.142000   -1.040000
  C     -1.476000   -4.049000   -0.034000
  C      2.803000   -4.099000   -0.008000
  C      3.657000   -4.384000    1.069000
  C      4.427000   -5.530000    1.059000
  C      5.245000   -7.588000    0.014000
  C     -0.134000   -4.315000   -0.022000
  C      0.568000   -3.064000   -0.027000
  C      2.775000   -5.012000   -1.074000
  N      4.376000   -6.391000    0.017000
  C      1.959000   -2.869000   -0.009000
  C      2.621000   -1.622000    0.009000
  C      5.543000    4.339000   -1.130000
  C      4.070000   -1.479000   -0.094000
  C      4.104000    2.751000   -0.021000
  C      5.027000    2.729000    1.036000
  C      6.166000    3.509000    0.978000
  C      7.619000    5.153000   -0.115000
  C      4.321000   -0.148000   -0.092000
  C      3.025000    0.514000    0.015000
  C      4.387000    3.582000   -1.115000
  C      2.866000    1.916000    0.013000
  N      6.413000    4.296000   -0.095000
  H     -3.036000    7.200000    1.443000
  H      2.274000    4.766000    0.081000
  H     -4.296000    3.358000   -1.344000
  H     -5.658000    5.438000   -1.248000
  H     -4.897000    8.237000   -0.741000
  H     -6.259000    7.320000   -0.031000
  H     -5.074000    8.126000    1.035000
  H     -0.332000    5.282000    0.069000
  H     -1.564000    5.194000    1.453000
  H      0.182000    1.072000    0.005000
  H     -0.183000   -1.080000   -0.021000
  H     -5.864000   -4.962000    1.895000
  H     -4.794000    2.272000    0.139000
  H     -4.800000   -2.160000   -1.994000
  H     -6.841000   -3.582000   -1.893000
  H     -8.428000   -4.536000    0.546000
  H     -7.956000   -5.337000   -0.981000
  H     -7.456000   -6.037000    0.584000
  H     -5.287000   -0.344000    0.100000
  H     -3.780000   -3.601000    1.947000
  H      3.587000   -6.868000   -1.843000
  H     -2.276000   -4.774000   -0.050000
  H      3.714000   -3.724000    1.926000
  H      5.092000   -5.795000    1.871000
  H      6.205000   -7.329000   -0.439000
  H      5.393000   -7.917000    1.042000
  H      4.759000   -8.373000   -0.564000
  H      0.329000   -5.290000   -0.008000
  H      2.146000   -4.842000   -1.940000
  H      5.808000    4.986000   -1.956000
  H      4.788000   -2.281000   -0.185000
  H      4.860000    2.114000    1.912000
  H      6.901000    3.531000    1.772000
  H      7.383000    6.109000    0.356000
  H      8.414000    4.652000    0.435000
  H      7.921000    5.310000   -1.150000
  H      5.283000    0.336000   -0.179000
  H      3.720000    3.632000   -1.967000

 Total Charge           Charge          ....    0
 Multiplicity           Mult            ....    1
 Number of Electrons    NEL             ....  358
 Basis Dimension        Dim             ....  918

ORBITAL ENERGIES
----------------

  NO   OCC          E(Eh)            E(eV)
   0   2.0000     -15.666596      -426.3097
   1   2.0000     -15.638082      -425.5339
   2   2.0000     -15.628634      -425.2768
   3   2.0000     -15.595085      -424.3638
   4   2.0000     -15.524247      -422.4362
   5   2.0000     -15.515834      -422.2073
   6   2.0000     -15.450401      -420.4268
   7   2.0000     -15.443407      -420.2365
   8   2.0000     -11.319777      -308.0268
   9   2.0000     -11.318948      -308.0042
  10   2.0000     -11.316688      -307.9427
  11   2.0000     -11.301875      -307.5397
  12   2.0000     -11.296234      -307.3862
  13   2.0000     -11.295681      -307.3711
  14   2.0000     -11.291016      -307.2442
  15   2.0000     -11.287690      -307.1537
  16   2.0000     -11.284327      -307.0621
  17   2.0000     -11.276065      -306.8373
  18   2.0000     -11.269652      -306.6628
  19   2.0000     -11.260923      -306.4253
  20   2.0000     -11.258286      -306.3535
  21   2.0000     -11.254108      -306.2399
  22   2.0000     -11.253181      -306.2146
  23   2.0000     -11.241680      -305.9017
  24   2.0000     -11.234190      -305.6979
  25   2.0000     -11.233628      -305.6826
  26   2.0000     -11.233365      -305.6754
  27   2.0000     -11.227199      -305.5076
  28   2.0000     -11.226931      -305.5003
  29   2.0000     -11.209000      -305.0124
  30   2.0000     -11.207713      -304.9774
  31   2.0000     -11.205295      -304.9116
  32   2.0000     -11.200141      -304.7713
  33   2.0000     -11.199734      -304.7603
  34   2.0000     -11.189973      -304.4946
  35   2.0000     -11.189683      -304.4868
  36   2.0000     -11.185598      -304.3756
  37   2.0000     -11.182025      -304.2784
  38   2.0000     -11.181226      -304.2566
  39   2.0000     -11.174430      -304.0717
  40   2.0000     -11.170763      -303.9719
  41   2.0000     -11.168212      -303.9025
  42   2.0000     -11.167094      -303.8721
  43   2.0000     -11.163470      -303.7735
  44   2.0000     -11.162267      -303.7407
  45   2.0000     -11.160295      -303.6871
  46   2.0000     -11.155075      -303.5450
  47   2.0000     -11.150653      -303.4247
  48   2.0000     -11.148474      -303.3654
  49   2.0000     -11.143076      -303.2185
  50   2.0000     -11.135703      -303.0179
  51   2.0000     -11.129178      -302.8403
  52   2.0000      -1.349149       -36.7122
  53   2.0000      -1.324769       -36.0488
  54   2.0000      -1.316774       -35.8312
  55   2.0000      -1.288823       -35.0707
  56   2.0000      -1.224552       -33.3218
  57   2.0000      -1.210552       -32.9408
  58   2.0000      -1.168560       -31.7981
  59   2.0000      -1.154341       -31.4112
  60   2.0000      -1.134156       -30.8620
  61   2.0000      -1.113163       -30.2907
  62   2.0000      -1.106452       -30.1081
  63   2.0000      -1.084283       -29.5048
  64   2.0000      -1.071647       -29.1610
  65   2.0000      -1.048792       -28.5391
  66   2.0000      -1.041523       -28.3413
  67   2.0000      -1.035094       -28.1663
  68   2.0000      -1.016742       -27.6670
  69   2.0000      -1.014362       -27.6022
  70   2.0000      -1.009454       -27.4686
  71   2.0000      -0.992654       -27.0115
  72   2.0000      -0.987530       -26.8721
  73   2.0000      -0.977830       -26.6081
  74   2.0000      -0.972389       -26.4601
  75   2.0000      -0.959369       -26.1058
  76   2.0000      -0.951288       -25.8859
  77   2.0000      -0.947295       -25.7772
  78   2.0000      -0.936082       -25.4721
  79   2.0000      -0.920668       -25.0526
  80   2.0000      -0.901698       -24.5365
  81   2.0000      -0.891602       -24.2617
  82   2.0000      -0.875898       -23.8344
  83   2.0000      -0.870570       -23.6894
  84   2.0000      -0.866097       -23.5677
  85   2.0000      -0.855192       -23.2710
  86   2.0000      -0.842224       -22.9181
  87   2.0000      -0.837894       -22.8002
  88   2.0000      -0.822570       -22.3833
  89   2.0000      -0.798568       -21.7301
  90   2.0000      -0.793697       -21.5976
  91   2.0000      -0.746352       -20.3093
  92   2.0000      -0.738187       -20.0871
  93   2.0000      -0.732423       -19.9303
  94   2.0000      -0.723679       -19.6923
  95   2.0000      -0.719906       -19.5896
  96   2.0000      -0.714179       -19.4338
  97   2.0000      -0.706780       -19.2325
  98   2.0000      -0.702995       -19.1295
  99   2.0000      -0.696338       -18.9483
 100   2.0000      -0.694877       -18.9086
 101   2.0000      -0.682221       -18.5642
 102   2.0000      -0.679519       -18.4907
 103   2.0000      -0.675622       -18.3846
 104   2.0000      -0.674870       -18.3641
 105   2.0000      -0.670937       -18.2571
 106   2.0000      -0.665789       -18.1170
 107   2.0000      -0.662593       -18.0301
 108   2.0000      -0.656182       -17.8556
 109   2.0000      -0.653531       -17.7835
 110   2.0000      -0.649289       -17.6681
 111   2.0000      -0.644732       -17.5440
 112   2.0000      -0.642389       -17.4803
 113   2.0000      -0.636741       -17.3266
 114   2.0000      -0.636485       -17.3196
 115   2.0000      -0.627940       -17.0871
 116   2.0000      -0.624151       -16.9840
 117   2.0000      -0.615797       -16.7567
 118   2.0000      -0.615034       -16.7359
 119   2.0000      -0.612613       -16.6700
 120   2.0000      -0.608882       -16.5685
 121   2.0000      -0.603139       -16.4122
 122   2.0000      -0.600187       -16.3319
 123   2.0000      -0.587529       -15.9875
 124   2.0000      -0.585134       -15.9223
 125   2.0000      -0.583530       -15.8787
 126   2.0000      -0.578659       -15.7461
 127   2.0000      -0.577735       -15.7210
 128   2.0000      -0.563861       -15.3434
 129   2.0000      -0.558438       -15.1959
 130   2.0000      -0.552929       -15.0460
 131   2.0000      -0.548602       -14.9282
 132   2.0000      -0.542780       -14.7698
 133   2.0000      -0.539249       -14.6737
 134   2.0000      -0.536849       -14.6084
 135   2.0000      -0.534158       -14.5352
 136   2.0000      -0.525117       -14.2892
 137   2.0000      -0.524236       -14.2652
 138   2.0000      -0.517961       -14.0944
 139   2.0000      -0.513751       -13.9799
 140   2.0000      -0.511327       -13.9139
 141   2.0000      -0.510049       -13.8792
 142   2.0000      -0.509494       -13.8640
 143   2.0000      -0.502843       -13.6831
 144   2.0000      -0.500626       -13.6227
 145   2.0000      -0.496884       -13.5209
 146   2.0000      -0.494187       -13.4475
 147   2.0000      -0.485484       -13.2107
 148   2.0000      -0.482614       -13.1326
 149   2.0000      -0.468144       -12.7388
 150   2.0000      -0.464559       -12.6413
 151   2.0000      -0.456623       -12.4254
 152   2.0000      -0.448959       -12.2168
 153   2.0000      -0.446629       -12.1534
 154   2.0000      -0.444469       -12.0946
 155   2.0000      -0.440230       -11.9793
 156   2.0000      -0.431453       -11.7404
 157   2.0000      -0.427096       -11.6219
 158   2.0000      -0.401869       -10.9354
 159   2.0000      -0.385930       -10.5017
 160   2.0000      -0.379398       -10.3239
 161   2.0000      -0.378264       -10.2931
 162   2.0000      -0.370794       -10.0898
 163   2.0000      -0.359437        -9.7808
 164   2.0000      -0.353437        -9.6175
 165   2.0000      -0.338154        -9.2016
 166   2.0000      -0.337443        -9.1823
 167   2.0000      -0.329618        -8.9694
 168   2.0000      -0.327991        -8.9251
 169   2.0000      -0.303233        -8.2514
 170   2.0000      -0.299667        -8.1544
 171   2.0000      -0.286694        -7.8013
 172   2.0000      -0.283754        -7.7213
 173   2.0000      -0.260297        -7.0830
 174   2.0000      -0.245067        -6.6686
 175   2.0000      -0.189620        -5.1598
 176   2.0000      -0.179875        -4.8946
 177   2.0000      -0.073119        -1.9897
 178   2.0000      -0.057531        -1.5655
 179   0.0000       0.028847         0.7850
 180   0.0000       0.067389         1.8337
 181   0.0000       0.092020         2.5040
 182   0.0000       0.106428         2.8961
 183   0.0000       0.114953         3.1280

MULLIKEN ATOMIC CHARGES
-----------------------
   0 C :    0.207802
   1 N :   -0.453636
   2 C :   -0.064554
   3 N :   -0.336160
   4 C :   -0.053962
   5 N :   -0.560672
   6 C :   -0.105017
   7 N :   -0.339882
   8 C :    0.203158
   9 N :   -0.562697
  10 C :    0.118476
  11 N :   -0.437641
  12 C :   -0.080275
  13 N :   -0.432530
  14 C :    0.228371
  15 N :   -0.441406
  16 C :    0.229873
  17 C :   -0.113155
  18 C :   -0.176007
  19 C :    0.214422
  20 C :    0.213338
  21 C :   -0.091953
  22 C :   -0.088397
  23 C :   -0.042228
  24 C :    0.198117
  25 C :    0.114042
  26 C :   -0.074400
  27 C :    0.213023
  28 C :   -0.058768
  29 C :   -0.180918
  30 C :    0.242855
  31 C :    0.225601
  32 C :   -0.062110
  33 C :   -0.066780
  34 C :   -0.049627
  35 C :    0.220076
  36 C :    0.109979
  37 C :   -0.064961
  38 C :    0.233935
  39 C :   -0.059725
  40 C :   -0.182725
  41 C :    0.223123
  42 C :    0.198160
  43 C :   -0.072985
  44 C :   -0.090903
  45 C :   -0.059320
  46 C :    0.208189
  47 C :    0.115710
  48 C :   -0.069568
  49 C :    0.234913
  50 C :   -0.048160
  51 C :   -0.192699
  52 H :    0.042631
  53 H :   -0.016034
  54 H :    0.050569
  55 H :    0.040666
  56 H :    0.049883
  57 H :    0.049556
  58 H :    0.048436
  59 H :   -0.000478
  60 H :    0.049287
  61 H :    0.171240
  62 H :    0.175005
  63 H :    0.056726
  64 H :   -0.005948
  65 H :    0.046937
  66 H :    0.056902
  67 H :    0.063435
  68 H :    0.057940
  69 H :    0.057677
  70 H :   -0.027506
  71 H :    0.046708
  72 H :    0.067078
  73 H :   -0.009523
  74 H :    0.056518
  75 H :    0.066268
  76 H :    0.071231
  77 H :    0.065140
  78 H :    0.064294
  79 H :   -0.015248
  80 H :    0.057040
  81 H :    0.053613
  82 H :   -0.024936
  83 H :    0.041293
  84 H :    0.053058
  85 H :    0.059695
  86 H :    0.055227
  87 H :    0.056680
  88 H :   -0.016509
  89 H :    0.046109
Sum of atomic charges:   -0.0000000

LOEWDIN ATOMIC CHARGES
----------------------
   0 C :   -0.017799
   1 N :    0.117398
   2 C :   -0.101474
   3 N :    0.182661
   4 C :   -0.001503
   5 N :   -0.131224
   6 C :   -0.033929
   7 N :    0.176054
   8 C :   -0.022934
   9 N :   -0.140063
  10 C :    0.024211
  11 N :    0.144052
  12 C :   -0.107696
  13 N :    0.159034
  14 C :   -0.035237
  15 N :    0.137530
  16 C :   -0.055998
  17 C :   -0.041147
  18 C :   -0.101021
  19 C :   -0.085516
  20 C :    0.005068
  21 C :   -0.112553
  22 C :    0.040286
  23 C :   -0.016016
  24 C :   -0.008217
  25 C :    0.030318
  26 C :   -0.107016
  27 C :   -0.112058
  28 C :   -0.025074
  29 C :   -0.100219
  30 C :   -0.035378
  31 C :    0.018578
  32 C :   -0.094578
  33 C :    0.069647
  34 C :   -0.015686
  35 C :    0.013970
  36 C :    0.033615
  37 C :   -0.096064
  38 C :   -0.047277
  39 C :   -0.020369
  40 C :   -0.108060
  41 C :   -0.094097
  42 C :   -0.010002
  43 C :   -0.101271
  44 C :    0.031334
  45 C :   -0.027125
  46 C :   -0.001401
  47 C :    0.029174
  48 C :   -0.098466
  49 C :   -0.074801
  50 C :   -0.020190
  51 C :   -0.109733
  52 H :    0.024571
  53 H :    0.003361
  54 H :    0.041642
  55 H :    0.024306
  56 H :    0.021969
  57 H :    0.027151
  58 H :    0.027515
  59 H :    0.008897
  60 H :    0.040483
  61 H :    0.060015
  62 H :    0.061601
  63 H :    0.031328
  64 H :    0.004603
  65 H :    0.045709
  66 H :    0.029936
  67 H :    0.028746
  68 H :    0.031952
  69 H :    0.030893
  70 H :   -0.003587
  71 H :    0.044436
  72 H :    0.035761
  73 H :    0.006383
  74 H :    0.049115
  75 H :    0.035172
  76 H :    0.032875
  77 H :    0.034839
  78 H :    0.034470
  79 H :    0.003616
  80 H :    0.048817
  81 H :    0.028794
  82 H :   -0.002718
  83 H :    0.042358
  84 H :    0.029282
  85 H :    0.026812
  86 H :    0.030007
  87 H :    0.031154
  88 H :    0.001422
  89 H :    0.044574

  Mayer bond orders larger than 0.100000
B(  0-C ,  1-N ) :   1.0956 B(  0-C , 17-C ) :   1.6940 B(  0-C , 52-H ) :   0.9677
B(  1-N ,  8-C ) :   1.0856 B(  1-N , 10-C ) :   0.9761 B(  2-C , 12-C ) :   1.5164
B(  2-C , 16-C ) :   1.3474 B(  2-C , 53-H ) :   0.9765 B(  3-N , 14-C ) :   1.2157
B(  3-N , 16-C ) :   1.1928 B(  3-N , 61-H ) :   0.8994 B(  4-C ,  6-C ) :   1.2171
B(  4-C , 17-C ) :   1.2169 B(  4-C , 18-C ) :   1.4038 B(  5-N , 19-C ) :   1.4473
B(  5-N , 27-C ) :   1.3842 B(  6-C ,  8-C ) :   1.6984 B(  6-C , 54-H ) :   0.9640
B(  7-N , 30-C ) :   1.1937 B(  7-N , 38-C ) :   1.1944 B(  7-N , 62-H ) :   0.8970
B(  8-C , 55-H ) :   0.9690 B(  9-N , 41-C ) :   1.3952 B(  9-N , 49-C ) :   1.4261
B( 10-C , 56-H ) :   0.9766 B( 10-C , 57-H ) :   0.9830 B( 10-C , 58-H ) :   0.9834
B( 11-N , 20-C ) :   1.1312 B( 11-N , 24-C ) :   1.1133 B( 11-N , 25-C ) :   0.9586
B( 12-C , 14-C ) :   1.3497 B( 12-C , 59-H ) :   0.9747 B( 13-N , 31-C ) :   1.1514
B( 13-N , 35-C ) :   1.1455 B( 13-N , 36-C ) :   0.9468 B( 14-C , 18-C ) :   1.1446
B( 15-N , 42-C ) :   1.1082 B( 15-N , 46-C ) :   1.1197 B( 15-N , 47-C ) :   0.9624
B( 16-C , 51-C ) :   1.1779 B( 17-C , 60-H ) :   0.9644 B( 18-C , 19-C ) :   1.1495
B( 19-C , 21-C ) :   1.2362 B( 20-C , 28-C ) :   1.6248 B( 20-C , 63-H ) :   0.9701
B( 21-C , 26-C ) :   1.6222 B( 21-C , 64-H ) :   0.9714 B( 22-C , 23-C ) :   1.2902
B( 22-C , 28-C ) :   1.2690 B( 22-C , 29-C ) :   1.2206 B( 23-C , 24-C ) :   1.6169
B( 23-C , 65-H ) :   0.9705 B( 24-C , 66-H ) :   0.9694 B( 25-C , 67-H ) :   0.9761
B( 25-C , 68-H ) :   0.9828 B( 25-C , 69-H ) :   0.9822 B( 26-C , 27-C ) :   1.2310
B( 26-C , 70-H ) :   0.9713 B( 27-C , 29-C ) :   1.2180 B( 28-C , 71-H ) :   0.9718
B( 29-C , 30-C ) :   1.2365 B( 30-C , 32-C ) :   1.2875 B( 31-C , 39-C ) :   1.6007
B( 31-C , 72-H ) :   0.9686 B( 32-C , 37-C ) :   1.5717 B( 32-C , 73-H ) :   0.9783
B( 33-C , 34-C ) :   1.2992 B( 33-C , 39-C ) :   1.2924 B( 33-C , 40-C ) :   1.1955
B( 34-C , 35-C ) :   1.5972 B( 34-C , 74-H ) :   0.9698 B( 35-C , 75-H ) :   0.9686
B( 36-C , 76-H ) :   0.9766 B( 36-C , 77-H ) :   0.9817 B( 36-C , 78-H ) :   0.9826
B( 37-C , 38-C ) :   1.2910 B( 37-C , 79-H ) :   0.9770 B( 38-C , 40-C ) :   1.2277
B( 39-C , 80-H ) :   0.9709 B( 40-C , 41-C ) :   1.2413 B( 41-C , 43-C ) :   1.1950
B( 42-C , 50-C ) :   1.6357 B( 42-C , 81-H ) :   0.9697 B( 43-C , 48-C ) :   1.6567
B( 43-C , 82-H ) :   0.9725 B( 44-C , 45-C ) :   1.2634 B( 44-C , 50-C ) :   1.2688
B( 44-C , 51-C ) :   1.2638 B( 45-C , 46-C ) :   1.6364 B( 45-C , 83-H ) :   0.9717
B( 46-C , 84-H ) :   0.9701 B( 47-C , 85-H ) :   0.9762 B( 47-C , 86-H ) :   0.9829
B( 47-C , 87-H ) :   0.9825 B( 48-C , 49-C ) :   1.1980 B( 48-C , 88-H ) :   0.9747
B( 49-C , 51-C ) :   1.2321 B( 50-C , 89-H ) :   0.9710

MP2 TOTAL ENERGY:    -2130.909144777 Eh
FINAL SINGLE POINT ENERGY     -2130.909144776947

DIPOLE MOMENT
-------------
                                X             Y             Z
Electronic contribution:      1.72739      -3.50924      -0.06089
Nuclear contribution   :      0.00186       0.18922       0.07095
                        -----------------------------------------
Total Dipole Moment    :      1.72925      -3.32002       0.01007
                        -----------------------------------------
Magnitude (a.u.)       :      3.74339
Magnitude (Debye)      :      9.51494

Rotational constants in cm-1:     0.001501     0.001475     0.000761
Rotational constants in MHz :    45.008626    44.228076    22.816763

                             ****ORCA TERMINATED NORMALLY****
TOTAL RUN TIME: 0 days 1 hours 6 minutes 29 seconds 886 msec
