                         Program Version 5.0.4 -  RELEASE  -
|  1> ! PAL2
|  2> ! mp2 cc-pvdz TightSCF  NoKeepInts
|  3>
|  4> %scf
|  5>   MaxCore 2000
|  6> end
|  7> %mp2
|  8>   MaxCore 2000
|  9> end
| 10> * xyz 0 1
| 11>    C       -4.53400         5.45000         1.04000
| 12>    C        1.47400         4.04100         0.05700
| 13>    C       -2.80200         4.09300         0.04900
| 14>    C       -2.66200         5.08200        -0.93700
| 15>    C       -3.45300         6.21300        -0.90100
| 16>    C       -5.18000         7.62500         0.10600
| 17>    C        0.13200         4.30700         0.06100
| 18>    C       -0.56900         3.05600         0.04700
| 19>    C        1.64900         2.61800         0.02300
| 20>    C       -3.76300         4.30400         1.05000
| 21>    N       -4.37500         6.38400         0.07500
| 22>    N        0.38800         2.06700         0.02500
| 23>    N       -2.01000         0.39500        -0.07500
| 24>    N       -0.38800        -2.07400        -0.02700
| 25>    N        2.01000        -0.40100         0.06500
| 26>    C       -1.96000         2.86100         0.02400
| 27>    C       -2.62300         1.61500        -0.01800
| 28>    C       -5.57300        -4.32900         1.06600
| 29>    C       -4.07300         1.47100         0.05600
| 30>    C       -4.10600        -2.75600        -0.02600
| 31>    C       -4.99500        -2.75700        -1.11100
| 32>    C       -6.13200        -3.54200        -1.07600
| 33>    C       -7.65100        -5.11300         0.04000
| 34>    C       -4.32400         0.14100         0.03700
| 35>    C       -3.02500        -0.52000        -0.04800
| 36>    C       -4.42200        -3.56600         1.07500
| 37>    N       -6.40700        -4.31300         0.00100
| 38>    C       -2.86700        -1.92200        -0.04000
| 39>    C       -1.65000        -2.62400        -0.02700
| 40>    C        3.56800        -6.14200        -1.04000
| 41>    C       -1.47600        -4.04900        -0.03400
| 42>    C        2.80300        -4.09900        -0.00800
| 43>    C        3.65700        -4.38400         1.06900
| 44>    C        4.42700        -5.53000         1.05900
| 45>    C        5.24500        -7.58800         0.01400
| 46>    C       -0.13400        -4.31500        -0.02200
| 47>    C        0.56800        -3.06400        -0.02700
| 48>    C        2.77500        -5.01200        -1.07400
| 49>    N        4.37600        -6.39100         0.01700
| 50>    C        1.95900        -2.86900        -0.00900
| 51>    C        2.62100        -1.62200         0.00900
| 52>    C        5.54300         4.33900        -1.13000
| 53>    C        4.07000        -1.47900        -0.09400
| 54>    C        4.10400         2.75100        -0.02100
| 55>    C        5.02700         2.72900         1.03600
| 56>    C        6.16600         3.50900         0.97800
| 57>    C        7.61900         5.15300        -0.11500
| 58>    C        4.32100        -0.14800        -0.09200
| 59>    C        3.02500         0.51400         0.01500
| 60>    C        4.38700         3.58200        -1.11500
| 61>    C        2.86600         1.91600         0.01300
| 62>    N        6.41300         4.29600        -0.09500
| 63>    H       -5.29500         5.64900         1.78500
| 64>    H        2.27400         4.76600         0.08100
| 65>    H       -1.93100         4.98100        -1.73000
| 66>    H       -3.37500         7.00600        -1.63400
| 67>    H       -4.62300         8.39700         0.64200
| 68>    H       -5.37400         7.94400        -0.91800
| 69>    H       -6.12100         7.41900         0.61700
| 70>    H       -0.33200         5.28200         0.06900
| 71>    H       -3.92800         3.57100         1.83100
| 72>    H        0.18200         1.07200         0.00500
| 73>    H       -0.18300        -1.08000        -0.02100
| 74>    H       -5.86400        -4.96200         1.89500
| 75>    H       -4.79400         2.27200         0.13900
| 76>    H       -4.80000        -2.16000        -1.99400
| 77>    H       -6.84100        -3.58200        -1.89300
| 78>    H       -8.42800        -4.53600         0.54600
| 79>    H       -7.95600        -5.33700        -0.98100
| 80>    H       -7.45600        -6.03700         0.58400
| 81>    H       -5.28700        -0.34400         0.10000
| 82>    H       -3.78000        -3.60100         1.94700
| 83>    H        3.58700        -6.86800        -1.84300
| 84>    H       -2.27600        -4.77400        -0.05000
| 85>    H        3.71400        -3.72400         1.92600
| 86>    H        5.09200        -5.79500         1.87100
| 87>    H        6.20500        -7.32900        -0.43900
| 88>    H        5.39300        -7.91700         1.04200
| 89>    H        4.75900        -8.37300        -0.56400
| 90>    H        0.32900        -5.29000        -0.00800
| 91>    H        2.14600        -4.84200        -1.94000
| 92>    H        5.80800         4.98600        -1.95600
| 93>    H        4.78800        -2.28100        -0.18500
| 94>    H        4.86000         2.11400         1.91200
| 95>    H        6.90100         3.53100         1.77200
| 96>    H        7.38300         6.10900         0.35600
| 97>    H        8.41400         4.65200         0.43500
| 98>    H        7.92100         5.31000        -1.15000
| 99>    H        5.28300         0.33600        -0.17900
|100>    H        3.72000         3.63200        -1.96700
|101> *
|102>
|103>                          ****END OF INPUT****

CARTESIAN COORDINATES (ANGSTROEM)
---------------------------------
  C     -4.534000    5.450000    1.040000
  C      1.474000    4.041000    0.057000
  C     -2.802000    4.093000    0.049000
  C     -2.662000    5.082000   -0.937000
  C     -3.453000    6.213000   -0.901000
  C     -5.180000    7.625000    0.106000
  C      0.132000    4.307000    0.061000
  C     -0.569000    3.056000    0.047000
  C      1.649000    2.618000    0.023000
  C     -3.763000    4.304000    1.050000
  N     -4.375000    6.384000    0.075000
  N      0.388000    2.067000    0.025000
  N     -2.010000    0.395000   -0.075000
  N     -0.388000   -2.074000   -0.027000
  N      2.010000   -0.401000    0.065000
  C     -1.960000    2.861000    0.024000
  C     -2.623000    1.615000   -0.018000
  C     -5.573000   -4.329000    1.066000
  C     -4.073000    1.471000    0.056000
  C     -4.106000   -2.756000   -0.026000
  C     -4.995000   -2.757000   -1.111000
  C     -6.132000   -3.542000   -1.076000
  C     -7.651000   -5.113000    0.040000
  C     -4.324000    0.141000    0.037000
  C     -3.025000   -0.520000   -0.048000
  C     -4.422000   -3.566000    1.075000
  N     -6.407000   -4.313000    0.001000
  C     -2.867000   -1.922000   -0.040000
  C     -1.650000   -2.624000   -0.027000
  C      3.568000   -6.142000   -1.040000
  C     -1.476000   -4.049000   -0.034000
  C      2.803000   -4.099000   -0.008000
  C      3.657000   -4.384000    1.069000
  C      4.427000   -5.530000    1.059000
  C      5.245000   -7.588000    0.014000
  C     -0.134000   -4.315000   -0.022000
  C      0.568000   -3.064000   -0.027000
  C      2.775000   -5.012000   -1.074000
  N      4.376000   -6.391000    0.017000
  C      1.959000   -2.869000   -0.009000
  C      2.621000   -1.622000    0.009000
  C      5.543000    4.339000   -1.130000
  C      4.070000   -1.479000   -0.094000
  C      4.104000    2.751000   -0.021000
  C      5.027000    2.729000    1.036000
  C      6.166000    3.509000    0.978000
  C      7.619000    5.153000   -0.115000
  C      4.321000   -0.148000   -0.092000
  C      3.025000    0.514000    0.015000
  C      4.387000    3.582000   -1.115000
  C      2.866000    1.916000    0.013000
  N      6.413000    4.296000   -0.095000
  H     -5.295000    5.649000    1.785000
  H      2.274000    4.766000    0.081000
  H     -1.931000    4.981000   -1.730000
  H     -3.375000    7.006000   -1.634000
  H     -4.623000    8.397000    0.642000
  H     -5.374000    7.944000   -0.918000
  H     -6.121000    7.419000    0.617000
  H     -0.332000    5.282000    0.069000
  H     -3.928000    3.571000    1.831000
  H      0.182000    1.072000    0.005000
  H     -0.183000   -1.080000   -0.021000
  H     -5.864000   -4.962000    1.895000
  H     -4.794000    2.272000    0.139000
  H     -4.800000   -2.160000   -1.994000
  H     -6.841000   -3.582000   -1.893000
  H     -8.428000   -4.536000    0.546000
  H     -7.956000   -5.337000   -0.981000
  H     -7.456000   -6.037000    0.584000
  H     -5.287000   -0.344000    0.100000
  H     -3.780000   -3.601000    1.947000
  H      3.587000   -6.868000   -1.843000
  H     -2.276000   -4.774000   -0.050000
  H      3.714000   -3.724000    1.926000
  H      5.092000   -5.795000    1.871000
  H      6.205000   -7.329000   -0.439000
  H      5.393000   -7.917000    1.042000
  H      4.759000   -8.373000   -0.564000
  H      0.329000   -5.290000   -0.008000
  H      2.146000   -4.842000   -1.940000
  H      5.808000    4.986000   -1.956000
  H      4.788000   -2.281000   -0.185000
  H      4.860000    2.114000    1.912000
  H      6.901000    3.531000    1.772000
  H      7.383000    6.109000    0.356000
  H      8.414000    4.652000    0.435000
  H      7.921000    5.310000   -1.150000
  H      5.283000    0.336000   -0.179000
  H      3.720000    3.632000   -1.967000

 Total Charge           Charge          ....    0
 Multiplicity           Mult            ....    1
 Number of Electrons    NEL             ....  358
 Basis Dimension        Dim             ....  918

ORBITAL ENERGIES
----------------

  NO   OCC          E(Eh)            E(eV)
   0   2.0000     -15.639957      -425.5849
   1   2.0000     -15.638698      -425.5506
   2   2.0000     -15.629082      -425.2889
   3   2.0000     -15.623846      -425.1465
   4   2.0000     -15.518893      -422.2905
   5   2.0000     -15.516441      -422.2238
   6   2.0000     -15.444308      -420.2610
   7   2.0000     -15.444026      -420.2533
   8   2.0000     -11.303200      -307.5757
   9   2.0000     -11.302185      -307.5481
  10   2.0000     -11.296498      -307.3933
  11   2.0000     -11.296272      -307.3872
  12   2.0000     -11.294434      -307.3372
  13   2.0000     -11.294158      -307.3297
  14   2.0000     -11.293690      -307.3169
  15   2.0000     -11.293088      -307.3006
  16   2.0000     -11.286102      -307.1104
  17   2.0000     -11.285957      -307.1065
  18   2.0000     -11.283205      -307.0316
  19   2.0000     -11.282115      -307.0019
  20   2.0000     -11.244350      -305.9743
  21   2.0000     -11.241951      -305.9090
  22   2.0000     -11.234949      -305.7185
  23   2.0000     -11.234077      -305.6948
  24   2.0000     -11.234070      -305.6946
  25   2.0000     -11.233508      -305.6793
  26   2.0000     -11.233295      -305.6735
  27   2.0000     -11.230275      -305.5913
  28   2.0000     -11.227112      -305.5053
  29   2.0000     -11.226929      -305.5003
  30   2.0000     -11.223708      -305.4126
  31   2.0000     -11.222419      -305.3775
  32   2.0000     -11.200152      -304.7716
  33   2.0000     -11.199869      -304.7639
  34   2.0000     -11.194634      -304.6215
  35   2.0000     -11.194194      -304.6095
  36   2.0000     -11.172735      -304.0256
  37   2.0000     -11.172061      -304.0072
  38   2.0000     -11.171681      -303.9969
  39   2.0000     -11.171651      -303.9961
  40   2.0000     -11.170903      -303.9757
  41   2.0000     -11.169666      -303.9421
  42   2.0000     -11.167202      -303.8750
  43   2.0000     -11.167081      -303.8717
  44   2.0000     -11.159693      -303.6707
  45   2.0000     -11.158348      -303.6341
  46   2.0000     -11.153042      -303.4897
  47   2.0000     -11.151457      -303.4466
  48   2.0000     -11.143986      -303.2433
  49   2.0000     -11.142587      -303.2052
  50   2.0000     -11.142097      -303.1919
  51   2.0000     -11.139635      -303.1249
  52   2.0000      -1.326380       -36.0926
  53   2.0000      -1.325200       -36.0605
  54   2.0000      -1.316932       -35.8355
  55   2.0000      -1.313053       -35.7300
  56   2.0000      -1.217574       -33.1319
  57   2.0000      -1.213095       -33.0100
  58   2.0000      -1.161844       -31.6154
  59   2.0000      -1.157316       -31.4922
  60   2.0000      -1.115530       -30.3551
  61   2.0000      -1.112660       -30.2770
  62   2.0000      -1.106039       -30.0968
  63   2.0000      -1.102737       -30.0070
  64   2.0000      -1.050379       -28.5823
  65   2.0000      -1.049015       -28.5451
  66   2.0000      -1.041543       -28.3418
  67   2.0000      -1.038359       -28.2552
  68   2.0000      -1.026591       -27.9350
  69   2.0000      -1.009714       -27.4757
  70   2.0000      -1.009409       -27.4674
  71   2.0000      -0.998362       -27.1668
  72   2.0000      -0.981620       -26.7112
  73   2.0000      -0.976254       -26.5652
  74   2.0000      -0.968566       -26.3560
  75   2.0000      -0.960787       -26.1443
  76   2.0000      -0.952525       -25.9195
  77   2.0000      -0.942896       -25.6575
  78   2.0000      -0.941036       -25.6069
  79   2.0000      -0.923563       -25.1314
  80   2.0000      -0.893181       -24.3047
  81   2.0000      -0.877563       -23.8797
  82   2.0000      -0.875622       -23.8269
  83   2.0000      -0.869107       -23.6496
  84   2.0000      -0.865541       -23.5526
  85   2.0000      -0.857030       -23.3210
  86   2.0000      -0.847376       -23.0583
  87   2.0000      -0.845049       -22.9950
  88   2.0000      -0.821844       -22.3635
  89   2.0000      -0.798556       -21.7298
  90   2.0000      -0.797980       -21.7141
  91   2.0000      -0.739364       -20.1191
  92   2.0000      -0.729046       -19.8383
  93   2.0000      -0.728756       -19.8305
  94   2.0000      -0.721068       -19.6213
  95   2.0000      -0.720291       -19.6001
  96   2.0000      -0.712174       -19.3792
  97   2.0000      -0.710199       -19.3255
  98   2.0000      -0.698701       -19.0126
  99   2.0000      -0.692223       -18.8363
 100   2.0000      -0.683679       -18.6038
 101   2.0000      -0.680470       -18.5165
 102   2.0000      -0.679201       -18.4820
 103   2.0000      -0.673933       -18.3386
 104   2.0000      -0.668129       -18.1807
 105   2.0000      -0.667574       -18.1656
 106   2.0000      -0.662756       -18.0345
 107   2.0000      -0.658630       -17.9222
 108   2.0000      -0.657382       -17.8883
 109   2.0000      -0.654250       -17.8030
 110   2.0000      -0.652361       -17.7516
 111   2.0000      -0.651624       -17.7316
 112   2.0000      -0.648477       -17.6460
 113   2.0000      -0.645744       -17.5716
 114   2.0000      -0.634986       -17.2789
 115   2.0000      -0.623868       -16.9763
 116   2.0000      -0.617044       -16.7906
 117   2.0000      -0.615854       -16.7582
 118   2.0000      -0.611160       -16.6305
 119   2.0000      -0.608778       -16.5657
 120   2.0000      -0.608248       -16.5513
 121   2.0000      -0.605782       -16.4842
 122   2.0000      -0.602554       -16.3963
 123   2.0000      -0.594046       -16.1648
 124   2.0000      -0.585801       -15.9404
 125   2.0000      -0.584570       -15.9070
 126   2.0000      -0.578635       -15.7455
 127   2.0000      -0.575399       -15.6574
 128   2.0000      -0.570578       -15.5262
 129   2.0000      -0.562044       -15.2940
 130   2.0000      -0.553813       -15.0700
 131   2.0000      -0.542321       -14.7573
 132   2.0000      -0.540659       -14.7121
 133   2.0000      -0.535376       -14.5683
 134   2.0000      -0.534158       -14.5352
 135   2.0000      -0.531275       -14.4567
 136   2.0000      -0.524437       -14.2707
 137   2.0000      -0.523856       -14.2549
 138   2.0000      -0.516729       -14.0609
 139   2.0000      -0.516335       -14.0502
 140   2.0000      -0.510663       -13.8958
 141   2.0000      -0.505977       -13.7683
 142   2.0000      -0.503661       -13.7053
 143   2.0000      -0.502853       -13.6833
 144   2.0000      -0.498968       -13.5776
 145   2.0000      -0.498514       -13.5653
 146   2.0000      -0.497515       -13.5381
 147   2.0000      -0.493336       -13.4243
 148   2.0000      -0.491505       -13.3745
 149   2.0000      -0.469210       -12.7678
 150   2.0000      -0.460342       -12.5265
 151   2.0000      -0.451481       -12.2854
 152   2.0000      -0.448346       -12.2001
 153   2.0000      -0.446515       -12.1503
 154   2.0000      -0.444968       -12.1082
 155   2.0000      -0.439792       -11.9674
 156   2.0000      -0.435256       -11.8439
 157   2.0000      -0.432222       -11.7613
 158   2.0000      -0.391927       -10.6649
 159   2.0000      -0.382362       -10.4046
 160   2.0000      -0.377340       -10.2679
 161   2.0000      -0.374138       -10.1808
 162   2.0000      -0.360737        -9.8162
 163   2.0000      -0.359423        -9.7804
 164   2.0000      -0.353202        -9.6111
 165   2.0000      -0.349690        -9.5155
 166   2.0000      -0.337175        -9.1750
 167   2.0000      -0.332216        -9.0401
 168   2.0000      -0.329512        -8.9665
 169   2.0000      -0.300341        -8.1727
 170   2.0000      -0.294865        -8.0237
 171   2.0000      -0.289574        -7.8797
 172   2.0000      -0.287535        -7.8242
 173   2.0000      -0.255315        -6.9475
 174   2.0000      -0.248518        -6.7625
 175   2.0000      -0.188138        -5.1195
 176   2.0000      -0.178047        -4.8449
 177   2.0000      -0.066778        -1.8171
 178   2.0000      -0.054333        -1.4785
 179   0.0000       0.030984         0.8431
 180   0.0000       0.070816         1.9270
 181   0.0000       0.092766         2.5243
 182   0.0000       0.097071         2.6414
 183   0.0000       0.133646         3.6367

MULLIKEN ATOMIC CHARGES
-----------------------
   0 C :    0.209927
   1 N :   -0.443820
   2 C :   -0.063884
   3 N :   -0.337188
   4 C :   -0.062231
   5 N :   -0.563449
   6 C :   -0.070004
   7 N :   -0.338100
   8 C :    0.204144
   9 N :   -0.563322
  10 C :    0.114703
  11 N :   -0.437367
  12 C :   -0.073377
  13 N :   -0.438677
  14 C :    0.243282
  15 N :   -0.440762
  16 C :    0.233300
  17 C :   -0.077433
  18 C :   -0.215590
  19 C :    0.241572
  20 C :    0.208642
  21 C :   -0.086145
  22 C :   -0.087273
  23 C :   -0.047740
  24 C :    0.204473
  25 C :    0.113873
  26 C :   -0.071691
  27 C :    0.222122
  28 C :   -0.053481
  29 C :   -0.184816
  30 C :    0.236493
  31 C :    0.212836
  32 C :   -0.065052
  33 C :   -0.078923
  34 C :   -0.050467
  35 C :    0.207104
  36 C :    0.113477
  37 C :   -0.066678
  38 C :    0.236228
  39 C :   -0.060787
  40 C :   -0.188963
  41 C :    0.221971
  42 C :    0.202796
  43 C :   -0.073350
  44 C :   -0.088965
  45 C :   -0.053234
  46 C :    0.203954
  47 C :    0.115578
  48 C :   -0.073374
  49 C :    0.227620
  50 C :   -0.052506
  51 C :   -0.189326
  52 H :    0.053185
  53 H :   -0.014099
  54 H :    0.046638
  55 H :    0.051059
  56 H :    0.058381
  57 H :    0.055970
  58 H :    0.055217
  59 H :   -0.010631
  60 H :    0.049309
  61 H :    0.172778
  62 H :    0.173012
  63 H :    0.056590
  64 H :   -0.017210
  65 H :    0.047444
  66 H :    0.057678
  67 H :    0.062767
  68 H :    0.058233
  69 H :    0.058686
  70 H :   -0.024873
  71 H :    0.047559
  72 H :    0.057922
  73 H :   -0.013655
  74 H :    0.048083
  75 H :    0.057028
  76 H :    0.063294
  77 H :    0.059145
  78 H :    0.058384
  79 H :   -0.014294
  80 H :    0.048527
  81 H :    0.053400
  82 H :   -0.023518
  83 H :    0.043117
  84 H :    0.053347
  85 H :    0.059265
  86 H :    0.056274
  87 H :    0.056612
  88 H :   -0.020832
  89 H :    0.044088
Sum of atomic charges:   -0.0000000

LOEWDIN ATOMIC CHARGES
----------------------
   0 C :   -0.004912
   1 N :    0.134416
   2 C :   -0.100786
   3 N :    0.179373
   4 C :    0.030083
   5 N :   -0.138073
   6 C :   -0.025264
   7 N :    0.177506
   8 C :   -0.008747
   9 N :   -0.139497
  10 C :    0.028130
  11 N :    0.144667
  12 C :   -0.103564
  13 N :    0.144392
  14 C :   -0.042493
  15 N :    0.138545
  16 C :   -0.047438
  17 C :   -0.027770
  18 C :   -0.107798
  19 C :   -0.085145
  20 C :    0.001122
  21 C :   -0.107333
  22 C :    0.042458
  23 C :   -0.019332
  24 C :   -0.002278
  25 C :    0.030416
  26 C :   -0.102422
  27 C :   -0.097037
  28 C :   -0.021850
  29 C :   -0.106931
  30 C :   -0.043928
  31 C :    0.003720
  32 C :   -0.099156
  33 C :    0.045024
  34 C :   -0.019447
  35 C :   -0.001162
  36 C :    0.030285
  37 C :   -0.100605
  38 C :   -0.043100
  39 C :   -0.024280
  40 C :   -0.109135
  41 C :   -0.092654
  42 C :   -0.006032
  43 C :   -0.103844
  44 C :    0.033856
  45 C :   -0.022812
  46 C :   -0.004816
  47 C :    0.029299
  48 C :   -0.102868
  49 C :   -0.087295
  50 C :   -0.023097
  51 C :   -0.108366
  52 H :    0.029234
  53 H :    0.004279
  54 H :    0.042922
  55 H :    0.028355
  56 H :    0.026126
  57 H :    0.030150
  58 H :    0.030687
  59 H :    0.004773
  60 H :    0.043848
  61 H :    0.060602
  62 H :    0.060587
  63 H :    0.031079
  64 H :   -0.000240
  65 H :    0.045597
  66 H :    0.030519
  67 H :    0.028495
  68 H :    0.032077
  69 H :    0.031303
  70 H :   -0.002240
  71 H :    0.045099
  72 H :    0.031441
  73 H :    0.004396
  74 H :    0.045500
  75 H :    0.030791
  76 H :    0.028781
  77 H :    0.032022
  78 H :    0.031695
  79 H :    0.004135
  80 H :    0.045152
  81 H :    0.028872
  82 H :   -0.001908
  83 H :    0.043484
  84 H :    0.029235
  85 H :    0.026645
  86 H :    0.030450
  87 H :    0.031115
  88 H :   -0.000638
  89 H :    0.043555

  Mayer bond orders larger than 0.100000
B(  0-C ,  1-N ) :   1.1140 B(  0-C , 17-C ) :   1.6468 B(  0-C , 52-H ) :   0.9691
B(  1-N ,  8-C ) :   1.1084 B(  1-N , 10-C ) :   0.9643 B(  2-C , 12-C ) :   1.5313
B(  2-C , 16-C ) :   1.3294 B(  2-C , 53-H ) :   0.9775 B(  3-N , 14-C ) :   1.2047
B(  3-N , 16-C ) :   1.1956 B(  3-N , 61-H ) :   0.8983 B(  4-C ,  6-C ) :   1.2557
B(  4-C , 17-C ) :   1.2556 B(  4-C , 18-C ) :   1.2993 B(  5-N , 19-C ) :   1.4253
B(  5-N , 27-C ) :   1.3998 B(  6-C ,  8-C ) :   1.6479 B(  6-C , 54-H ) :   0.9704
B(  7-N , 30-C ) :   1.1939 B(  7-N , 38-C ) :   1.2004 B(  7-N , 62-H ) :   0.8982
B(  8-C , 55-H ) :   0.9698 B(  9-N , 41-C ) :   1.4073 B(  9-N , 49-C ) :   1.4157
B( 10-C , 56-H ) :   0.9764 B( 10-C , 57-H ) :   0.9818 B( 10-C , 58-H ) :   0.9837
B( 11-N , 20-C ) :   1.1260 B( 11-N , 24-C ) :   1.1214 B( 11-N , 25-C ) :   0.9582
B( 12-C , 14-C ) :   1.3303 B( 12-C , 59-H ) :   0.9760 B( 13-N , 31-C ) :   1.1278
B( 13-N , 35-C ) :   1.1217 B( 13-N , 36-C ) :   0.9578 B( 14-C , 18-C ) :   1.1834
B( 15-N , 42-C ) :   1.1150 B( 15-N , 46-C ) :   1.1150 B( 15-N , 47-C ) :   0.9622
B( 16-C , 51-C ) :   1.1946 B( 17-C , 60-H ) :   0.9703 B( 18-C , 19-C ) :   1.2003
B( 19-C , 21-C ) :   1.2133 B( 20-C , 28-C ) :   1.6231 B( 20-C , 63-H ) :   0.9703
B( 21-C , 26-C ) :   1.6409 B( 21-C , 64-H ) :   0.9712 B( 22-C , 23-C ) :   1.2850
B( 22-C , 28-C ) :   1.2737 B( 22-C , 29-C ) :   1.2267 B( 23-C , 24-C ) :   1.6178
B( 23-C , 65-H ) :   0.9708 B( 24-C , 66-H ) :   0.9691 B( 25-C , 67-H ) :   0.9762
B( 25-C , 68-H ) :   0.9829 B( 25-C , 69-H ) :   0.9821 B( 26-C , 27-C ) :   1.2125
B( 26-C , 70-H ) :   0.9730 B( 27-C , 29-C ) :   1.2313 B( 28-C , 71-H ) :   0.9715
B( 29-C , 30-C ) :   1.2128 B( 30-C , 32-C ) :   1.3105 B( 31-C , 39-C ) :   1.6261
B( 31-C , 72-H ) :   0.9695 B( 32-C , 37-C ) :   1.5478 B( 32-C , 73-H ) :   0.9779
B( 33-C , 34-C ) :   1.2784 B( 33-C , 39-C ) :   1.2719 B( 33-C , 40-C ) :   1.2419
B( 34-C , 35-C ) :   1.6232 B( 34-C , 74-H ) :   0.9704 B( 35-C , 75-H ) :   0.9695
B( 36-C , 76-H ) :   0.9763 B( 36-C , 77-H ) :   0.9820 B( 36-C , 78-H ) :   0.9830
B( 37-C , 38-C ) :   1.3121 B( 37-C , 79-H ) :   0.9776 B( 38-C , 40-C ) :   1.2093
B( 39-C , 80-H ) :   0.9714 B( 40-C , 41-C ) :   1.2224 B( 41-C , 43-C ) :   1.2099
B( 42-C , 50-C ) :   1.6335 B( 42-C , 81-H ) :   0.9696 B( 43-C , 48-C ) :   1.6418
B( 43-C , 82-H ) :   0.9736 B( 44-C , 45-C ) :   1.2703 B( 44-C , 50-C ) :   1.2673
B( 44-C , 51-C ) :   1.2555 B( 45-C , 46-C ) :   1.6327 B( 45-C , 83-H ) :   0.9712
B( 46-C , 84-H ) :   0.9702 B( 47-C , 85-H ) :   0.9761 B( 47-C , 86-H ) :   0.9828
B( 47-C , 87-H ) :   0.9826 B( 48-C , 49-C ) :   1.2101 B( 48-C , 88-H ) :   0.9740
B( 49-C , 51-C ) :   1.2235 B( 50-C , 89-H ) :   0.9713

MP2 TOTAL ENERGY:    -2130.913435115 Eh
FINAL SINGLE POINT ENERGY     -2130.913435114832

DIPOLE MOMENT
-------------
                                X             Y             Z
Electronic contribution:     -0.01816      -1.18722      -0.11600
Nuclear contribution   :      0.07647       0.23932       0.12730
                        -----------------------------------------
Total Dipole Moment    :      0.05831      -0.94790       0.01130
                        -----------------------------------------
Magnitude (a.u.)       :      0.94976
Magnitude (Debye)      :      2.41410

Rotational constants in cm-1:     0.001499     0.001475     0.000762
Rotational constants in MHz :    44.929852    44.215549    22.840012

                             ****ORCA TERMINATED NORMALLY****
TOTAL RUN TIME: 0 days 1 hours 20 minutes 40 seconds 62 msec
