                         Program Version 5.0.4 -  RELEASE  -
|  1> ! PAL2
|  2> ! mp2 cc-pvdz TightSCF  NoKeepInts
|  3>
|  4> %scf
|  5>   MaxCore 2000
|  6> end
|  7> %mp2
|  8>   MaxCore 2000
|  9> end
| 10> * xyz 0 1
| 11>    C       -3.70400         6.05900        -1.02100
| 12>    C        1.47400         4.04100         0.05700
| 13>    C       -2.80200         4.09300         0.04900
| 14>    C       -3.49600         4.46900         1.21000
| 15>    C       -4.26600         5.61400         1.21700
| 16>    C       -5.22400         7.59400         0.14200
| 17>    C        0.13200         4.30700         0.06100
| 18>    C       -0.56900         3.05600         0.04700
| 19>    C        1.64900         2.61800         0.02300
| 20>    C       -2.92600         4.91900        -1.07900
| 21>    N       -4.36000         6.39300         0.11400
| 22>    N        0.38800         2.06700         0.02500
| 23>    N       -2.01000         0.39500        -0.07500
| 24>    N       -0.38800        -2.07400        -0.02700
| 25>    N        2.01000        -0.40100         0.06500
| 26>    C       -1.96000         2.86100         0.02400
| 27>    C       -2.62300         1.61500        -0.01800
| 28>    C       -5.57300        -4.32900         1.06600
| 29>    C       -4.07300         1.47100         0.05600
| 30>    C       -4.10600        -2.75600        -0.02600
| 31>    C       -4.99500        -2.75700        -1.11100
| 32>    C       -6.13200        -3.54200        -1.07600
| 33>    C       -7.65100        -5.11300         0.04000
| 34>    C       -4.32400         0.14100         0.03700
| 35>    C       -3.02500        -0.52000        -0.04800
| 36>    C       -4.42200        -3.56600         1.07500
| 37>    N       -6.40700        -4.31300         0.00100
| 38>    C       -2.86700        -1.92200        -0.04000
| 39>    C       -1.65000        -2.62400        -0.02700
| 40>    C        3.56800        -6.14200        -1.04000
| 41>    C       -1.47600        -4.04900        -0.03400
| 42>    C        2.80300        -4.09900        -0.00800
| 43>    C        3.65700        -4.38400         1.06900
| 44>    C        4.42700        -5.53000         1.05900
| 45>    C        5.24500        -7.58800         0.01400
| 46>    C       -0.13400        -4.31500        -0.02200
| 47>    C        0.56800        -3.06400        -0.02700
| 48>    C        2.77500        -5.01200        -1.07400
| 49>    N        4.37600        -6.39100         0.01700
| 50>    C        1.95900        -2.86900        -0.00900
| 51>    C        2.62100        -1.62200         0.00900
| 52>    C        5.54300         4.33900        -1.13000
| 53>    C        4.07000        -1.47900        -0.09400
| 54>    C        4.10400         2.75100        -0.02100
| 55>    C        5.02700         2.72900         1.03600
| 56>    C        6.16600         3.50900         0.97800
| 57>    C        7.61900         5.15300        -0.11500
| 58>    C        4.32100        -0.14800        -0.09200
| 59>    C        3.02500         0.51400         0.01500
| 60>    C        4.38700         3.58200        -1.11500
| 61>    C        2.86600         1.91600         0.01300
| 62>    N        6.41300         4.29600        -0.09500
| 63>    H       -3.81800         6.73200        -1.86200
| 64>    H        2.27400         4.76600         0.08100
| 65>    H       -3.44800         3.86700         2.10900
| 66>    H       -4.82600         5.93900         2.08400
| 67>    H       -6.24700         7.30200        -0.10500
| 68>    H       -5.18900         8.02800         1.14100
| 69>    H       -4.85200         8.31100        -0.59000
| 70>    H       -0.33200         5.28200         0.06900
| 71>    H       -2.40300         4.69100        -2.00000
| 72>    H        0.18200         1.07200         0.00500
| 73>    H       -0.18300        -1.08000        -0.02100
| 74>    H       -5.86400        -4.96200         1.89500
| 75>    H       -4.79400         2.27200         0.13900
| 76>    H       -4.80000        -2.16000        -1.99400
| 77>    H       -6.84100        -3.58200        -1.89300
| 78>    H       -8.42800        -4.53600         0.54600
| 79>    H       -7.95600        -5.33700        -0.98100
| 80>    H       -7.45600        -6.03700         0.58400
| 81>    H       -5.28700        -0.34400         0.10000
| 82>    H       -3.78000        -3.60100         1.94700
| 83>    H        3.58700        -6.86800        -1.84300
| 84>    H       -2.27600        -4.77400        -0.05000
| 85>    H        3.71400        -3.72400         1.92600
| 86>    H        5.09200        -5.79500         1.87100
| 87>    H        6.20500        -7.32900        -0.43900
| 88>    H        5.39300        -7.91700         1.04200
| 89>    H        4.75900        -8.37300        -0.56400
| 90>    H        0.32900        -5.29000        -0.00800
| 91>    H        2.14600        -4.84200        -1.94000
| 92>    H        5.80800         4.98600        -1.95600
| 93>    H        4.78800        -2.28100        -0.18500
| 94>    H        4.86000         2.11400         1.91200
| 95>    H        6.90100         3.53100         1.77200
| 96>    H        7.38300         6.10900         0.35600
| 97>    H        8.41400         4.65200         0.43500
| 98>    H        7.92100         5.31000        -1.15000
| 99>    H        5.28300         0.33600        -0.17900
|100>    H        3.72000         3.63200        -1.96700
|101> *
|102>
|103>                          ****END OF INPUT****

CARTESIAN COORDINATES (ANGSTROEM)
---------------------------------
  C     -3.704000    6.059000   -1.021000
  C      1.474000    4.041000    0.057000
  C     -2.802000    4.093000    0.049000
  C     -3.496000    4.469000    1.210000
  C     -4.266000    5.614000    1.217000
  C     -5.224000    7.594000    0.142000
  C      0.132000    4.307000    0.061000
  C     -0.569000    3.056000    0.047000
  C      1.649000    2.618000    0.023000
  C     -2.926000    4.919000   -1.079000
  N     -4.360000    6.393000    0.114000
  N      0.388000    2.067000    0.025000
  N     -2.010000    0.395000   -0.075000
  N     -0.388000   -2.074000   -0.027000
  N      2.010000   -0.401000    0.065000
  C     -1.960000    2.861000    0.024000
  C     -2.623000    1.615000   -0.018000
  C     -5.573000   -4.329000    1.066000
  C     -4.073000    1.471000    0.056000
  C     -4.106000   -2.756000   -0.026000
  C     -4.995000   -2.757000   -1.111000
  C     -6.132000   -3.542000   -1.076000
  C     -7.651000   -5.113000    0.040000
  C     -4.324000    0.141000    0.037000
  C     -3.025000   -0.520000   -0.048000
  C     -4.422000   -3.566000    1.075000
  N     -6.407000   -4.313000    0.001000
  C     -2.867000   -1.922000   -0.040000
  C     -1.650000   -2.624000   -0.027000
  C      3.568000   -6.142000   -1.040000
  C     -1.476000   -4.049000   -0.034000
  C      2.803000   -4.099000   -0.008000
  C      3.657000   -4.384000    1.069000
  C      4.427000   -5.530000    1.059000
  C      5.245000   -7.588000    0.014000
  C     -0.134000   -4.315000   -0.022000
  C      0.568000   -3.064000   -0.027000
  C      2.775000   -5.012000   -1.074000
  N      4.376000   -6.391000    0.017000
  C      1.959000   -2.869000   -0.009000
  C      2.621000   -1.622000    0.009000
  C      5.543000    4.339000   -1.130000
  C      4.070000   -1.479000   -0.094000
  C      4.104000    2.751000   -0.021000
  C      5.027000    2.729000    1.036000
  C      6.166000    3.509000    0.978000
  C      7.619000    5.153000   -0.115000
  C      4.321000   -0.148000   -0.092000
  C      3.025000    0.514000    0.015000
  C      4.387000    3.582000   -1.115000
  C      2.866000    1.916000    0.013000
  N      6.413000    4.296000   -0.095000
  H     -3.818000    6.732000   -1.862000
  H      2.274000    4.766000    0.081000
  H     -3.448000    3.867000    2.109000
  H     -4.826000    5.939000    2.084000
  H     -6.247000    7.302000   -0.105000
  H     -5.189000    8.028000    1.141000
  H     -4.852000    8.311000   -0.590000
  H     -0.332000    5.282000    0.069000
  H     -2.403000    4.691000   -2.000000
  H      0.182000    1.072000    0.005000
  H     -0.183000   -1.080000   -0.021000
  H     -5.864000   -4.962000    1.895000
  H     -4.794000    2.272000    0.139000
  H     -4.800000   -2.160000   -1.994000
  H     -6.841000   -3.582000   -1.893000
  H     -8.428000   -4.536000    0.546000
  H     -7.956000   -5.337000   -0.981000
  H     -7.456000   -6.037000    0.584000
  H     -5.287000   -0.344000    0.100000
  H     -3.780000   -3.601000    1.947000
  H      3.587000   -6.868000   -1.843000
  H     -2.276000   -4.774000   -0.050000
  H      3.714000   -3.724000    1.926000
  H      5.092000   -5.795000    1.871000
  H      6.205000   -7.329000   -0.439000
  H      5.393000   -7.917000    1.042000
  H      4.759000   -8.373000   -0.564000
  H      0.329000   -5.290000   -0.008000
  H      2.146000   -4.842000   -1.940000
  H      5.808000    4.986000   -1.956000
  H      4.788000   -2.281000   -0.185000
  H      4.860000    2.114000    1.912000
  H      6.901000    3.531000    1.772000
  H      7.383000    6.109000    0.356000
  H      8.414000    4.652000    0.435000
  H      7.921000    5.310000   -1.150000
  H      5.283000    0.336000   -0.179000
  H      3.720000    3.632000   -1.967000

 Total Charge           Charge          ....    0
 Multiplicity           Mult            ....    1
 Number of Electrons    NEL             ....  358
 Basis Dimension        Dim             ....  918

ORBITAL ENERGIES
----------------

  NO   OCC          E(Eh)            E(eV)
   0   2.0000     -15.678532      -426.6345
   1   2.0000     -15.635176      -425.4548
   2   2.0000     -15.624673      -425.1690
   3   2.0000     -15.599415      -424.4817
   4   2.0000     -15.518934      -422.2917
   5   2.0000     -15.509690      -422.0401
   6   2.0000     -15.447879      -420.3582
   7   2.0000     -15.433638      -419.9706
   8   2.0000     -11.326711      -308.2155
   9   2.0000     -11.326225      -308.2023
  10   2.0000     -11.324934      -308.1671
  11   2.0000     -11.300209      -307.4943
  12   2.0000     -11.293846      -307.3212
  13   2.0000     -11.293354      -307.3078
  14   2.0000     -11.288130      -307.1656
  15   2.0000     -11.284841      -307.0761
  16   2.0000     -11.278723      -306.9097
  17   2.0000     -11.277722      -306.8824
  18   2.0000     -11.277710      -306.8821
  19   2.0000     -11.262277      -306.4621
  20   2.0000     -11.261122      -306.4307
  21   2.0000     -11.260611      -306.4168
  22   2.0000     -11.259386      -306.3835
  23   2.0000     -11.238550      -305.8165
  24   2.0000     -11.231199      -305.6165
  25   2.0000     -11.230324      -305.5926
  26   2.0000     -11.228865      -305.5529
  27   2.0000     -11.223448      -305.4056
  28   2.0000     -11.223188      -305.3985
  29   2.0000     -11.205966      -304.9298
  30   2.0000     -11.204940      -304.9019
  31   2.0000     -11.204120      -304.8796
  32   2.0000     -11.203803      -304.8710
  33   2.0000     -11.203330      -304.8581
  34   2.0000     -11.187274      -304.4212
  35   2.0000     -11.186886      -304.4106
  36   2.0000     -11.184540      -304.3468
  37   2.0000     -11.183847      -304.3279
  38   2.0000     -11.183076      -304.3070
  39   2.0000     -11.167137      -303.8733
  40   2.0000     -11.166905      -303.8669
  41   2.0000     -11.163813      -303.7828
  42   2.0000     -11.159969      -303.6782
  43   2.0000     -11.158082      -303.6268
  44   2.0000     -11.155537      -303.5576
  45   2.0000     -11.155323      -303.5518
  46   2.0000     -11.153644      -303.5061
  47   2.0000     -11.150224      -303.4130
  48   2.0000     -11.147102      -303.3281
  49   2.0000     -11.140977      -303.1614
  50   2.0000     -11.127317      -302.7897
  51   2.0000     -11.123814      -302.6944
  52   2.0000      -1.358093       -36.9556
  53   2.0000      -1.322278       -35.9810
  54   2.0000      -1.312886       -35.7255
  55   2.0000      -1.291560       -35.1451
  56   2.0000      -1.219669       -33.1889
  57   2.0000      -1.206182       -32.8219
  58   2.0000      -1.169096       -31.8127
  59   2.0000      -1.145887       -31.1812
  60   2.0000      -1.140190       -31.0262
  61   2.0000      -1.110372       -30.2147
  62   2.0000      -1.102262       -29.9941
  63   2.0000      -1.083308       -29.4783
  64   2.0000      -1.079631       -29.3783
  65   2.0000      -1.046231       -28.4694
  66   2.0000      -1.037623       -28.2352
  67   2.0000      -1.037124       -28.2216
  68   2.0000      -1.017702       -27.6931
  69   2.0000      -1.013257       -27.5721
  70   2.0000      -1.005987       -27.3743
  71   2.0000      -0.989295       -26.9201
  72   2.0000      -0.984899       -26.8005
  73   2.0000      -0.977244       -26.5922
  74   2.0000      -0.968838       -26.3634
  75   2.0000      -0.959441       -26.1077
  76   2.0000      -0.950993       -25.8778
  77   2.0000      -0.945744       -25.7350
  78   2.0000      -0.928172       -25.2568
  79   2.0000      -0.919164       -25.0117
  80   2.0000      -0.906533       -24.6680
  81   2.0000      -0.888844       -24.1867
  82   2.0000      -0.874398       -23.7936
  83   2.0000      -0.869353       -23.6563
  84   2.0000      -0.864638       -23.5280
  85   2.0000      -0.852036       -23.1851
  86   2.0000      -0.844162       -22.9708
  87   2.0000      -0.832466       -22.6525
  88   2.0000      -0.822344       -22.3771
  89   2.0000      -0.796310       -21.6687
  90   2.0000      -0.792699       -21.5704
  91   2.0000      -0.750604       -20.4250
  92   2.0000      -0.734157       -19.9774
  93   2.0000      -0.727172       -19.7874
  94   2.0000      -0.721385       -19.6299
  95   2.0000      -0.716831       -19.5060
  96   2.0000      -0.712350       -19.3840
  97   2.0000      -0.707471       -19.2513
  98   2.0000      -0.699843       -19.0437
  99   2.0000      -0.694886       -18.9088
 100   2.0000      -0.694072       -18.8867
 101   2.0000      -0.682949       -18.5840
 102   2.0000      -0.681911       -18.5557
 103   2.0000      -0.677133       -18.4257
 104   2.0000      -0.672436       -18.2979
 105   2.0000      -0.668789       -18.1987
 106   2.0000      -0.666507       -18.1366
 107   2.0000      -0.656324       -17.8595
 108   2.0000      -0.654149       -17.8003
 109   2.0000      -0.651575       -17.7303
 110   2.0000      -0.647574       -17.6214
 111   2.0000      -0.646599       -17.5949
 112   2.0000      -0.643827       -17.5194
 113   2.0000      -0.639828       -17.4106
 114   2.0000      -0.634328       -17.2609
 115   2.0000      -0.629074       -17.1180
 116   2.0000      -0.622397       -16.9363
 117   2.0000      -0.615893       -16.7593
 118   2.0000      -0.613017       -16.6810
 119   2.0000      -0.610906       -16.6236
 120   2.0000      -0.608332       -16.5535
 121   2.0000      -0.605320       -16.4716
 122   2.0000      -0.595634       -16.2080
 123   2.0000      -0.589308       -16.0359
 124   2.0000      -0.586792       -15.9674
 125   2.0000      -0.582086       -15.8394
 126   2.0000      -0.576044       -15.6750
 127   2.0000      -0.573911       -15.6169
 128   2.0000      -0.568652       -15.4738
 129   2.0000      -0.559817       -15.2334
 130   2.0000      -0.556611       -15.1461
 131   2.0000      -0.547176       -14.8894
 132   2.0000      -0.543839       -14.7986
 133   2.0000      -0.538641       -14.6572
 134   2.0000      -0.534888       -14.5550
 135   2.0000      -0.532004       -14.4766
 136   2.0000      -0.521240       -14.1837
 137   2.0000      -0.518604       -14.1119
 138   2.0000      -0.514198       -13.9920
 139   2.0000      -0.512180       -13.9371
 140   2.0000      -0.511112       -13.9081
 141   2.0000      -0.507977       -13.8227
 142   2.0000      -0.503197       -13.6927
 143   2.0000      -0.499918       -13.6035
 144   2.0000      -0.496449       -13.5091
 145   2.0000      -0.494602       -13.4588
 146   2.0000      -0.493429       -13.4269
 147   2.0000      -0.484844       -13.1933
 148   2.0000      -0.481998       -13.1158
 149   2.0000      -0.464868       -12.6497
 150   2.0000      -0.462831       -12.5943
 151   2.0000      -0.455695       -12.4001
 152   2.0000      -0.449398       -12.2287
 153   2.0000      -0.442163       -12.0319
 154   2.0000      -0.439675       -11.9642
 155   2.0000      -0.438301       -11.9268
 156   2.0000      -0.427523       -11.6335
 157   2.0000      -0.421157       -11.4603
 158   2.0000      -0.401353       -10.9214
 159   2.0000      -0.385187       -10.4815
 160   2.0000      -0.382581       -10.4106
 161   2.0000      -0.373363       -10.1597
 162   2.0000      -0.361033        -9.8242
 163   2.0000      -0.357150        -9.7185
 164   2.0000      -0.349760        -9.5175
 165   2.0000      -0.339055        -9.2262
 166   2.0000      -0.336837        -9.1658
 167   2.0000      -0.332814        -9.0563
 168   2.0000      -0.319470        -8.6932
 169   2.0000      -0.299375        -8.1464
 170   2.0000      -0.298266        -8.1162
 171   2.0000      -0.285585        -7.7712
 172   2.0000      -0.281933        -7.6718
 173   2.0000      -0.261532        -7.1167
 174   2.0000      -0.238095        -6.4789
 175   2.0000      -0.185273        -5.0415
 176   2.0000      -0.175173        -4.7667
 177   2.0000      -0.062816        -1.7093
 178   2.0000      -0.051517        -1.4018
 179   0.0000       0.033747         0.9183
 180   0.0000       0.063030         1.7151
 181   0.0000       0.091810         2.4983
 182   0.0000       0.096441         2.6243
 183   0.0000       0.109197         2.9714

MULLIKEN ATOMIC CHARGES
-----------------------
   0 C :    0.224294
   1 N :   -0.426499
   2 C :   -0.066153
   3 N :   -0.340814
   4 C :   -0.073733
   5 N :   -0.565281
   6 C :   -0.036471
   7 N :   -0.336925
   8 C :    0.221661
   9 N :   -0.565210
  10 C :    0.108218
  11 N :   -0.438460
  12 C :   -0.062086
  13 N :   -0.447361
  14 C :    0.229568
  15 N :   -0.440923
  16 C :    0.247642
  17 C :   -0.041877
  18 C :   -0.192952
  19 C :    0.235962
  20 C :    0.196559
  21 C :   -0.073443
  22 C :   -0.087613
  23 C :   -0.060365
  24 C :    0.214421
  25 C :    0.114241
  26 C :   -0.068998
  27 C :    0.239283
  28 C :   -0.044012
  29 C :   -0.194030
  30 C :    0.226229
  31 C :    0.194832
  32 C :   -0.066463
  33 C :   -0.095843
  34 C :   -0.051066
  35 C :    0.187506
  36 C :    0.118724
  37 C :   -0.069238
  38 C :    0.241054
  39 C :   -0.063420
  40 C :   -0.199462
  41 C :    0.218895
  42 C :    0.209860
  43 C :   -0.075461
  44 C :   -0.090013
  45 C :   -0.043091
  46 C :    0.191799
  47 C :    0.116104
  48 C :   -0.079058
  49 C :    0.214691
  50 C :   -0.062009
  51 C :   -0.188650
  52 H :    0.071308
  53 H :   -0.009916
  54 H :    0.058870
  55 H :    0.069733
  56 H :    0.074426
  57 H :    0.068582
  58 H :    0.067024
  59 H :   -0.022889
  60 H :    0.057205
  61 H :    0.175716
  62 H :    0.169482
  63 H :    0.054747
  64 H :   -0.028879
  65 H :    0.043979
  66 H :    0.056643
  67 H :    0.060386
  68 H :    0.057226
  69 H :    0.059361
  70 H :   -0.018191
  71 H :    0.047669
  72 H :    0.043733
  73 H :   -0.018534
  74 H :    0.035072
  75 H :    0.042632
  76 H :    0.051363
  77 H :    0.050041
  78 H :    0.049327
  79 H :   -0.012660
  80 H :    0.035166
  81 H :    0.051952
  82 H :   -0.022567
  83 H :    0.043533
  84 H :    0.051329
  85 H :    0.056522
  86 H :    0.056740
  87 H :    0.055540
  88 H :   -0.027390
  89 H :    0.041151
Sum of atomic charges:   -0.0000000

LOEWDIN ATOMIC CHARGES
----------------------
   0 C :    0.022567
   1 N :    0.168831
   2 C :   -0.100067
   3 N :    0.174439
   4 C :    0.083096
   5 N :   -0.144906
   6 C :   -0.012214
   7 N :    0.177873
   8 C :    0.020191
   9 N :   -0.138985
  10 C :    0.035447
  11 N :    0.142384
  12 C :   -0.098781
  13 N :    0.122780
  14 C :   -0.055644
  15 N :    0.137007
  16 C :   -0.027947
  17 C :   -0.015357
  18 C :   -0.114881
  19 C :   -0.089321
  20 C :   -0.010115
  21 C :   -0.100891
  22 C :    0.039800
  23 C :   -0.028447
  24 C :    0.005875
  25 C :    0.029925
  26 C :   -0.096901
  27 C :   -0.068817
  28 C :   -0.016735
  29 C :   -0.116200
  30 C :   -0.058192
  31 C :   -0.017853
  32 C :   -0.102337
  33 C :    0.009004
  34 C :   -0.024901
  35 C :   -0.024305
  36 C :    0.025289
  37 C :   -0.107239
  38 C :   -0.034571
  39 C :   -0.031035
  40 C :   -0.112121
  41 C :   -0.092017
  42 C :   -0.000487
  43 C :   -0.110002
  44 C :    0.031373
  45 C :   -0.016691
  46 C :   -0.016104
  47 C :    0.028788
  48 C :   -0.110347
  49 C :   -0.107706
  50 C :   -0.029608
  51 C :   -0.107949
  52 H :    0.037203
  53 H :    0.006304
  54 H :    0.051245
  55 H :    0.036798
  56 H :    0.034426
  57 H :    0.036141
  58 H :    0.036105
  59 H :    0.001186
  60 H :    0.050505
  61 H :    0.061991
  62 H :    0.058661
  63 H :    0.029839
  64 H :   -0.003835
  65 H :    0.043466
  66 H :    0.030506
  67 H :    0.027408
  68 H :    0.031599
  69 H :    0.031504
  70 H :    0.000882
  71 H :    0.045677
  72 H :    0.024871
  73 H :    0.002085
  74 H :    0.040040
  75 H :    0.024057
  76 H :    0.022655
  77 H :    0.027762
  78 H :    0.027466
  79 H :    0.005053
  80 H :    0.039415
  81 H :    0.028545
  82 H :   -0.001241
  83 H :    0.044220
  84 H :    0.027904
  85 H :    0.025365
  86 H :    0.030571
  87 H :    0.030598
  88 H :   -0.003772
  89 H :    0.041798

  Mayer bond orders larger than 0.100000
B(  0-C ,  1-N ) :   1.1644 B(  0-C , 17-C ) :   1.5712 B(  0-C , 52-H ) :   0.9682
B(  1-N ,  8-C ) :   1.1584 B(  1-N , 10-C ) :   0.9415 B(  2-C , 12-C ) :   1.5600
B(  2-C , 16-C ) :   1.2963 B(  2-C , 53-H ) :   0.9787 B(  3-N , 14-C ) :   1.1855
B(  3-N , 16-C ) :   1.2013 B(  3-N , 61-H ) :   0.8964 B(  4-C ,  6-C ) :   1.3194
B(  4-C , 17-C ) :   1.3199 B(  4-C , 18-C ) :   1.1379 B(  5-N , 19-C ) :   1.3831
B(  5-N , 27-C ) :   1.4341 B(  6-C ,  8-C ) :   1.5716 B(  6-C , 54-H ) :   0.9710
B(  7-N , 30-C ) :   1.1891 B(  7-N , 38-C ) :   1.2098 B(  7-N , 62-H ) :   0.9003
B(  8-C , 55-H ) :   0.9687 B(  9-N , 41-C ) :   1.4266 B(  9-N , 49-C ) :   1.3994
B( 10-C , 56-H ) :   0.9764 B( 10-C , 57-H ) :   0.9811 B( 10-C , 58-H ) :   0.9826
B( 11-N , 20-C ) :   1.1100 B( 11-N , 24-C ) :   1.1324 B( 11-N , 25-C ) :   0.9597
B( 12-C , 14-C ) :   1.2961 B( 12-C , 59-H ) :   0.9773 B( 13-N , 31-C ) :   1.0960
B( 13-N , 35-C ) :   1.0882 B( 13-N , 36-C ) :   0.9742 B( 14-C , 18-C ) :   1.2341
B( 15-N , 42-C ) :   1.1239 B( 15-N , 46-C ) :   1.1003 B( 15-N , 47-C ) :   0.9640
B( 16-C , 51-C ) :   1.2243 B( 17-C , 60-H ) :   0.9715 B( 18-C , 19-C ) :   1.2756
B( 19-C , 21-C ) :   1.1810 B( 20-C , 28-C ) :   1.6248 B( 20-C , 63-H ) :   0.9706
B( 21-C , 26-C ) :   1.6666 B( 21-C , 64-H ) :   0.9722 B( 22-C , 23-C ) :   1.2681
B( 22-C , 28-C ) :   1.2793 B( 22-C , 29-C ) :   1.2467 B( 23-C , 24-C ) :   1.6264
B( 23-C , 65-H ) :   0.9717 B( 24-C , 66-H ) :   0.9690 B( 25-C , 67-H ) :   0.9763
B( 25-C , 68-H ) :   0.9832 B( 25-C , 69-H ) :   0.9820 B( 26-C , 27-C ) :   1.1868
B( 26-C , 70-H ) :   0.9747 B( 27-C , 29-C ) :   1.2373 B( 28-C , 71-H ) :   0.9711
B( 29-C , 30-C ) :   1.1859 B( 30-C , 32-C ) :   1.3396 B( 31-C , 39-C ) :   1.6649
B( 31-C , 72-H ) :   0.9705 B( 32-C , 37-C ) :   1.5190 B( 32-C , 73-H ) :   0.9773
B( 33-C , 34-C ) :   1.2474 B( 33-C , 39-C ) :   1.2408 B( 33-C , 40-C ) :   1.3175
B( 34-C , 35-C ) :   1.6630 B( 34-C , 74-H ) :   0.9709 B( 35-C , 75-H ) :   0.9705
B( 36-C , 76-H ) :   0.9758 B( 36-C , 77-H ) :   0.9824 B( 36-C , 78-H ) :   0.9836
B( 37-C , 38-C ) :   1.3373 B( 37-C , 79-H ) :   0.9787 B( 38-C , 40-C ) :   1.1868
B( 39-C , 80-H ) :   0.9719 B( 40-C , 41-C ) :   1.1884 B( 41-C , 43-C ) :   1.2378
B( 42-C , 50-C ) :   1.6370 B( 42-C , 81-H ) :   0.9696 B( 43-C , 48-C ) :   1.6136
B( 43-C , 82-H ) :   0.9750 B( 44-C , 45-C ) :   1.2788 B( 44-C , 50-C ) :   1.2573
B( 44-C , 51-C ) :   1.2481 B( 45-C , 46-C ) :   1.6309 B( 45-C , 83-H ) :   0.9706
B( 46-C , 84-H ) :   0.9706 B( 47-C , 85-H ) :   0.9760 B( 47-C , 86-H ) :   0.9826
B( 47-C , 87-H ) :   0.9828 B( 48-C , 49-C ) :   1.2337 B( 48-C , 88-H ) :   0.9730
B( 49-C , 51-C ) :   1.2059 B( 50-C , 89-H ) :   0.9719

MP2 TOTAL ENERGY:    -2130.894897991 Eh
FINAL SINGLE POINT ENERGY     -2130.894897990724

DIPOLE MOMENT
-------------
                                X             Y             Z
Electronic contribution:     -2.79895       2.91004      -0.14917
Nuclear contribution   :     -0.03972       0.15888       0.19156
                        -----------------------------------------
Total Dipole Moment    :     -2.83867       3.06892       0.04240
                        -----------------------------------------
Magnitude (a.u.)       :      4.18068
Magnitude (Debye)      :     10.62646

Rotational constants in cm-1:     0.001498     0.001473     0.000763
Rotational constants in MHz :    44.917319    44.152359    22.860711

                             ****ORCA TERMINATED NORMALLY****
TOTAL RUN TIME: 0 days 1 hours 18 minutes 11 seconds 466 msec
