                         Program Version 5.0.4 -  RELEASE  -
|  1> ! PAL2
|  2> ! mp2 cc-pvdz TightSCF  NoKeepInts
|  3>
|  4> %scf
|  5>   MaxCore 2000
|  6> end
|  7> %mp2
|  8>   MaxCore 2000
|  9> end
| 10> * xyz 0 1
| 11>    C       -3.08200         6.45400         0.46100
| 12>    C        1.47400         4.04100         0.05700
| 13>    C       -2.80200         4.09300         0.04900
| 14>    C       -4.15700         4.04800        -0.31300
| 15>    C       -4.92300         5.19600        -0.27900
| 16>    C       -5.22200         7.59600         0.09600
| 17>    C        0.13200         4.30700         0.06100
| 18>    C       -0.56900         3.05600         0.04700
| 19>    C        1.64900         2.61800         0.02300
| 20>    C       -2.27400         5.33400         0.43800
| 21>    N       -4.38500         6.37600         0.10700
| 22>    N        0.38800         2.06700         0.02500
| 23>    N       -2.01000         0.39500        -0.07500
| 24>    N       -0.38800        -2.07400        -0.02700
| 25>    N        2.01000        -0.40100         0.06500
| 26>    C       -1.96000         2.86100         0.02400
| 27>    C       -2.62300         1.61500        -0.01800
| 28>    C       -5.57300        -4.32900         1.06600
| 29>    C       -4.07300         1.47100         0.05600
| 30>    C       -4.10600        -2.75600        -0.02600
| 31>    C       -4.99500        -2.75700        -1.11100
| 32>    C       -6.13200        -3.54200        -1.07600
| 33>    C       -7.65100        -5.11300         0.04000
| 34>    C       -4.32400         0.14100         0.03700
| 35>    C       -3.02500        -0.52000        -0.04800
| 36>    C       -4.42200        -3.56600         1.07500
| 37>    N       -6.40700        -4.31300         0.00100
| 38>    C       -2.86700        -1.92200        -0.04000
| 39>    C       -1.65000        -2.62400        -0.02700
| 40>    C        3.56800        -6.14200        -1.04000
| 41>    C       -1.47600        -4.04900        -0.03400
| 42>    C        2.80300        -4.09900        -0.00800
| 43>    C        3.65700        -4.38400         1.06900
| 44>    C        4.42700        -5.53000         1.05900
| 45>    C        5.24500        -7.58800         0.01400
| 46>    C       -0.13400        -4.31500        -0.02200
| 47>    C        0.56800        -3.06400        -0.02700
| 48>    C        2.77500        -5.01200        -1.07400
| 49>    N        4.37600        -6.39100         0.01700
| 50>    C        1.95900        -2.86900        -0.00900
| 51>    C        2.62100        -1.62200         0.00900
| 52>    C        5.54300         4.33900        -1.13000
| 53>    C        4.07000        -1.47900        -0.09400
| 54>    C        4.10400         2.75100        -0.02100
| 55>    C        5.02700         2.72900         1.03600
| 56>    C        6.16600         3.50900         0.97800
| 57>    C        7.61900         5.15300        -0.11500
| 58>    C        4.32100        -0.14800        -0.09200
| 59>    C        3.02500         0.51400         0.01500
| 60>    C        4.38700         3.58200        -1.11500
| 61>    C        2.86600         1.91600         0.01300
| 62>    N        6.41300         4.29600        -0.09500
| 63>    H       -2.72100         7.42900         0.76600
| 64>    H        2.27400         4.76600         0.08100
| 65>    H       -4.62000         3.12100        -0.63100
| 66>    H       -5.96900         5.21200        -0.55700
| 67>    H       -5.20100         8.03300        -0.90500
| 68>    H       -6.24300         7.32400         0.36500
| 69>    H       -4.82100         8.30300         0.82200
| 70>    H       -0.33200         5.28200         0.06900
| 71>    H       -1.23800         5.43100         0.74300
| 72>    H        0.18200         1.07200         0.00500
| 73>    H       -0.18300        -1.08000        -0.02100
| 74>    H       -5.86400        -4.96200         1.89500
| 75>    H       -4.79400         2.27200         0.13900
| 76>    H       -4.80000        -2.16000        -1.99400
| 77>    H       -6.84100        -3.58200        -1.89300
| 78>    H       -8.42800        -4.53600         0.54600
| 79>    H       -7.95600        -5.33700        -0.98100
| 80>    H       -7.45600        -6.03700         0.58400
| 81>    H       -5.28700        -0.34400         0.10000
| 82>    H       -3.78000        -3.60100         1.94700
| 83>    H        3.58700        -6.86800        -1.84300
| 84>    H       -2.27600        -4.77400        -0.05000
| 85>    H        3.71400        -3.72400         1.92600
| 86>    H        5.09200        -5.79500         1.87100
| 87>    H        6.20500        -7.32900        -0.43900
| 88>    H        5.39300        -7.91700         1.04200
| 89>    H        4.75900        -8.37300        -0.56400
| 90>    H        0.32900        -5.29000        -0.00800
| 91>    H        2.14600        -4.84200        -1.94000
| 92>    H        5.80800         4.98600        -1.95600
| 93>    H        4.78800        -2.28100        -0.18500
| 94>    H        4.86000         2.11400         1.91200
| 95>    H        6.90100         3.53100         1.77200
| 96>    H        7.38300         6.10900         0.35600
| 97>    H        8.41400         4.65200         0.43500
| 98>    H        7.92100         5.31000        -1.15000
| 99>    H        5.28300         0.33600        -0.17900
|100>    H        3.72000         3.63200        -1.96700
|101> *
|102>
|103>                          ****END OF INPUT****

CARTESIAN COORDINATES (ANGSTROEM)
---------------------------------
  C     -3.082000    6.454000    0.461000
  C      1.474000    4.041000    0.057000
  C     -2.802000    4.093000    0.049000
  C     -4.157000    4.048000   -0.313000
  C     -4.923000    5.196000   -0.279000
  C     -5.222000    7.596000    0.096000
  C      0.132000    4.307000    0.061000
  C     -0.569000    3.056000    0.047000
  C      1.649000    2.618000    0.023000
  C     -2.274000    5.334000    0.438000
  N     -4.385000    6.376000    0.107000
  N      0.388000    2.067000    0.025000
  N     -2.010000    0.395000   -0.075000
  N     -0.388000   -2.074000   -0.027000
  N      2.010000   -0.401000    0.065000
  C     -1.960000    2.861000    0.024000
  C     -2.623000    1.615000   -0.018000
  C     -5.573000   -4.329000    1.066000
  C     -4.073000    1.471000    0.056000
  C     -4.106000   -2.756000   -0.026000
  C     -4.995000   -2.757000   -1.111000
  C     -6.132000   -3.542000   -1.076000
  C     -7.651000   -5.113000    0.040000
  C     -4.324000    0.141000    0.037000
  C     -3.025000   -0.520000   -0.048000
  C     -4.422000   -3.566000    1.075000
  N     -6.407000   -4.313000    0.001000
  C     -2.867000   -1.922000   -0.040000
  C     -1.650000   -2.624000   -0.027000
  C      3.568000   -6.142000   -1.040000
  C     -1.476000   -4.049000   -0.034000
  C      2.803000   -4.099000   -0.008000
  C      3.657000   -4.384000    1.069000
  C      4.427000   -5.530000    1.059000
  C      5.245000   -7.588000    0.014000
  C     -0.134000   -4.315000   -0.022000
  C      0.568000   -3.064000   -0.027000
  C      2.775000   -5.012000   -1.074000
  N      4.376000   -6.391000    0.017000
  C      1.959000   -2.869000   -0.009000
  C      2.621000   -1.622000    0.009000
  C      5.543000    4.339000   -1.130000
  C      4.070000   -1.479000   -0.094000
  C      4.104000    2.751000   -0.021000
  C      5.027000    2.729000    1.036000
  C      6.166000    3.509000    0.978000
  C      7.619000    5.153000   -0.115000
  C      4.321000   -0.148000   -0.092000
  C      3.025000    0.514000    0.015000
  C      4.387000    3.582000   -1.115000
  C      2.866000    1.916000    0.013000
  N      6.413000    4.296000   -0.095000
  H     -2.721000    7.429000    0.766000
  H      2.274000    4.766000    0.081000
  H     -4.620000    3.121000   -0.631000
  H     -5.969000    5.212000   -0.557000
  H     -5.201000    8.033000   -0.905000
  H     -6.243000    7.324000    0.365000
  H     -4.821000    8.303000    0.822000
  H     -0.332000    5.282000    0.069000
  H     -1.238000    5.431000    0.743000
  H      0.182000    1.072000    0.005000
  H     -0.183000   -1.080000   -0.021000
  H     -5.864000   -4.962000    1.895000
  H     -4.794000    2.272000    0.139000
  H     -4.800000   -2.160000   -1.994000
  H     -6.841000   -3.582000   -1.893000
  H     -8.428000   -4.536000    0.546000
  H     -7.956000   -5.337000   -0.981000
  H     -7.456000   -6.037000    0.584000
  H     -5.287000   -0.344000    0.100000
  H     -3.780000   -3.601000    1.947000
  H      3.587000   -6.868000   -1.843000
  H     -2.276000   -4.774000   -0.050000
  H      3.714000   -3.724000    1.926000
  H      5.092000   -5.795000    1.871000
  H      6.205000   -7.329000   -0.439000
  H      5.393000   -7.917000    1.042000
  H      4.759000   -8.373000   -0.564000
  H      0.329000   -5.290000   -0.008000
  H      2.146000   -4.842000   -1.940000
  H      5.808000    4.986000   -1.956000
  H      4.788000   -2.281000   -0.185000
  H      4.860000    2.114000    1.912000
  H      6.901000    3.531000    1.772000
  H      7.383000    6.109000    0.356000
  H      8.414000    4.652000    0.435000
  H      7.921000    5.310000   -1.150000
  H      5.283000    0.336000   -0.179000
  H      3.720000    3.632000   -1.967000

 Total Charge           Charge          ....    0
 Multiplicity           Mult            ....    1
 Number of Electrons    NEL             ....  358
 Basis Dimension        Dim             ....  918

ORBITAL ENERGIES
----------------

  NO   OCC          E(Eh)            E(eV)
   0   2.0000     -15.679200      -426.6527
   1   2.0000     -15.635493      -425.4634
   2   2.0000     -15.630419      -425.3253
   3   2.0000     -15.587345      -424.1532
   4   2.0000     -15.525582      -422.4726
   5   2.0000     -15.515428      -422.1963
   6   2.0000     -15.453382      -420.5079
   7   2.0000     -15.440926      -420.1689
   8   2.0000     -11.329138      -308.2815
   9   2.0000     -11.327639      -308.2407
  10   2.0000     -11.327563      -308.2386
  11   2.0000     -11.300278      -307.4962
  12   2.0000     -11.297468      -307.4197
  13   2.0000     -11.294231      -307.3316
  14   2.0000     -11.289971      -307.2157
  15   2.0000     -11.288001      -307.1621
  16   2.0000     -11.285362      -307.0903
  17   2.0000     -11.281512      -306.9855
  18   2.0000     -11.270053      -306.6737
  19   2.0000     -11.262982      -306.4813
  20   2.0000     -11.262004      -306.4547
  21   2.0000     -11.252536      -306.1971
  22   2.0000     -11.248919      -306.0987
  23   2.0000     -11.239233      -305.8351
  24   2.0000     -11.235245      -305.7266
  25   2.0000     -11.232324      -305.6471
  26   2.0000     -11.231693      -305.6299
  27   2.0000     -11.228693      -305.5483
  28   2.0000     -11.228373      -305.5396
  29   2.0000     -11.211681      -305.0854
  30   2.0000     -11.210219      -305.0456
  31   2.0000     -11.194425      -304.6158
  32   2.0000     -11.191374      -304.5328
  33   2.0000     -11.190063      -304.4971
  34   2.0000     -11.188093      -304.4435
  35   2.0000     -11.187551      -304.4287
  36   2.0000     -11.186233      -304.3929
  37   2.0000     -11.180441      -304.2353
  38   2.0000     -11.178664      -304.1869
  39   2.0000     -11.175108      -304.0901
  40   2.0000     -11.173442      -304.0448
  41   2.0000     -11.169643      -303.9414
  42   2.0000     -11.169235      -303.9303
  43   2.0000     -11.161126      -303.7097
  44   2.0000     -11.160412      -303.6902
  45   2.0000     -11.157578      -303.6131
  46   2.0000     -11.155672      -303.5613
  47   2.0000     -11.154260      -303.5229
  48   2.0000     -11.146128      -303.3016
  49   2.0000     -11.135444      -303.0108
  50   2.0000     -11.130582      -302.8785
  51   2.0000     -11.118485      -302.5494
  52   2.0000      -1.359875       -37.0041
  53   2.0000      -1.322543       -35.9882
  54   2.0000      -1.318398       -35.8754
  55   2.0000      -1.280792       -34.8521
  56   2.0000      -1.226702       -33.3803
  57   2.0000      -1.209870       -32.9222
  58   2.0000      -1.172856       -31.9150
  59   2.0000      -1.151398       -31.3311
  60   2.0000      -1.143228       -31.1088
  61   2.0000      -1.111281       -30.2395
  62   2.0000      -1.108028       -30.1510
  63   2.0000      -1.081613       -29.4322
  64   2.0000      -1.077230       -29.3129
  65   2.0000      -1.046688       -28.4818
  66   2.0000      -1.043104       -28.3843
  67   2.0000      -1.040929       -28.3251
  68   2.0000      -1.015228       -27.6258
  69   2.0000      -1.012042       -27.5391
  70   2.0000      -1.008675       -27.4474
  71   2.0000      -0.994064       -27.0499
  72   2.0000      -0.985630       -26.8204
  73   2.0000      -0.981718       -26.7139
  74   2.0000      -0.972161       -26.4538
  75   2.0000      -0.961460       -26.1627
  76   2.0000      -0.954127       -25.9631
  77   2.0000      -0.945575       -25.7304
  78   2.0000      -0.935787       -25.4641
  79   2.0000      -0.917388       -24.9634
  80   2.0000      -0.910084       -24.7647
  81   2.0000      -0.895964       -24.3804
  82   2.0000      -0.876219       -23.8431
  83   2.0000      -0.873320       -23.7643
  84   2.0000      -0.869417       -23.6580
  85   2.0000      -0.858268       -23.3547
  86   2.0000      -0.839883       -22.8544
  87   2.0000      -0.836362       -22.7586
  88   2.0000      -0.825919       -22.4744
  89   2.0000      -0.796903       -21.6848
  90   2.0000      -0.789345       -21.4792
  91   2.0000      -0.755119       -20.5478
  92   2.0000      -0.751048       -20.4370
  93   2.0000      -0.733894       -19.9703
  94   2.0000      -0.725878       -19.7521
  95   2.0000      -0.723249       -19.6806
  96   2.0000      -0.717790       -19.5321
  97   2.0000      -0.715204       -19.4617
  98   2.0000      -0.710014       -19.3205
  99   2.0000      -0.698276       -19.0011
 100   2.0000      -0.696569       -18.9546
 101   2.0000      -0.686782       -18.6883
 102   2.0000      -0.684152       -18.6167
 103   2.0000      -0.683770       -18.6063
 104   2.0000      -0.679188       -18.4816
 105   2.0000      -0.673691       -18.3321
 106   2.0000      -0.671655       -18.2767
 107   2.0000      -0.660367       -17.9695
 108   2.0000      -0.656774       -17.8717
 109   2.0000      -0.653887       -17.7932
 110   2.0000      -0.650766       -17.7082
 111   2.0000      -0.645714       -17.5708
 112   2.0000      -0.644749       -17.5445
 113   2.0000      -0.637659       -17.3516
 114   2.0000      -0.636604       -17.3229
 115   2.0000      -0.627392       -17.0722
 116   2.0000      -0.621313       -16.9068
 117   2.0000      -0.620895       -16.8954
 118   2.0000      -0.613757       -16.7012
 119   2.0000      -0.613166       -16.6851
 120   2.0000      -0.611034       -16.6271
 121   2.0000      -0.610310       -16.6074
 122   2.0000      -0.599907       -16.3243
 123   2.0000      -0.587095       -15.9757
 124   2.0000      -0.582504       -15.8507
 125   2.0000      -0.580567       -15.7980
 126   2.0000      -0.579392       -15.7661
 127   2.0000      -0.571918       -15.5627
 128   2.0000      -0.569196       -15.4886
 129   2.0000      -0.559470       -15.2240
 130   2.0000      -0.552474       -15.0336
 131   2.0000      -0.547918       -14.9096
 132   2.0000      -0.542924       -14.7737
 133   2.0000      -0.542159       -14.7529
 134   2.0000      -0.539257       -14.6739
 135   2.0000      -0.535154       -14.5623
 136   2.0000      -0.529870       -14.4185
 137   2.0000      -0.519307       -14.1311
 138   2.0000      -0.518222       -14.1015
 139   2.0000      -0.514417       -13.9980
 140   2.0000      -0.512014       -13.9326
 141   2.0000      -0.510613       -13.8945
 142   2.0000      -0.509558       -13.8658
 143   2.0000      -0.504022       -13.7151
 144   2.0000      -0.501241       -13.6395
 145   2.0000      -0.495436       -13.4815
 146   2.0000      -0.491116       -13.3639
 147   2.0000      -0.481776       -13.1098
 148   2.0000      -0.477539       -12.9945
 149   2.0000      -0.467551       -12.7227
 150   2.0000      -0.466011       -12.6808
 151   2.0000      -0.456940       -12.4340
 152   2.0000      -0.451044       -12.2735
 153   2.0000      -0.445537       -12.1237
 154   2.0000      -0.439583       -11.9617
 155   2.0000      -0.427603       -11.6357
 156   2.0000      -0.411003       -11.1839
 157   2.0000      -0.408115       -11.1054
 158   2.0000      -0.400881       -10.9085
 159   2.0000      -0.387303       -10.5391
 160   2.0000      -0.386608       -10.5201
 161   2.0000      -0.377730       -10.2786
 162   2.0000      -0.371304       -10.1037
 163   2.0000      -0.357726        -9.7342
 164   2.0000      -0.354887        -9.6570
 165   2.0000      -0.341368        -9.2891
 166   2.0000      -0.337893        -9.1945
 167   2.0000      -0.325715        -8.8632
 168   2.0000      -0.320651        -8.7254
 169   2.0000      -0.305915        -8.3244
 170   2.0000      -0.299284        -8.1439
 171   2.0000      -0.285004        -7.7553
 172   2.0000      -0.279269        -7.5993
 173   2.0000      -0.263129        -7.1601
 174   2.0000      -0.241806        -6.5799
 175   2.0000      -0.190114        -5.1733
 176   2.0000      -0.180873        -4.9218
 177   2.0000      -0.079078        -2.1518
 178   2.0000      -0.059437        -1.6174
 179   0.0000       0.028175         0.7667
 180   0.0000       0.065238         1.7752
 181   0.0000       0.090480         2.4621
 182   0.0000       0.106597         2.9007
 183   0.0000       0.114098         3.1048

MULLIKEN ATOMIC CHARGES
-----------------------
   0 C :    0.218665
   1 N :   -0.456460
   2 C :   -0.075449
   3 N :   -0.340089
   4 C :   -0.060727
   5 N :   -0.565839
   6 C :   -0.116261
   7 N :   -0.340882
   8 C :    0.209303
   9 N :   -0.562460
  10 C :    0.118873
  11 N :   -0.438168
  12 C :   -0.064803
  13 N :   -0.429474
  14 C :    0.213903
  15 N :   -0.441239
  16 C :    0.232445
  17 C :   -0.128275
  18 C :   -0.155367
  19 C :    0.201651
  20 C :    0.214321
  21 C :   -0.078219
  22 C :   -0.089350
  23 C :   -0.039841
  24 C :    0.194336
  25 C :    0.114402
  26 C :   -0.087916
  27 C :    0.213338
  28 C :   -0.061469
  29 C :   -0.182716
  30 C :    0.246091
  31 C :    0.230667
  32 C :   -0.061371
  33 C :   -0.060559
  34 C :   -0.050491
  35 C :    0.227559
  36 C :    0.108297
  37 C :   -0.064234
  38 C :    0.231681
  39 C :   -0.058271
  40 C :   -0.180902
  41 C :    0.225094
  42 C :    0.197127
  43 C :   -0.072589
  44 C :   -0.090438
  45 C :   -0.061559
  46 C :    0.210875
  47 C :    0.115514
  48 C :   -0.067103
  49 C :    0.238324
  50 C :   -0.046239
  51 C :   -0.194935
  52 H :    0.037179
  53 H :   -0.017845
  54 H :    0.051881
  55 H :    0.034963
  56 H :    0.048724
  57 H :    0.048228
  58 H :    0.046235
  59 H :   -0.004019
  60 H :    0.048078
  61 H :    0.170946
  62 H :    0.175687
  63 H :    0.055850
  64 H :   -0.009319
  65 H :    0.046973
  66 H :    0.055983
  67 H :    0.062942
  68 H :    0.057445
  69 H :    0.056701
  70 H :   -0.029663
  71 H :    0.045391
  72 H :    0.071294
  73 H :   -0.007901
  74 H :    0.060409
  75 H :    0.070663
  76 H :    0.074943
  77 H :    0.067973
  78 H :    0.067202
  79 H :   -0.016305
  80 H :    0.061189
  81 H :    0.054156
  82 H :   -0.025181
  83 H :    0.041367
  84 H :    0.053704
  85 H :    0.060519
  86 H :    0.055249
  87 H :    0.057038
  88 H :   -0.014479
  89 H :    0.047029
Sum of atomic charges:   -0.0000000

LOEWDIN ATOMIC CHARGES
----------------------
   0 C :   -0.017956
   1 N :    0.118304
   2 C :   -0.102379
   3 N :    0.183025
   4 C :   -0.013780
   5 N :   -0.132185
   6 C :   -0.037009
   7 N :    0.175146
   8 C :   -0.025662
   9 N :   -0.140636
  10 C :    0.023037
  11 N :    0.142650
  12 C :   -0.113537
  13 N :    0.166128
  14 C :   -0.022311
  15 N :    0.138167
  16 C :   -0.059316
  17 C :   -0.044879
  18 C :   -0.106480
  19 C :   -0.078178
  20 C :    0.005525
  21 C :   -0.121832
  22 C :    0.038268
  23 C :   -0.014580
  24 C :   -0.011837
  25 C :    0.029989
  26 C :   -0.109243
  27 C :   -0.117188
  28 C :   -0.027165
  29 C :   -0.098863
  30 C :   -0.030378
  31 C :    0.024715
  32 C :   -0.093702
  33 C :    0.081692
  34 C :   -0.014739
  35 C :    0.022301
  36 C :    0.035210
  37 C :   -0.093999
  38 C :   -0.051136
  39 C :   -0.017977
  40 C :   -0.108290
  41 C :   -0.092551
  42 C :   -0.010741
  43 C :   -0.099477
  44 C :    0.032551
  45 C :   -0.028509
  46 C :    0.001147
  47 C :    0.029362
  48 C :   -0.095403
  49 C :   -0.069117
  50 C :   -0.018779
  51 C :   -0.109813
  52 H :    0.022920
  53 H :    0.002485
  54 H :    0.029720
  55 H :    0.022326
  56 H :    0.021481
  57 H :    0.026596
  58 H :    0.026538
  59 H :    0.009969
  60 H :    0.026328
  61 H :    0.060029
  62 H :    0.061957
  63 H :    0.030999
  64 H :    0.008501
  65 H :    0.045842
  66 H :    0.029408
  67 H :    0.028475
  68 H :    0.031725
  69 H :    0.030457
  70 H :   -0.004649
  71 H :    0.043740
  72 H :    0.037725
  73 H :    0.007178
  74 H :    0.050723
  75 H :    0.037322
  76 H :    0.034808
  77 H :    0.036174
  78 H :    0.035830
  79 H :    0.003099
  80 H :    0.050666
  81 H :    0.028984
  82 H :   -0.002892
  83 H :    0.042260
  84 H :    0.029657
  85 H :    0.027209
  86 H :    0.030041
  87 H :    0.031325
  88 H :    0.002392
  89 H :    0.045069

  Mayer bond orders larger than 0.100000
B(  0-C ,  1-N ) :   1.0983 B(  0-C , 17-C ) :   1.7136 B(  0-C , 52-H ) :   0.9636
B(  1-N ,  8-C ) :   1.0854 B(  1-N , 10-C ) :   0.9785 B(  2-C , 12-C ) :   1.4931
B(  2-C , 16-C ) :   1.3678 B(  2-C , 53-H ) :   0.9742 B(  3-N , 14-C ) :   1.2200
B(  3-N , 16-C ) :   1.1854 B(  3-N , 61-H ) :   0.8991 B(  4-C ,  6-C ) :   1.2137
B(  4-C , 17-C ) :   1.2128 B(  4-C , 18-C ) :   1.4656 B(  5-N , 19-C ) :   1.4565
B(  5-N , 27-C ) :   1.3738 B(  6-C ,  8-C ) :   1.7190 B(  6-C , 54-H ) :   0.9227
B(  7-N , 30-C ) :   1.1947 B(  7-N , 38-C ) :   1.1903 B(  7-N , 62-H ) :   0.8966
B(  8-C , 55-H ) :   0.9650 B(  9-N , 41-C ) :   1.3926 B(  9-N , 49-C ) :   1.4273
B( 10-C , 56-H ) :   0.9773 B( 10-C , 57-H ) :   0.9831 B( 10-C , 58-H ) :   0.9834
B( 11-N , 20-C ) :   1.1320 B( 11-N , 24-C ) :   1.1081 B( 11-N , 25-C ) :   0.9596
B( 12-C , 14-C ) :   1.3584 B( 12-C , 59-H ) :   0.9557 B( 13-N , 31-C ) :   1.1620
B( 13-N , 35-C ) :   1.1591 B( 13-N , 36-C ) :   0.9415 B( 14-C , 18-C ) :   1.1197
B( 15-N , 42-C ) :   1.1070 B( 15-N , 46-C ) :   1.1233 B( 15-N , 47-C ) :   0.9617
B( 16-C , 51-C ) :   1.1676 B( 17-C , 60-H ) :   0.9234 B( 18-C , 19-C ) :   1.1184
B( 19-C , 21-C ) :   1.2512 B( 20-C , 28-C ) :   1.6274 B( 20-C , 63-H ) :   0.9702
B( 21-C , 26-C ) :   1.5913 B( 21-C , 64-H ) :   0.9546 B( 22-C , 23-C ) :   1.2905
B( 22-C , 28-C ) :   1.2651 B( 22-C , 29-C ) :   1.2238 B( 23-C , 24-C ) :   1.6188
B( 23-C , 65-H ) :   0.9704 B( 24-C , 66-H ) :   0.9695 B( 25-C , 67-H ) :   0.9760
B( 25-C , 68-H ) :   0.9828 B( 25-C , 69-H ) :   0.9823 B( 26-C , 27-C ) :   1.2532
B( 26-C , 70-H ) :   0.9682 B( 27-C , 29-C ) :   1.2076 B( 28-C , 71-H ) :   0.9720
B( 29-C , 30-C ) :   1.2472 B( 30-C , 32-C ) :   1.2780 B( 31-C , 39-C ) :   1.5882
B( 31-C , 72-H ) :   0.9681 B( 32-C , 37-C ) :   1.5811 B( 32-C , 73-H ) :   0.9786
B( 33-C , 34-C ) :   1.3077 B( 33-C , 39-C ) :   1.3033 B( 33-C , 40-C ) :   1.1756
B( 34-C , 35-C ) :   1.5853 B( 34-C , 74-H ) :   0.9696 B( 35-C , 75-H ) :   0.9681
B( 36-C , 76-H ) :   0.9767 B( 36-C , 77-H ) :   0.9816 B( 36-C , 78-H ) :   0.9823
B( 37-C , 38-C ) :   1.2835 B( 37-C , 79-H ) :   0.9765 B( 38-C , 40-C ) :   1.2350
B( 39-C , 80-H ) :   0.9705 B( 40-C , 41-C ) :   1.2503 B( 41-C , 43-C ) :   1.1857
B( 42-C , 50-C ) :   1.6346 B( 42-C , 81-H ) :   0.9696 B( 43-C , 48-C ) :   1.6667
B( 43-C , 82-H ) :   0.9721 B( 44-C , 45-C ) :   1.2625 B( 44-C , 50-C ) :   1.2710
B( 44-C , 51-C ) :   1.2634 B( 45-C , 46-C ) :   1.6358 B( 45-C , 83-H ) :   0.9719
B( 46-C , 84-H ) :   0.9700 B( 47-C , 85-H ) :   0.9762 B( 47-C , 86-H ) :   0.9829
B( 47-C , 87-H ) :   0.9825 B( 48-C , 49-C ) :   1.1893 B( 48-C , 88-H ) :   0.9749
B( 49-C , 51-C ) :   1.2426 B( 50-C , 89-H ) :   0.9708

MP2 TOTAL ENERGY:    -2130.839939261 Eh
FINAL SINGLE POINT ENERGY     -2130.839939260789

DIPOLE MOMENT
-------------
                                X             Y             Z
Electronic contribution:      2.67544      -4.37611      -0.07312
Nuclear contribution   :     -0.02148       0.17331       0.08434
                        -----------------------------------------
Total Dipole Moment    :      2.65396      -4.20280       0.01122
                        -----------------------------------------
Magnitude (a.u.)       :      4.97063
Magnitude (Debye)      :     12.63434

Rotational constants in cm-1:     0.001503     0.001477     0.000760
Rotational constants in MHz :    45.061029    44.282348    22.788924

                             ****ORCA TERMINATED NORMALLY****
TOTAL RUN TIME: 0 days 1 hours 5 minutes 14 seconds 437 msec
