                         Program Version 5.0.4 -  RELEASE  -
|  1> ! PAL2
|  2> ! mp2 cc-pvdz TightSCF  NoKeepInts
|  3>
|  4> %scf
|  5>   MaxCore 2000
|  6> end
|  7> %mp2
|  8>   MaxCore 2000
|  9> end
| 10> * xyz 0 1
| 11>    C       -4.95400         5.18200         0.14800
| 12>    C        1.47400         4.04100         0.05700
| 13>    C       -2.80200         4.09300         0.04900
| 14>    C       -2.21800         5.36700        -0.02100
| 15>    C       -3.01200         6.49600        -0.00200
| 16>    C       -5.18000         7.62400         0.13500
| 17>    C        0.13200         4.30700         0.06100
| 18>    C       -0.56900         3.05600         0.04700
| 19>    C        1.64900         2.61800         0.02300
| 20>    C       -4.20100         4.02300         0.13700
| 21>    N       -4.35900         6.39400         0.07800
| 22>    N        0.38800         2.06700         0.02500
| 23>    N       -2.01000         0.39500        -0.07500
| 24>    N       -0.38800        -2.07400        -0.02700
| 25>    N        2.01000        -0.40100         0.06500
| 26>    C       -1.96000         2.86100         0.02400
| 27>    C       -2.62300         1.61500        -0.01800
| 28>    C       -5.57300        -4.32900         1.06600
| 29>    C       -4.07300         1.47100         0.05600
| 30>    C       -4.10600        -2.75600        -0.02600
| 31>    C       -4.99500        -2.75700        -1.11100
| 32>    C       -6.13200        -3.54200        -1.07600
| 33>    C       -7.65100        -5.11300         0.04000
| 34>    C       -4.32400         0.14100         0.03700
| 35>    C       -3.02500        -0.52000        -0.04800
| 36>    C       -4.42200        -3.56600         1.07500
| 37>    N       -6.40700        -4.31300         0.00100
| 38>    C       -2.86700        -1.92200        -0.04000
| 39>    C       -1.65000        -2.62400        -0.02700
| 40>    C        3.56800        -6.14200        -1.04000
| 41>    C       -1.47600        -4.04900        -0.03400
| 42>    C        2.80300        -4.09900        -0.00800
| 43>    C        3.65700        -4.38400         1.06900
| 44>    C        4.42700        -5.53000         1.05900
| 45>    C        5.24500        -7.58800         0.01400
| 46>    C       -0.13400        -4.31500        -0.02200
| 47>    C        0.56800        -3.06400        -0.02700
| 48>    C        2.77500        -5.01200        -1.07400
| 49>    N        4.37600        -6.39100         0.01700
| 50>    C        1.95900        -2.86900        -0.00900
| 51>    C        2.62100        -1.62200         0.00900
| 52>    C        5.54300         4.33900        -1.13000
| 53>    C        4.07000        -1.47900        -0.09400
| 54>    C        4.10400         2.75100        -0.02100
| 55>    C        5.02700         2.72900         1.03600
| 56>    C        6.16600         3.50900         0.97800
| 57>    C        7.61900         5.15300        -0.11500
| 58>    C        4.32100        -0.14800        -0.09200
| 59>    C        3.02500         0.51400         0.01500
| 60>    C        4.38700         3.58200        -1.11500
| 61>    C        2.86600         1.91600         0.01300
| 62>    N        6.41300         4.29600        -0.09500
| 63>    H       -6.03500         5.17500         0.20200
| 64>    H        2.27400         4.76600         0.08100
| 65>    H       -1.14300         5.48700        -0.08100
| 66>    H       -2.60700         7.49900        -0.04500
| 67>    H       -5.24900         7.95800         1.17200
| 68>    H       -4.70500         8.39200        -0.47600
| 69>    H       -6.17400         7.40000        -0.25300
| 70>    H       -0.33200         5.28200         0.06900
| 71>    H       -4.71200         3.06800         0.18000
| 72>    H        0.18200         1.07200         0.00500
| 73>    H       -0.18300        -1.08000        -0.02100
| 74>    H       -5.86400        -4.96200         1.89500
| 75>    H       -4.79400         2.27200         0.13900
| 76>    H       -4.80000        -2.16000        -1.99400
| 77>    H       -6.84100        -3.58200        -1.89300
| 78>    H       -8.42800        -4.53600         0.54600
| 79>    H       -7.95600        -5.33700        -0.98100
| 80>    H       -7.45600        -6.03700         0.58400
| 81>    H       -5.28700        -0.34400         0.10000
| 82>    H       -3.78000        -3.60100         1.94700
| 83>    H        3.58700        -6.86800        -1.84300
| 84>    H       -2.27600        -4.77400        -0.05000
| 85>    H        3.71400        -3.72400         1.92600
| 86>    H        5.09200        -5.79500         1.87100
| 87>    H        6.20500        -7.32900        -0.43900
| 88>    H        5.39300        -7.91700         1.04200
| 89>    H        4.75900        -8.37300        -0.56400
| 90>    H        0.32900        -5.29000        -0.00800
| 91>    H        2.14600        -4.84200        -1.94000
| 92>    H        5.80800         4.98600        -1.95600
| 93>    H        4.78800        -2.28100        -0.18500
| 94>    H        4.86000         2.11400         1.91200
| 95>    H        6.90100         3.53100         1.77200
| 96>    H        7.38300         6.10900         0.35600
| 97>    H        8.41400         4.65200         0.43500
| 98>    H        7.92100         5.31000        -1.15000
| 99>    H        5.28300         0.33600        -0.17900
|100>    H        3.72000         3.63200        -1.96700
|101> *
|102>
|103>                          ****END OF INPUT****

CARTESIAN COORDINATES (ANGSTROEM)
---------------------------------
  C     -4.954000    5.182000    0.148000
  C      1.474000    4.041000    0.057000
  C     -2.802000    4.093000    0.049000
  C     -2.218000    5.367000   -0.021000
  C     -3.012000    6.496000   -0.002000
  C     -5.180000    7.624000    0.135000
  C      0.132000    4.307000    0.061000
  C     -0.569000    3.056000    0.047000
  C      1.649000    2.618000    0.023000
  C     -4.201000    4.023000    0.137000
  N     -4.359000    6.394000    0.078000
  N      0.388000    2.067000    0.025000
  N     -2.010000    0.395000   -0.075000
  N     -0.388000   -2.074000   -0.027000
  N      2.010000   -0.401000    0.065000
  C     -1.960000    2.861000    0.024000
  C     -2.623000    1.615000   -0.018000
  C     -5.573000   -4.329000    1.066000
  C     -4.073000    1.471000    0.056000
  C     -4.106000   -2.756000   -0.026000
  C     -4.995000   -2.757000   -1.111000
  C     -6.132000   -3.542000   -1.076000
  C     -7.651000   -5.113000    0.040000
  C     -4.324000    0.141000    0.037000
  C     -3.025000   -0.520000   -0.048000
  C     -4.422000   -3.566000    1.075000
  N     -6.407000   -4.313000    0.001000
  C     -2.867000   -1.922000   -0.040000
  C     -1.650000   -2.624000   -0.027000
  C      3.568000   -6.142000   -1.040000
  C     -1.476000   -4.049000   -0.034000
  C      2.803000   -4.099000   -0.008000
  C      3.657000   -4.384000    1.069000
  C      4.427000   -5.530000    1.059000
  C      5.245000   -7.588000    0.014000
  C     -0.134000   -4.315000   -0.022000
  C      0.568000   -3.064000   -0.027000
  C      2.775000   -5.012000   -1.074000
  N      4.376000   -6.391000    0.017000
  C      1.959000   -2.869000   -0.009000
  C      2.621000   -1.622000    0.009000
  C      5.543000    4.339000   -1.130000
  C      4.070000   -1.479000   -0.094000
  C      4.104000    2.751000   -0.021000
  C      5.027000    2.729000    1.036000
  C      6.166000    3.509000    0.978000
  C      7.619000    5.153000   -0.115000
  C      4.321000   -0.148000   -0.092000
  C      3.025000    0.514000    0.015000
  C      4.387000    3.582000   -1.115000
  C      2.866000    1.916000    0.013000
  N      6.413000    4.296000   -0.095000
  H     -6.035000    5.175000    0.202000
  H      2.274000    4.766000    0.081000
  H     -1.143000    5.487000   -0.081000
  H     -2.607000    7.499000   -0.045000
  H     -5.249000    7.958000    1.172000
  H     -4.705000    8.392000   -0.476000
  H     -6.174000    7.400000   -0.253000
  H     -0.332000    5.282000    0.069000
  H     -4.712000    3.068000    0.180000
  H      0.182000    1.072000    0.005000
  H     -0.183000   -1.080000   -0.021000
  H     -5.864000   -4.962000    1.895000
  H     -4.794000    2.272000    0.139000
  H     -4.800000   -2.160000   -1.994000
  H     -6.841000   -3.582000   -1.893000
  H     -8.428000   -4.536000    0.546000
  H     -7.956000   -5.337000   -0.981000
  H     -7.456000   -6.037000    0.584000
  H     -5.287000   -0.344000    0.100000
  H     -3.780000   -3.601000    1.947000
  H      3.587000   -6.868000   -1.843000
  H     -2.276000   -4.774000   -0.050000
  H      3.714000   -3.724000    1.926000
  H      5.092000   -5.795000    1.871000
  H      6.205000   -7.329000   -0.439000
  H      5.393000   -7.917000    1.042000
  H      4.759000   -8.373000   -0.564000
  H      0.329000   -5.290000   -0.008000
  H      2.146000   -4.842000   -1.940000
  H      5.808000    4.986000   -1.956000
  H      4.788000   -2.281000   -0.185000
  H      4.860000    2.114000    1.912000
  H      6.901000    3.531000    1.772000
  H      7.383000    6.109000    0.356000
  H      8.414000    4.652000    0.435000
  H      7.921000    5.310000   -1.150000
  H      5.283000    0.336000   -0.179000
  H      3.720000    3.632000   -1.967000

 Total Charge           Charge          ....    0
 Multiplicity           Mult            ....    1
 Number of Electrons    NEL             ....  358
 Basis Dimension        Dim             ....  918

ORBITAL ENERGIES
----------------

  NO   OCC          E(Eh)            E(eV)
   0   2.0000     -15.679465      -426.6599
   1   2.0000     -15.633894      -425.4199
   2   2.0000     -15.631610      -425.3577
   3   2.0000     -15.588471      -424.1839
   4   2.0000     -15.524977      -422.4561
   5   2.0000     -15.515377      -422.1949
   6   2.0000     -15.453526      -420.5118
   7   2.0000     -15.439491      -420.1299
   8   2.0000     -11.329155      -308.2820
   9   2.0000     -11.328040      -308.2516
  10   2.0000     -11.327706      -308.2426
  11   2.0000     -11.299296      -307.4695
  12   2.0000     -11.298240      -307.4407
  13   2.0000     -11.292965      -307.2972
  14   2.0000     -11.291012      -307.2440
  15   2.0000     -11.286435      -307.1195
  16   2.0000     -11.286339      -307.1169
  17   2.0000     -11.281712      -306.9910
  18   2.0000     -11.269779      -306.6663
  19   2.0000     -11.263049      -306.4831
  20   2.0000     -11.262058      -306.4562
  21   2.0000     -11.250546      -306.1429
  22   2.0000     -11.248794      -306.0953
  23   2.0000     -11.237660      -305.7923
  24   2.0000     -11.236385      -305.7576
  25   2.0000     -11.231101      -305.6138
  26   2.0000     -11.230414      -305.5951
  27   2.0000     -11.229571      -305.5722
  28   2.0000     -11.229403      -305.5676
  29   2.0000     -11.211006      -305.0670
  30   2.0000     -11.209383      -305.0228
  31   2.0000     -11.194351      -304.6138
  32   2.0000     -11.192355      -304.5595
  33   2.0000     -11.190970      -304.5218
  34   2.0000     -11.188061      -304.4426
  35   2.0000     -11.187944      -304.4394
  36   2.0000     -11.186556      -304.4017
  37   2.0000     -11.174432      -304.0718
  38   2.0000     -11.172463      -304.0182
  39   2.0000     -11.170779      -303.9723
  40   2.0000     -11.170630      -303.9683
  41   2.0000     -11.168388      -303.9073
  42   2.0000     -11.166936      -303.8678
  43   2.0000     -11.161462      -303.7188
  44   2.0000     -11.161393      -303.7169
  45   2.0000     -11.156579      -303.5859
  46   2.0000     -11.156315      -303.5788
  47   2.0000     -11.150765      -303.4277
  48   2.0000     -11.147000      -303.3253
  49   2.0000     -11.135752      -303.0192
  50   2.0000     -11.130105      -302.8656
  51   2.0000     -11.118359      -302.5459
  52   2.0000      -1.360084       -37.0098
  53   2.0000      -1.321155       -35.9505
  54   2.0000      -1.319426       -35.9034
  55   2.0000      -1.280410       -34.8417
  56   2.0000      -1.226052       -33.3626
  57   2.0000      -1.210366       -32.9357
  58   2.0000      -1.173140       -31.9228
  59   2.0000      -1.150897       -31.3175
  60   2.0000      -1.143343       -31.1119
  61   2.0000      -1.110266       -30.2119
  62   2.0000      -1.108751       -30.1707
  63   2.0000      -1.081774       -29.4366
  64   2.0000      -1.077687       -29.3254
  65   2.0000      -1.045349       -28.4454
  66   2.0000      -1.044088       -28.4111
  67   2.0000      -1.040858       -28.3232
  68   2.0000      -1.015438       -27.6315
  69   2.0000      -1.014750       -27.6127
  70   2.0000      -1.009141       -27.4601
  71   2.0000      -0.993436       -27.0328
  72   2.0000      -0.985666       -26.8213
  73   2.0000      -0.981709       -26.7137
  74   2.0000      -0.974258       -26.5109
  75   2.0000      -0.962096       -26.1800
  76   2.0000      -0.954656       -25.9775
  77   2.0000      -0.947078       -25.7713
  78   2.0000      -0.939635       -25.5688
  79   2.0000      -0.916765       -24.9464
  80   2.0000      -0.910377       -24.7726
  81   2.0000      -0.898597       -24.4521
  82   2.0000      -0.877257       -23.8714
  83   2.0000      -0.872222       -23.7344
  84   2.0000      -0.870794       -23.6955
  85   2.0000      -0.861809       -23.4510
  86   2.0000      -0.845839       -23.0164
  87   2.0000      -0.838964       -22.8294
  88   2.0000      -0.829422       -22.5697
  89   2.0000      -0.796310       -21.6687
  90   2.0000      -0.789447       -21.4820
  91   2.0000      -0.776374       -21.1262
  92   2.0000      -0.752827       -20.4855
  93   2.0000      -0.734326       -19.9820
  94   2.0000      -0.729148       -19.8411
  95   2.0000      -0.726948       -19.7813
  96   2.0000      -0.720618       -19.6090
  97   2.0000      -0.717721       -19.5302
  98   2.0000      -0.714022       -19.4295
  99   2.0000      -0.700133       -19.0516
 100   2.0000      -0.698241       -19.0001
 101   2.0000      -0.694623       -18.9016
 102   2.0000      -0.685264       -18.6470
 103   2.0000      -0.684079       -18.6147
 104   2.0000      -0.678945       -18.4750
 105   2.0000      -0.674364       -18.3504
 106   2.0000      -0.672700       -18.3051
 107   2.0000      -0.661196       -17.9920
 108   2.0000      -0.658201       -17.9106
 109   2.0000      -0.652876       -17.7657
 110   2.0000      -0.651960       -17.7407
 111   2.0000      -0.646019       -17.5791
 112   2.0000      -0.645596       -17.5676
 113   2.0000      -0.638198       -17.3663
 114   2.0000      -0.635538       -17.2939
 115   2.0000      -0.628775       -17.1098
 116   2.0000      -0.623152       -16.9568
 117   2.0000      -0.620894       -16.8954
 118   2.0000      -0.612871       -16.6771
 119   2.0000      -0.612238       -16.6599
 120   2.0000      -0.611603       -16.6426
 121   2.0000      -0.611196       -16.6315
 122   2.0000      -0.601565       -16.3694
 123   2.0000      -0.589433       -16.0393
 124   2.0000      -0.581638       -15.8272
 125   2.0000      -0.580657       -15.8005
 126   2.0000      -0.580334       -15.7917
 127   2.0000      -0.570857       -15.5338
 128   2.0000      -0.566608       -15.4182
 129   2.0000      -0.559818       -15.2334
 130   2.0000      -0.555984       -15.1291
 131   2.0000      -0.547601       -14.9010
 132   2.0000      -0.542650       -14.7663
 133   2.0000      -0.540295       -14.7022
 134   2.0000      -0.538851       -14.6629
 135   2.0000      -0.536028       -14.5861
 136   2.0000      -0.532100       -14.4792
 137   2.0000      -0.518110       -14.0985
 138   2.0000      -0.516719       -14.0606
 139   2.0000      -0.514159       -13.9910
 140   2.0000      -0.511644       -13.9225
 141   2.0000      -0.510068       -13.8797
 142   2.0000      -0.507375       -13.8064
 143   2.0000      -0.505819       -13.7640
 144   2.0000      -0.502253       -13.6670
 145   2.0000      -0.495733       -13.4896
 146   2.0000      -0.488403       -13.2901
 147   2.0000      -0.481347       -13.0981
 148   2.0000      -0.476376       -12.9628
 149   2.0000      -0.467574       -12.7233
 150   2.0000      -0.466081       -12.6827
 151   2.0000      -0.456007       -12.4086
 152   2.0000      -0.451186       -12.2774
 153   2.0000      -0.445258       -12.1161
 154   2.0000      -0.438160       -11.9230
 155   2.0000      -0.427894       -11.6436
 156   2.0000      -0.408963       -11.1285
 157   2.0000      -0.390825       -10.6349
 158   2.0000      -0.387539       -10.5455
 159   2.0000      -0.384318       -10.4578
 160   2.0000      -0.378186       -10.2910
 161   2.0000      -0.373160       -10.1542
 162   2.0000      -0.358867        -9.7653
 163   2.0000      -0.356617        -9.7040
 164   2.0000      -0.355693        -9.6789
 165   2.0000      -0.341545        -9.2939
 166   2.0000      -0.337492        -9.1836
 167   2.0000      -0.324748        -8.8368
 168   2.0000      -0.321822        -8.7572
 169   2.0000      -0.305255        -8.3064
 170   2.0000      -0.299209        -8.1419
 171   2.0000      -0.286077        -7.7846
 172   2.0000      -0.278197        -7.5701
 173   2.0000      -0.263266        -7.1638
 174   2.0000      -0.242416        -6.5965
 175   2.0000      -0.189975        -5.1695
 176   2.0000      -0.181396        -4.9360
 177   2.0000      -0.080150        -2.1810
 178   2.0000      -0.059569        -1.6209
 179   0.0000       0.028523         0.7762
 180   0.0000       0.065509         1.7826
 181   0.0000       0.090355         2.4587
 182   0.0000       0.106506         2.8982
 183   0.0000       0.117031         3.1846

MULLIKEN ATOMIC CHARGES
-----------------------
   0 C :    0.223701
   1 N :   -0.454687
   2 C :   -0.067167
   3 N :   -0.341384
   4 C :   -0.131474
   5 N :   -0.568722
   6 C :   -0.099223
   7 N :   -0.341015
   8 C :    0.224979
   9 N :   -0.562489
  10 C :    0.119247
  11 N :   -0.438427
  12 C :   -0.052179
  13 N :   -0.429410
  14 C :    0.213015
  15 N :   -0.440954
  16 C :    0.234487
  17 C :   -0.094675
  18 C :   -0.180691
  19 C :    0.213669
  20 C :    0.213736
  21 C :   -0.063976
  22 C :   -0.090765
  23 C :   -0.039517
  24 C :    0.193236
  25 C :    0.114623
  26 C :   -0.079508
  27 C :    0.219328
  28 C :   -0.061819
  29 C :   -0.182608
  30 C :    0.245024
  31 C :    0.230336
  32 C :   -0.061131
  33 C :   -0.060055
  34 C :   -0.051112
  35 C :    0.228451
  36 C :    0.108239
  37 C :   -0.064778
  38 C :    0.231483
  39 C :   -0.057742
  40 C :   -0.182019
  41 C :    0.225941
  42 C :    0.197091
  43 C :   -0.072830
  44 C :   -0.089616
  45 C :   -0.061581
  46 C :    0.211655
  47 C :    0.115372
  48 C :   -0.066573
  49 C :    0.237871
  50 C :   -0.046193
  51 C :   -0.192922
  52 H :    0.031566
  53 H :   -0.018734
  54 H :    0.052563
  55 H :    0.031540
  56 H :    0.049549
  57 H :    0.047026
  58 H :    0.047177
  59 H :   -0.020863
  60 H :    0.076836
  61 H :    0.171057
  62 H :    0.175442
  63 H :    0.055237
  64 H :   -0.045449
  65 H :    0.046940
  66 H :    0.055461
  67 H :    0.062326
  68 H :    0.057175
  69 H :    0.056325
  70 H :   -0.031275
  71 H :    0.044782
  72 H :    0.071371
  73 H :   -0.007941
  74 H :    0.060473
  75 H :    0.070806
  76 H :    0.075017
  77 H :    0.068045
  78 H :    0.067338
  79 H :   -0.016749
  80 H :    0.061380
  81 H :    0.054326
  82 H :   -0.025096
  83 H :    0.041941
  84 H :    0.054193
  85 H :    0.060835
  86 H :    0.055549
  87 H :    0.057236
  88 H :   -0.014498
  89 H :    0.046853
Sum of atomic charges:   -0.0000000

LOEWDIN ATOMIC CHARGES
----------------------
   0 C :   -0.020778
   1 N :    0.123158
   2 C :   -0.099987
   3 N :    0.182249
   4 C :   -0.009868
   5 N :   -0.134959
   6 C :   -0.020675
   7 N :    0.175067
   8 C :   -0.017786
   9 N :   -0.140715
  10 C :    0.022766
  11 N :    0.141815
  12 C :   -0.092221
  13 N :    0.166326
  14 C :   -0.014661
  15 N :    0.138782
  16 C :   -0.060916
  17 C :   -0.014118
  18 C :   -0.116142
  19 C :   -0.072317
  20 C :    0.004802
  21 C :   -0.091919
  22 C :    0.037058
  23 C :   -0.014517
  24 C :   -0.013163
  25 C :    0.029778
  26 C :   -0.107062
  27 C :   -0.117213
  28 C :   -0.027736
  29 C :   -0.098659
  30 C :   -0.030468
  31 C :    0.024485
  32 C :   -0.093903
  33 C :    0.082332
  34 C :   -0.015115
  35 C :    0.023160
  36 C :    0.035254
  37 C :   -0.094467
  38 C :   -0.051772
  39 C :   -0.017628
  40 C :   -0.109293
  41 C :   -0.091227
  42 C :   -0.010681
  43 C :   -0.099589
  44 C :    0.033738
  45 C :   -0.028266
  46 C :    0.002015
  47 C :    0.029499
  48 C :   -0.094729
  49 C :   -0.069793
  50 C :   -0.018641
  51 C :   -0.108238
  52 H :    0.021604
  53 H :    0.002467
  54 H :   -0.015868
  55 H :    0.021751
  56 H :    0.021853
  57 H :    0.026070
  58 H :    0.027004
  59 H :    0.002159
  60 H :   -0.021935
  61 H :    0.060320
  62 H :    0.061907
  63 H :    0.030718
  64 H :   -0.003312
  65 H :    0.045834
  66 H :    0.029147
  67 H :    0.028171
  68 H :    0.031598
  69 H :    0.030275
  70 H :   -0.004964
  71 H :    0.043460
  72 H :    0.037744
  73 H :    0.007178
  74 H :    0.050722
  75 H :    0.037420
  76 H :    0.034854
  77 H :    0.036209
  78 H :    0.035890
  79 H :    0.002890
  80 H :    0.050784
  81 H :    0.029052
  82 H :   -0.002847
  83 H :    0.042510
  84 H :    0.029893
  85 H :    0.027367
  86 H :    0.030183
  87 H :    0.031414
  88 H :    0.002397
  89 H :    0.045017

  Mayer bond orders larger than 0.100000
B(  0-C ,  1-N ) :   1.0960 B(  0-C , 17-C ) :   1.7371 B(  0-C , 52-H ) :   0.9581
B(  1-N ,  8-C ) :   1.1001 B(  1-N , 10-C ) :   0.9769 B(  2-C , 12-C ) :   1.4834
B(  2-C , 16-C ) :   1.3798 B(  2-C , 53-H ) :   0.9702 B(  3-N , 14-C ) :   1.2258
B(  3-N , 16-C ) :   1.1769 B(  3-N , 61-H ) :   0.8974 B(  4-C ,  6-C ) :   1.2310
B(  4-C , 17-C ) :   1.2299 B(  4-C , 18-C ) :   1.4888 B(  5-N , 19-C ) :   1.4669
B(  5-N , 27-C ) :   1.3670 B(  6-C ,  8-C ) :   1.7285 B(  6-C , 54-H ) :   0.8600
B(  7-N , 30-C ) :   1.1945 B(  7-N , 38-C ) :   1.1902 B(  7-N , 62-H ) :   0.8967
B(  8-C , 55-H ) :   0.9595 B(  9-N , 41-C ) :   1.3950 B(  9-N , 49-C ) :   1.4244
B( 10-C , 56-H ) :   0.9777 B( 10-C , 57-H ) :   0.9824 B( 10-C , 58-H ) :   0.9836
B( 11-N , 20-C ) :   1.1312 B( 11-N , 24-C ) :   1.1065 B( 11-N , 25-C ) :   0.9603
B( 12-C , 14-C ) :   1.3627 B( 12-C , 59-H ) :   0.9004 B( 13-N , 31-C ) :   1.1617
B( 13-N , 35-C ) :   1.1603 B( 13-N , 36-C ) :   0.9413 B( 14-C , 18-C ) :   1.1162
B( 15-N , 42-C ) :   1.1075 B( 15-N , 46-C ) :   1.1245 B( 15-N , 47-C ) :   0.9613
B( 16-C , 51-C ) :   1.1678 B( 17-C , 60-H ) :   0.8393 B( 18-C , 19-C ) :   1.1156
B( 19-C , 21-C ) :   1.2541 B( 20-C , 28-C ) :   1.6287 B( 20-C , 63-H ) :   0.9702
B( 21-C , 26-C ) :   1.5807 B( 21-C , 64-H ) :   0.8839 B( 22-C , 23-C ) :   1.2897
B( 22-C , 28-C ) :   1.2635 B( 22-C , 29-C ) :   1.2255 B( 23-C , 24-C ) :   1.6200
B( 23-C , 65-H ) :   0.9703 B( 24-C , 66-H ) :   0.9696 B( 25-C , 67-H ) :   0.9760
B( 25-C , 68-H ) :   0.9828 B( 25-C , 69-H ) :   0.9823 B( 26-C , 27-C ) :   1.2678
B( 26-C , 70-H ) :   0.9651 B( 27-C , 29-C ) :   1.2074 B( 28-C , 71-H ) :   0.9720
B( 29-C , 30-C ) :   1.2470 B( 30-C , 32-C ) :   1.2789 B( 31-C , 39-C ) :   1.5878
B( 31-C , 72-H ) :   0.9681 B( 32-C , 37-C ) :   1.5802 B( 32-C , 73-H ) :   0.9786
B( 33-C , 34-C ) :   1.3070 B( 33-C , 39-C ) :   1.3040 B( 33-C , 40-C ) :   1.1764
B( 34-C , 35-C ) :   1.5854 B( 34-C , 74-H ) :   0.9696 B( 35-C , 75-H ) :   0.9681
B( 36-C , 76-H ) :   0.9768 B( 36-C , 77-H ) :   0.9816 B( 36-C , 78-H ) :   0.9823
B( 37-C , 38-C ) :   1.2846 B( 37-C , 79-H ) :   0.9764 B( 38-C , 40-C ) :   1.2341
B( 39-C , 80-H ) :   0.9705 B( 40-C , 41-C ) :   1.2498 B( 41-C , 43-C ) :   1.1848
B( 42-C , 50-C ) :   1.6330 B( 42-C , 81-H ) :   0.9697 B( 43-C , 48-C ) :   1.6682
B( 43-C , 82-H ) :   0.9721 B( 44-C , 45-C ) :   1.2634 B( 44-C , 50-C ) :   1.2726
B( 44-C , 51-C ) :   1.2610 B( 45-C , 46-C ) :   1.6346 B( 45-C , 83-H ) :   0.9718
B( 46-C , 84-H ) :   0.9700 B( 47-C , 85-H ) :   0.9762 B( 47-C , 86-H ) :   0.9829
B( 47-C , 87-H ) :   0.9824 B( 48-C , 49-C ) :   1.1882 B( 48-C , 88-H ) :   0.9748
B( 49-C , 51-C ) :   1.2455 B( 50-C , 89-H ) :   0.9708 B( 54-H , 59-H ) :   0.1160
B( 60-H , 64-H ) :   0.1344

MP2 TOTAL ENERGY:    -2130.732878796 Eh
FINAL SINGLE POINT ENERGY     -2130.732878795663

DIPOLE MOMENT
-------------
                                X             Y             Z
Electronic contribution:      2.70649      -4.32681      -0.19136
Nuclear contribution   :      0.06719       0.23126       0.19431
                        -----------------------------------------
Total Dipole Moment    :      2.77369      -4.09555       0.00294
                        -----------------------------------------
Magnitude (a.u.)       :      4.94640
Magnitude (Debye)      :     12.57274

Rotational constants in cm-1:     0.001502     0.001480     0.000760
Rotational constants in MHz :    45.014253    44.359349    22.780545

                             ****ORCA TERMINATED NORMALLY****
TOTAL RUN TIME: 0 days 1 hours 22 minutes 11 seconds 44 msec
