                         Program Version 5.0.4 -  RELEASE  -
|  1> ! PAL2
|  2> ! mp2 cc-pvdz TightSCF  NoKeepInts
|  3>
|  4> %scf
|  5>   MaxCore 2000
|  6> end
|  7> %mp2
|  8>   MaxCore 2000
|  9> end
| 10> * xyz 0 1
| 11>    C       -3.11700         6.42800         0.57100
| 12>    C        1.47400         4.04100         0.05700
| 13>    C       -2.80200         4.09300         0.04900
| 14>    C       -4.12200         4.07400        -0.42800
| 15>    C       -4.88800         5.22200        -0.39200
| 16>    C       -5.22000         7.59800         0.09400
| 17>    C        0.13200         4.30700         0.06100
| 18>    C       -0.56900         3.05600         0.04700
| 19>    C        1.64900         2.61800         0.02300
| 20>    C       -2.31000         5.30700         0.55200
| 21>    N       -4.38600         6.37600         0.10500
| 22>    N        0.38800         2.06700         0.02500
| 23>    N       -2.01000         0.39500        -0.07500
| 24>    N       -0.38800        -2.07400        -0.02700
| 25>    N        2.01000        -0.40100         0.06500
| 26>    C       -1.96000         2.86100         0.02400
| 27>    C       -2.62300         1.61500        -0.01800
| 28>    C       -5.57300        -4.32900         1.06600
| 29>    C       -4.07300         1.47100         0.05600
| 30>    C       -4.10600        -2.75600        -0.02600
| 31>    C       -4.99500        -2.75700        -1.11100
| 32>    C       -6.13200        -3.54200        -1.07600
| 33>    C       -7.65100        -5.11300         0.04000
| 34>    C       -4.32400         0.14100         0.03700
| 35>    C       -3.02500        -0.52000        -0.04800
| 36>    C       -4.42200        -3.56600         1.07500
| 37>    N       -6.40700        -4.31300         0.00100
| 38>    C       -2.86700        -1.92200        -0.04000
| 39>    C       -1.65000        -2.62400        -0.02700
| 40>    C        3.56800        -6.14200        -1.04000
| 41>    C       -1.47600        -4.04900        -0.03400
| 42>    C        2.80300        -4.09900        -0.00800
| 43>    C        3.65700        -4.38400         1.06900
| 44>    C        4.42700        -5.53000         1.05900
| 45>    C        5.24500        -7.58800         0.01400
| 46>    C       -0.13400        -4.31500        -0.02200
| 47>    C        0.56800        -3.06400        -0.02700
| 48>    C        2.77500        -5.01200        -1.07400
| 49>    N        4.37600        -6.39100         0.01700
| 50>    C        1.95900        -2.86900        -0.00900
| 51>    C        2.62100        -1.62200         0.00900
| 52>    C        5.54300         4.33900        -1.13000
| 53>    C        4.07000        -1.47900        -0.09400
| 54>    C        4.10400         2.75100        -0.02100
| 55>    C        5.02700         2.72900         1.03600
| 56>    C        6.16600         3.50900         0.97800
| 57>    C        7.61900         5.15300        -0.11500
| 58>    C        4.32100        -0.14800        -0.09200
| 59>    C        3.02500         0.51400         0.01500
| 60>    C        4.38700         3.58200        -1.11500
| 61>    C        2.86600         1.91600         0.01300
| 62>    N        6.41300         4.29600        -0.09500
| 63>    H       -2.78400         7.38200         0.96100
| 64>    H        2.27400         4.76600         0.08100
| 65>    H       -4.55600         3.17000        -0.83700
| 66>    H       -5.90700         5.25800        -0.75600
| 67>    H       -5.11500         8.09100        -0.87500
| 68>    H       -6.25900         7.31400         0.26000
| 69>    H       -4.88200         8.26000         0.89000
| 70>    H       -0.33200         5.28200         0.06900
| 71>    H       -1.30300         5.38300         0.94700
| 72>    H        0.18200         1.07200         0.00500
| 73>    H       -0.18300        -1.08000        -0.02100
| 74>    H       -5.86400        -4.96200         1.89500
| 75>    H       -4.79400         2.27200         0.13900
| 76>    H       -4.80000        -2.16000        -1.99400
| 77>    H       -6.84100        -3.58200        -1.89300
| 78>    H       -8.42800        -4.53600         0.54600
| 79>    H       -7.95600        -5.33700        -0.98100
| 80>    H       -7.45600        -6.03700         0.58400
| 81>    H       -5.28700        -0.34400         0.10000
| 82>    H       -3.78000        -3.60100         1.94700
| 83>    H        3.58700        -6.86800        -1.84300
| 84>    H       -2.27600        -4.77400        -0.05000
| 85>    H        3.71400        -3.72400         1.92600
| 86>    H        5.09200        -5.79500         1.87100
| 87>    H        6.20500        -7.32900        -0.43900
| 88>    H        5.39300        -7.91700         1.04200
| 89>    H        4.75900        -8.37300        -0.56400
| 90>    H        0.32900        -5.29000        -0.00800
| 91>    H        2.14600        -4.84200        -1.94000
| 92>    H        5.80800         4.98600        -1.95600
| 93>    H        4.78800        -2.28100        -0.18500
| 94>    H        4.86000         2.11400         1.91200
| 95>    H        6.90100         3.53100         1.77200
| 96>    H        7.38300         6.10900         0.35600
| 97>    H        8.41400         4.65200         0.43500
| 98>    H        7.92100         5.31000        -1.15000
| 99>    H        5.28300         0.33600        -0.17900
|100>    H        3.72000         3.63200        -1.96700
|101> *
|102>
|103>                          ****END OF INPUT****

CARTESIAN COORDINATES (ANGSTROEM)
---------------------------------
  C     -3.117000    6.428000    0.571000
  C      1.474000    4.041000    0.057000
  C     -2.802000    4.093000    0.049000
  C     -4.122000    4.074000   -0.428000
  C     -4.888000    5.222000   -0.392000
  C     -5.220000    7.598000    0.094000
  C      0.132000    4.307000    0.061000
  C     -0.569000    3.056000    0.047000
  C      1.649000    2.618000    0.023000
  C     -2.310000    5.307000    0.552000
  N     -4.386000    6.376000    0.105000
  N      0.388000    2.067000    0.025000
  N     -2.010000    0.395000   -0.075000
  N     -0.388000   -2.074000   -0.027000
  N      2.010000   -0.401000    0.065000
  C     -1.960000    2.861000    0.024000
  C     -2.623000    1.615000   -0.018000
  C     -5.573000   -4.329000    1.066000
  C     -4.073000    1.471000    0.056000
  C     -4.106000   -2.756000   -0.026000
  C     -4.995000   -2.757000   -1.111000
  C     -6.132000   -3.542000   -1.076000
  C     -7.651000   -5.113000    0.040000
  C     -4.324000    0.141000    0.037000
  C     -3.025000   -0.520000   -0.048000
  C     -4.422000   -3.566000    1.075000
  N     -6.407000   -4.313000    0.001000
  C     -2.867000   -1.922000   -0.040000
  C     -1.650000   -2.624000   -0.027000
  C      3.568000   -6.142000   -1.040000
  C     -1.476000   -4.049000   -0.034000
  C      2.803000   -4.099000   -0.008000
  C      3.657000   -4.384000    1.069000
  C      4.427000   -5.530000    1.059000
  C      5.245000   -7.588000    0.014000
  C     -0.134000   -4.315000   -0.022000
  C      0.568000   -3.064000   -0.027000
  C      2.775000   -5.012000   -1.074000
  N      4.376000   -6.391000    0.017000
  C      1.959000   -2.869000   -0.009000
  C      2.621000   -1.622000    0.009000
  C      5.543000    4.339000   -1.130000
  C      4.070000   -1.479000   -0.094000
  C      4.104000    2.751000   -0.021000
  C      5.027000    2.729000    1.036000
  C      6.166000    3.509000    0.978000
  C      7.619000    5.153000   -0.115000
  C      4.321000   -0.148000   -0.092000
  C      3.025000    0.514000    0.015000
  C      4.387000    3.582000   -1.115000
  C      2.866000    1.916000    0.013000
  N      6.413000    4.296000   -0.095000
  H     -2.784000    7.382000    0.961000
  H      2.274000    4.766000    0.081000
  H     -4.556000    3.170000   -0.837000
  H     -5.907000    5.258000   -0.756000
  H     -5.115000    8.091000   -0.875000
  H     -6.259000    7.314000    0.260000
  H     -4.882000    8.260000    0.890000
  H     -0.332000    5.282000    0.069000
  H     -1.303000    5.383000    0.947000
  H      0.182000    1.072000    0.005000
  H     -0.183000   -1.080000   -0.021000
  H     -5.864000   -4.962000    1.895000
  H     -4.794000    2.272000    0.139000
  H     -4.800000   -2.160000   -1.994000
  H     -6.841000   -3.582000   -1.893000
  H     -8.428000   -4.536000    0.546000
  H     -7.956000   -5.337000   -0.981000
  H     -7.456000   -6.037000    0.584000
  H     -5.287000   -0.344000    0.100000
  H     -3.780000   -3.601000    1.947000
  H      3.587000   -6.868000   -1.843000
  H     -2.276000   -4.774000   -0.050000
  H      3.714000   -3.724000    1.926000
  H      5.092000   -5.795000    1.871000
  H      6.205000   -7.329000   -0.439000
  H      5.393000   -7.917000    1.042000
  H      4.759000   -8.373000   -0.564000
  H      0.329000   -5.290000   -0.008000
  H      2.146000   -4.842000   -1.940000
  H      5.808000    4.986000   -1.956000
  H      4.788000   -2.281000   -0.185000
  H      4.860000    2.114000    1.912000
  H      6.901000    3.531000    1.772000
  H      7.383000    6.109000    0.356000
  H      8.414000    4.652000    0.435000
  H      7.921000    5.310000   -1.150000
  H      5.283000    0.336000   -0.179000
  H      3.720000    3.632000   -1.967000

 Total Charge           Charge          ....    0
 Multiplicity           Mult            ....    1
 Number of Electrons    NEL             ....  358
 Basis Dimension        Dim             ....  918

ORBITAL ENERGIES
----------------

  NO   OCC          E(Eh)            E(eV)
   0   2.0000     -15.677079      -426.5950
   1   2.0000     -15.636245      -425.4839
   2   2.0000     -15.629643      -425.3042
   3   2.0000     -15.587960      -424.1700
   4   2.0000     -15.525569      -422.4722
   5   2.0000     -15.515592      -422.2007
   6   2.0000     -15.452835      -420.4930
   7   2.0000     -15.441799      -420.1927
   8   2.0000     -11.327495      -308.2368
   9   2.0000     -11.326258      -308.2032
  10   2.0000     -11.325736      -308.1889
  11   2.0000     -11.300755      -307.5092
  12   2.0000     -11.296970      -307.4062
  13   2.0000     -11.294757      -307.3460
  14   2.0000     -11.289184      -307.1943
  15   2.0000     -11.288800      -307.1839
  16   2.0000     -11.284811      -307.0753
  17   2.0000     -11.279532      -306.9317
  18   2.0000     -11.270860      -306.6957
  19   2.0000     -11.261511      -306.4413
  20   2.0000     -11.260546      -306.4150
  21   2.0000     -11.253917      -306.2346
  22   2.0000     -11.250501      -306.1417
  23   2.0000     -11.239961      -305.8549
  24   2.0000     -11.234479      -305.7057
  25   2.0000     -11.232928      -305.6635
  26   2.0000     -11.232324      -305.6471
  27   2.0000     -11.228118      -305.5326
  28   2.0000     -11.227791      -305.5237
  29   2.0000     -11.211487      -305.0801
  30   2.0000     -11.209997      -305.0395
  31   2.0000     -11.196302      -304.6669
  32   2.0000     -11.190477      -304.5084
  33   2.0000     -11.189526      -304.4825
  34   2.0000     -11.188338      -304.4502
  35   2.0000     -11.186482      -304.3996
  36   2.0000     -11.185967      -304.3856
  37   2.0000     -11.185266      -304.3666
  38   2.0000     -11.184932      -304.3575
  39   2.0000     -11.174547      -304.0749
  40   2.0000     -11.174026      -304.0607
  41   2.0000     -11.169173      -303.9286
  42   2.0000     -11.169171      -303.9286
  43   2.0000     -11.160800      -303.7008
  44   2.0000     -11.159990      -303.6788
  45   2.0000     -11.158600      -303.6409
  46   2.0000     -11.156130      -303.5737
  47   2.0000     -11.154647      -303.5334
  48   2.0000     -11.146463      -303.3107
  49   2.0000     -11.137098      -303.0558
  50   2.0000     -11.131856      -302.9132
  51   2.0000     -11.121181      -302.6227
  52   2.0000      -1.358075       -36.9551
  53   2.0000      -1.323202       -36.0062
  54   2.0000      -1.317725       -35.8571
  55   2.0000      -1.281895       -34.8821
  56   2.0000      -1.226549       -33.3761
  57   2.0000      -1.209906       -32.9232
  58   2.0000      -1.172040       -31.8928
  59   2.0000      -1.152107       -31.3504
  60   2.0000      -1.141720       -31.0678
  61   2.0000      -1.111860       -30.2553
  62   2.0000      -1.107449       -30.1352
  63   2.0000      -1.079947       -29.3869
  64   2.0000      -1.078378       -29.3442
  65   2.0000      -1.047328       -28.4992
  66   2.0000      -1.042468       -28.3670
  67   2.0000      -1.039932       -28.2980
  68   2.0000      -1.015236       -27.6260
  69   2.0000      -1.011898       -27.5352
  70   2.0000      -1.008935       -27.4545
  71   2.0000      -0.993874       -27.0447
  72   2.0000      -0.986074       -26.8325
  73   2.0000      -0.981139       -26.6981
  74   2.0000      -0.971830       -26.4448
  75   2.0000      -0.960909       -26.1477
  76   2.0000      -0.953572       -25.9480
  77   2.0000      -0.945827       -25.7373
  78   2.0000      -0.935187       -25.4477
  79   2.0000      -0.918179       -24.9849
  80   2.0000      -0.908585       -24.7239
  81   2.0000      -0.894919       -24.3520
  82   2.0000      -0.875576       -23.8256
  83   2.0000      -0.873379       -23.7659
  84   2.0000      -0.868629       -23.6366
  85   2.0000      -0.857139       -23.3239
  86   2.0000      -0.839178       -22.8352
  87   2.0000      -0.836350       -22.7582
  88   2.0000      -0.824632       -22.4394
  89   2.0000      -0.797381       -21.6978
  90   2.0000      -0.790251       -21.5038
  91   2.0000      -0.752408       -20.4741
  92   2.0000      -0.745449       -20.2847
  93   2.0000      -0.733713       -19.9653
  94   2.0000      -0.725019       -19.7288
  95   2.0000      -0.722245       -19.6533
  96   2.0000      -0.716735       -19.5033
  97   2.0000      -0.713057       -19.4033
  98   2.0000      -0.707985       -19.2653
  99   2.0000      -0.697700       -18.9854
 100   2.0000      -0.696304       -18.9474
 101   2.0000      -0.685145       -18.6437
 102   2.0000      -0.682485       -18.5714
 103   2.0000      -0.679886       -18.5006
 104   2.0000      -0.679343       -18.4859
 105   2.0000      -0.672807       -18.3080
 106   2.0000      -0.670462       -18.2442
 107   2.0000      -0.660828       -17.9821
 108   2.0000      -0.655479       -17.8365
 109   2.0000      -0.654404       -17.8072
 110   2.0000      -0.649949       -17.6860
 111   2.0000      -0.644201       -17.5296
 112   2.0000      -0.643804       -17.5188
 113   2.0000      -0.638615       -17.3776
 114   2.0000      -0.636858       -17.3298
 115   2.0000      -0.627034       -17.0625
 116   2.0000      -0.622317       -16.9341
 117   2.0000      -0.619317       -16.8525
 118   2.0000      -0.614226       -16.7139
 119   2.0000      -0.613266       -16.6878
 120   2.0000      -0.609945       -16.5974
 121   2.0000      -0.609467       -16.5844
 122   2.0000      -0.599423       -16.3111
 123   2.0000      -0.586299       -15.9540
 124   2.0000      -0.582819       -15.8593
 125   2.0000      -0.580450       -15.7949
 126   2.0000      -0.578889       -15.7524
 127   2.0000      -0.574075       -15.6214
 128   2.0000      -0.568759       -15.4767
 129   2.0000      -0.559206       -15.2168
 130   2.0000      -0.550914       -14.9911
 131   2.0000      -0.547713       -14.9040
 132   2.0000      -0.543298       -14.7839
 133   2.0000      -0.542213       -14.7544
 134   2.0000      -0.539461       -14.6795
 135   2.0000      -0.534717       -14.5504
 136   2.0000      -0.528560       -14.3829
 137   2.0000      -0.520915       -14.1748
 138   2.0000      -0.518306       -14.1038
 139   2.0000      -0.514235       -13.9930
 140   2.0000      -0.511819       -13.9273
 141   2.0000      -0.510662       -13.8958
 142   2.0000      -0.510030       -13.8786
 143   2.0000      -0.503802       -13.7092
 144   2.0000      -0.500832       -13.6283
 145   2.0000      -0.495762       -13.4904
 146   2.0000      -0.492818       -13.4103
 147   2.0000      -0.482526       -13.1302
 148   2.0000      -0.478204       -13.0126
 149   2.0000      -0.467082       -12.7099
 150   2.0000      -0.465946       -12.6790
 151   2.0000      -0.457170       -12.4402
 152   2.0000      -0.450590       -12.2612
 153   2.0000      -0.445863       -12.1326
 154   2.0000      -0.440778       -11.9942
 155   2.0000      -0.428137       -11.6502
 156   2.0000      -0.421967       -11.4823
 157   2.0000      -0.412881       -11.2351
 158   2.0000      -0.407336       -11.0842
 159   2.0000      -0.387322       -10.5396
 160   2.0000      -0.385861       -10.4998
 161   2.0000      -0.378036       -10.2869
 162   2.0000      -0.371419       -10.1068
 163   2.0000      -0.358267        -9.7489
 164   2.0000      -0.354342        -9.6421
 165   2.0000      -0.340763        -9.2726
 166   2.0000      -0.337874        -9.1940
 167   2.0000      -0.326375        -8.8811
 168   2.0000      -0.321870        -8.7585
 169   2.0000      -0.305667        -8.3176
 170   2.0000      -0.299366        -8.1462
 171   2.0000      -0.285197        -7.7606
 172   2.0000      -0.280314        -7.6277
 173   2.0000      -0.262704        -7.1485
 174   2.0000      -0.242463        -6.5978
 175   2.0000      -0.190102        -5.1729
 176   2.0000      -0.180642        -4.9155
 177   2.0000      -0.077828        -2.1178
 178   2.0000      -0.059027        -1.6062
 179   0.0000       0.028211         0.7677
 180   0.0000       0.065552         1.7838
 181   0.0000       0.090873         2.4728
 182   0.0000       0.107931         2.9370
 183   0.0000       0.112373         3.0578

MULLIKEN ATOMIC CHARGES
-----------------------
   0 C :    0.214895
   1 N :   -0.456669
   2 C :   -0.071907
   3 N :   -0.338691
   4 C :   -0.056616
   5 N :   -0.563890
   6 C :   -0.115951
   7 N :   -0.340669
   8 C :    0.206937
   9 N :   -0.562543
  10 C :    0.119516
  11 N :   -0.438030
  12 C :   -0.073715
  13 N :   -0.429996
  14 C :    0.216910
  15 N :   -0.441389
  16 C :    0.231272
  17 C :   -0.127464
  18 C :   -0.156445
  19 C :    0.203011
  20 C :    0.214274
  21 C :   -0.087281
  22 C :   -0.089250
  23 C :   -0.040239
  24 C :    0.195087
  25 C :    0.114306
  26 C :   -0.083039
  27 C :    0.212534
  28 C :   -0.060999
  29 C :   -0.181846
  30 C :    0.245503
  31 C :    0.230006
  32 C :   -0.061357
  33 C :   -0.061664
  34 C :   -0.050135
  35 C :    0.226067
  36 C :    0.108583
  37 C :   -0.064365
  38 C :    0.232283
  39 C :   -0.058691
  40 C :   -0.181061
  41 C :    0.224562
  42 C :    0.197129
  43 C :   -0.072664
  44 C :   -0.090818
  45 C :   -0.061196
  46 C :    0.210142
  47 C :    0.115610
  48 C :   -0.067596
  49 C :    0.237839
  50 C :   -0.046623
  51 C :   -0.194594
  52 H :    0.038313
  53 H :   -0.017417
  54 H :    0.053218
  55 H :    0.036199
  56 H :    0.048588
  57 H :    0.048261
  58 H :    0.046394
  59 H :   -0.000080
  60 H :    0.049967
  61 H :    0.170935
  62 H :    0.175615
  63 H :    0.056113
  64 H :   -0.005285
  65 H :    0.046999
  66 H :    0.056229
  67 H :    0.063118
  68 H :    0.057583
  69 H :    0.056931
  70 H :   -0.029113
  71 H :    0.045716
  72 H :    0.070599
  73 H :   -0.008096
  74 H :    0.059768
  75 H :    0.069914
  76 H :    0.074327
  77 H :    0.067497
  78 H :    0.066693
  79 H :   -0.016028
  80 H :    0.060468
  81 H :    0.053920
  82 H :   -0.025198
  83 H :    0.041170
  84 H :    0.053414
  85 H :    0.060236
  86 H :    0.055133
  87 H :    0.056875
  88 H :   -0.014780
  89 H :    0.046733
Sum of atomic charges:   -0.0000000

LOEWDIN ATOMIC CHARGES
----------------------
   0 C :   -0.018595
   1 N :    0.116607
   2 C :   -0.102546
   3 N :    0.183300
   4 C :   -0.012572
   5 N :   -0.131185
   6 C :   -0.039119
   7 N :    0.175356
   8 C :   -0.026123
   9 N :   -0.140551
  10 C :    0.023526
  11 N :    0.143022
  12 C :   -0.115632
  13 N :    0.164921
  14 C :   -0.026474
  15 N :    0.137780
  16 C :   -0.058545
  17 C :   -0.047576
  18 C :   -0.103517
  19 C :   -0.080924
  20 C :    0.005585
  21 C :   -0.122561
  22 C :    0.038598
  23 C :   -0.014801
  24 C :   -0.011106
  25 C :    0.030081
  26 C :   -0.108986
  27 C :   -0.116586
  28 C :   -0.026743
  29 C :   -0.098748
  30 C :   -0.031390
  31 C :    0.023852
  32 C :   -0.093596
  33 C :    0.079611
  34 C :   -0.014764
  35 C :    0.020690
  36 C :    0.034940
  37 C :   -0.094374
  38 C :   -0.050136
  39 C :   -0.018486
  40 C :   -0.108161
  41 C :   -0.093145
  42 C :   -0.010815
  43 C :   -0.099835
  44 C :    0.031794
  45 C :   -0.028354
  46 C :    0.000393
  47 C :    0.029270
  48 C :   -0.096008
  49 C :   -0.069993
  50 C :   -0.019130
  51 C :   -0.109994
  52 H :    0.023202
  53 H :    0.002690
  54 H :    0.038661
  55 H :    0.022719
  56 H :    0.021393
  57 H :    0.026607
  58 H :    0.026566
  59 H :    0.011505
  60 H :    0.036088
  61 H :    0.059981
  62 H :    0.061916
  63 H :    0.031107
  64 H :    0.008847
  65 H :    0.045829
  66 H :    0.029538
  67 H :    0.028565
  68 H :    0.031789
  69 H :    0.030562
  70 H :   -0.004373
  71 H :    0.043896
  72 H :    0.037409
  73 H :    0.007079
  74 H :    0.050469
  75 H :    0.036946
  76 H :    0.034485
  77 H :    0.035950
  78 H :    0.035593
  79 H :    0.003229
  80 H :    0.050335
  81 H :    0.028886
  82 H :   -0.002893
  83 H :    0.042197
  84 H :    0.029508
  85 H :    0.027067
  86 H :    0.029982
  87 H :    0.031248
  88 H :    0.002247
  89 H :    0.044921

  Mayer bond orders larger than 0.100000
B(  0-C ,  1-N ) :   1.0959 B(  0-C , 17-C ) :   1.7107 B(  0-C , 52-H ) :   0.9650
B(  1-N ,  8-C ) :   1.0841 B(  1-N , 10-C ) :   0.9784 B(  2-C , 12-C ) :   1.4996
B(  2-C , 16-C ) :   1.3620 B(  2-C , 53-H ) :   0.9751 B(  3-N , 14-C ) :   1.2189
B(  3-N , 16-C ) :   1.1886 B(  3-N , 61-H ) :   0.8993 B(  4-C ,  6-C ) :   1.2117
B(  4-C , 17-C ) :   1.2107 B(  4-C , 18-C ) :   1.4521 B(  5-N , 19-C ) :   1.4547
B(  5-N , 27-C ) :   1.3767 B(  6-C ,  8-C ) :   1.7157 B(  6-C , 54-H ) :   0.9433
B(  7-N , 30-C ) :   1.1944 B(  7-N , 38-C ) :   1.1912 B(  7-N , 62-H ) :   0.8967
B(  8-C , 55-H ) :   0.9665 B(  9-N , 41-C ) :   1.3926 B(  9-N , 49-C ) :   1.4276
B( 10-C , 56-H ) :   0.9771 B( 10-C , 57-H ) :   0.9832 B( 10-C , 58-H ) :   0.9835
B( 11-N , 20-C ) :   1.1320 B( 11-N , 24-C ) :   1.1092 B( 11-N , 25-C ) :   0.9593
B( 12-C , 14-C ) :   1.3579 B( 12-C , 59-H ) :   0.9678 B( 13-N , 31-C ) :   1.1604
B( 13-N , 35-C ) :   1.1565 B( 13-N , 36-C ) :   0.9424 B( 14-C , 18-C ) :   1.1241
B( 15-N , 42-C ) :   1.1068 B( 15-N , 46-C ) :   1.1222 B( 15-N , 47-C ) :   0.9621
B( 16-C , 51-C ) :   1.1693 B( 17-C , 60-H ) :   0.9429 B( 18-C , 19-C ) :   1.1243
B( 19-C , 21-C ) :   1.2486 B( 20-C , 28-C ) :   1.6267 B( 20-C , 63-H ) :   0.9702
B( 21-C , 26-C ) :   1.6007 B( 21-C , 64-H ) :   0.9666 B( 22-C , 23-C ) :   1.2907
B( 22-C , 28-C ) :   1.2660 B( 22-C , 29-C ) :   1.2222 B( 23-C , 24-C ) :   1.6182
B( 23-C , 65-H ) :   0.9704 B( 24-C , 66-H ) :   0.9695 B( 25-C , 67-H ) :   0.9760
B( 25-C , 68-H ) :   0.9828 B( 25-C , 69-H ) :   0.9823 B( 26-C , 27-C ) :   1.2458
B( 26-C , 70-H ) :   0.9692 B( 27-C , 29-C ) :   1.2104 B( 28-C , 71-H ) :   0.9719
B( 29-C , 30-C ) :   1.2453 B( 30-C , 32-C ) :   1.2795 B( 31-C , 39-C ) :   1.5904
B( 31-C , 72-H ) :   0.9682 B( 32-C , 37-C ) :   1.5798 B( 32-C , 73-H ) :   0.9785
B( 33-C , 34-C ) :   1.3065 B( 33-C , 39-C ) :   1.3012 B( 33-C , 40-C ) :   1.1787
B( 34-C , 35-C ) :   1.5872 B( 34-C , 74-H ) :   0.9696 B( 35-C , 75-H ) :   0.9682
B( 36-C , 76-H ) :   0.9767 B( 36-C , 77-H ) :   0.9816 B( 36-C , 78-H ) :   0.9824
B( 37-C , 38-C ) :   1.2844 B( 37-C , 79-H ) :   0.9766 B( 38-C , 40-C ) :   1.2339
B( 39-C , 80-H ) :   0.9706 B( 40-C , 41-C ) :   1.2489 B( 41-C , 43-C ) :   1.1876
B( 42-C , 50-C ) :   1.6353 B( 42-C , 81-H ) :   0.9697 B( 43-C , 48-C ) :   1.6647
B( 43-C , 82-H ) :   0.9721 B( 44-C , 45-C ) :   1.2623 B( 44-C , 50-C ) :   1.2701
B( 44-C , 51-C ) :   1.2645 B( 45-C , 46-C ) :   1.6364 B( 45-C , 83-H ) :   0.9718
B( 46-C , 84-H ) :   0.9701 B( 47-C , 85-H ) :   0.9762 B( 47-C , 86-H ) :   0.9829
B( 47-C , 87-H ) :   0.9825 B( 48-C , 49-C ) :   1.1911 B( 48-C , 88-H ) :   0.9749
B( 49-C , 51-C ) :   1.2400 B( 50-C , 89-H ) :   0.9709

MP2 TOTAL ENERGY:    -2130.869645885 Eh
FINAL SINGLE POINT ENERGY     -2130.869645884599

DIPOLE MOMENT
-------------
                                X             Y             Z
Electronic contribution:      2.47990      -4.26218      -0.06808
Nuclear contribution   :     -0.01518       0.17710       0.07808
                        -----------------------------------------
Total Dipole Moment    :      2.46472      -4.08507       0.01001
                        -----------------------------------------
Magnitude (a.u.)       :      4.77103
Magnitude (Debye)      :     12.12700

Rotational constants in cm-1:     0.001503     0.001477     0.000760
Rotational constants in MHz :    45.048915    44.270637    22.794785

                             ****ORCA TERMINATED NORMALLY****
TOTAL RUN TIME: 0 days 1 hours 5 minutes 2 seconds 140 msec
