                         Program Version 5.0.4 -  RELEASE  -
|  1> ! PAL2
|  2> ! mp2 cc-pvdz TightSCF  NoKeepInts
|  3>
|  4> %scf
|  5>   MaxCore 2000
|  6> end
|  7> %mp2
|  8>   MaxCore 2000
|  9> end
| 10> * xyz 0 1
| 11>    C       -4.37400         5.60100        -0.99000
| 12>    C        1.47400         4.04100         0.05700
| 13>    C       -2.80200         4.09300         0.04900
| 14>    C       -2.80400         4.94200         1.16600
| 15>    C       -3.58500         6.08100         1.17000
| 16>    C       -5.20700         7.60500         0.15300
| 17>    C        0.13200         4.30700         0.06100
| 18>    C       -0.56900         3.05600         0.04700
| 19>    C        1.64900         2.61800         0.02300
| 20>    C       -3.61400         4.44800        -1.03900
| 21>    N       -4.35200         6.39800         0.10200
| 22>    N        0.38800         2.06700         0.02500
| 23>    N       -2.01000         0.39500        -0.07500
| 24>    N       -0.38800        -2.07400        -0.02700
| 25>    N        2.01000        -0.40100         0.06500
| 26>    C       -1.96000         2.86100         0.02400
| 27>    C       -2.62300         1.61500        -0.01800
| 28>    C       -5.57300        -4.32900         1.06600
| 29>    C       -4.07300         1.47100         0.05600
| 30>    C       -4.10600        -2.75600        -0.02600
| 31>    C       -4.99500        -2.75700        -1.11100
| 32>    C       -6.13200        -3.54200        -1.07600
| 33>    C       -7.65100        -5.11300         0.04000
| 34>    C       -4.32400         0.14100         0.03700
| 35>    C       -3.02500        -0.52000        -0.04800
| 36>    C       -4.42200        -3.56600         1.07500
| 37>    N       -6.40700        -4.31300         0.00100
| 38>    C       -2.86700        -1.92200        -0.04000
| 39>    C       -1.65000        -2.62400        -0.02700
| 40>    C        3.56800        -6.14200        -1.04000
| 41>    C       -1.47600        -4.04900        -0.03400
| 42>    C        2.80300        -4.09900        -0.00800
| 43>    C        3.65700        -4.38400         1.06900
| 44>    C        4.42700        -5.53000         1.05900
| 45>    C        5.24500        -7.58800         0.01400
| 46>    C       -0.13400        -4.31500        -0.02200
| 47>    C        0.56800        -3.06400        -0.02700
| 48>    C        2.77500        -5.01200        -1.07400
| 49>    N        4.37600        -6.39100         0.01700
| 50>    C        1.95900        -2.86900        -0.00900
| 51>    C        2.62100        -1.62200         0.00900
| 52>    C        5.54300         4.33900        -1.13000
| 53>    C        4.07000        -1.47900        -0.09400
| 54>    C        4.10400         2.75100        -0.02100
| 55>    C        5.02700         2.72900         1.03600
| 56>    C        6.16600         3.50900         0.97800
| 57>    C        7.61900         5.15300        -0.11500
| 58>    C        4.32100        -0.14800        -0.09200
| 59>    C        3.02500         0.51400         0.01500
| 60>    C        4.38700         3.58200        -1.11500
| 61>    C        2.86600         1.91600         0.01300
| 62>    N        6.41300         4.29600        -0.09500
| 63>    H       -5.00400         5.92000        -1.81100
| 64>    H        2.27400         4.76600         0.08100
| 65>    H       -2.20600         4.71700         2.04100
| 66>    H       -3.62600         6.76100         2.01100
| 67>    H       -6.15700         7.34800         0.62700
| 68>    H       -4.69500         8.37400         0.73100
| 69>    H       -5.37900         7.95600        -0.86500
| 70>    H       -0.33200         5.28200         0.06900
| 71>    H       -3.64500         3.84100        -1.93700
| 72>    H        0.18200         1.07200         0.00500
| 73>    H       -0.18300        -1.08000        -0.02100
| 74>    H       -5.86400        -4.96200         1.89500
| 75>    H       -4.79400         2.27200         0.13900
| 76>    H       -4.80000        -2.16000        -1.99400
| 77>    H       -6.84100        -3.58200        -1.89300
| 78>    H       -8.42800        -4.53600         0.54600
| 79>    H       -7.95600        -5.33700        -0.98100
| 80>    H       -7.45600        -6.03700         0.58400
| 81>    H       -5.28700        -0.34400         0.10000
| 82>    H       -3.78000        -3.60100         1.94700
| 83>    H        3.58700        -6.86800        -1.84300
| 84>    H       -2.27600        -4.77400        -0.05000
| 85>    H        3.71400        -3.72400         1.92600
| 86>    H        5.09200        -5.79500         1.87100
| 87>    H        6.20500        -7.32900        -0.43900
| 88>    H        5.39300        -7.91700         1.04200
| 89>    H        4.75900        -8.37300        -0.56400
| 90>    H        0.32900        -5.29000        -0.00800
| 91>    H        2.14600        -4.84200        -1.94000
| 92>    H        5.80800         4.98600        -1.95600
| 93>    H        4.78800        -2.28100        -0.18500
| 94>    H        4.86000         2.11400         1.91200
| 95>    H        6.90100         3.53100         1.77200
| 96>    H        7.38300         6.10900         0.35600
| 97>    H        8.41400         4.65200         0.43500
| 98>    H        7.92100         5.31000        -1.15000
| 99>    H        5.28300         0.33600        -0.17900
|100>    H        3.72000         3.63200        -1.96700
|101> *
|102>
|103>                          ****END OF INPUT****

CARTESIAN COORDINATES (ANGSTROEM)
---------------------------------
  C     -4.374000    5.601000   -0.990000
  C      1.474000    4.041000    0.057000
  C     -2.802000    4.093000    0.049000
  C     -2.804000    4.942000    1.166000
  C     -3.585000    6.081000    1.170000
  C     -5.207000    7.605000    0.153000
  C      0.132000    4.307000    0.061000
  C     -0.569000    3.056000    0.047000
  C      1.649000    2.618000    0.023000
  C     -3.614000    4.448000   -1.039000
  N     -4.352000    6.398000    0.102000
  N      0.388000    2.067000    0.025000
  N     -2.010000    0.395000   -0.075000
  N     -0.388000   -2.074000   -0.027000
  N      2.010000   -0.401000    0.065000
  C     -1.960000    2.861000    0.024000
  C     -2.623000    1.615000   -0.018000
  C     -5.573000   -4.329000    1.066000
  C     -4.073000    1.471000    0.056000
  C     -4.106000   -2.756000   -0.026000
  C     -4.995000   -2.757000   -1.111000
  C     -6.132000   -3.542000   -1.076000
  C     -7.651000   -5.113000    0.040000
  C     -4.324000    0.141000    0.037000
  C     -3.025000   -0.520000   -0.048000
  C     -4.422000   -3.566000    1.075000
  N     -6.407000   -4.313000    0.001000
  C     -2.867000   -1.922000   -0.040000
  C     -1.650000   -2.624000   -0.027000
  C      3.568000   -6.142000   -1.040000
  C     -1.476000   -4.049000   -0.034000
  C      2.803000   -4.099000   -0.008000
  C      3.657000   -4.384000    1.069000
  C      4.427000   -5.530000    1.059000
  C      5.245000   -7.588000    0.014000
  C     -0.134000   -4.315000   -0.022000
  C      0.568000   -3.064000   -0.027000
  C      2.775000   -5.012000   -1.074000
  N      4.376000   -6.391000    0.017000
  C      1.959000   -2.869000   -0.009000
  C      2.621000   -1.622000    0.009000
  C      5.543000    4.339000   -1.130000
  C      4.070000   -1.479000   -0.094000
  C      4.104000    2.751000   -0.021000
  C      5.027000    2.729000    1.036000
  C      6.166000    3.509000    0.978000
  C      7.619000    5.153000   -0.115000
  C      4.321000   -0.148000   -0.092000
  C      3.025000    0.514000    0.015000
  C      4.387000    3.582000   -1.115000
  C      2.866000    1.916000    0.013000
  N      6.413000    4.296000   -0.095000
  H     -5.004000    5.920000   -1.811000
  H      2.274000    4.766000    0.081000
  H     -2.206000    4.717000    2.041000
  H     -3.626000    6.761000    2.011000
  H     -6.157000    7.348000    0.627000
  H     -4.695000    8.374000    0.731000
  H     -5.379000    7.956000   -0.865000
  H     -0.332000    5.282000    0.069000
  H     -3.645000    3.841000   -1.937000
  H      0.182000    1.072000    0.005000
  H     -0.183000   -1.080000   -0.021000
  H     -5.864000   -4.962000    1.895000
  H     -4.794000    2.272000    0.139000
  H     -4.800000   -2.160000   -1.994000
  H     -6.841000   -3.582000   -1.893000
  H     -8.428000   -4.536000    0.546000
  H     -7.956000   -5.337000   -0.981000
  H     -7.456000   -6.037000    0.584000
  H     -5.287000   -0.344000    0.100000
  H     -3.780000   -3.601000    1.947000
  H      3.587000   -6.868000   -1.843000
  H     -2.276000   -4.774000   -0.050000
  H      3.714000   -3.724000    1.926000
  H      5.092000   -5.795000    1.871000
  H      6.205000   -7.329000   -0.439000
  H      5.393000   -7.917000    1.042000
  H      4.759000   -8.373000   -0.564000
  H      0.329000   -5.290000   -0.008000
  H      2.146000   -4.842000   -1.940000
  H      5.808000    4.986000   -1.956000
  H      4.788000   -2.281000   -0.185000
  H      4.860000    2.114000    1.912000
  H      6.901000    3.531000    1.772000
  H      7.383000    6.109000    0.356000
  H      8.414000    4.652000    0.435000
  H      7.921000    5.310000   -1.150000
  H      5.283000    0.336000   -0.179000
  H      3.720000    3.632000   -1.967000

 Total Charge           Charge          ....    0
 Multiplicity           Mult            ....    1
 Number of Electrons    NEL             ....  358
 Basis Dimension        Dim             ....  918

ORBITAL ENERGIES
----------------

  NO   OCC          E(Eh)            E(eV)
   0   2.0000     -15.643296      -425.6757
   1   2.0000     -15.639828      -425.5814
   2   2.0000     -15.627444      -425.2444
   3   2.0000     -15.623985      -425.1502
   4   2.0000     -15.515965      -422.2109
   5   2.0000     -15.515568      -422.2001
   6   2.0000     -15.445383      -420.2902
   7   2.0000     -15.439712      -420.1359
   8   2.0000     -11.305229      -307.6309
   9   2.0000     -11.302892      -307.5673
  10   2.0000     -11.298066      -307.4360
  11   2.0000     -11.297164      -307.4115
  12   2.0000     -11.295622      -307.3695
  13   2.0000     -11.295081      -307.3548
  14   2.0000     -11.293976      -307.3247
  15   2.0000     -11.293174      -307.3029
  16   2.0000     -11.285238      -307.0869
  17   2.0000     -11.283428      -307.0377
  18   2.0000     -11.283235      -307.0324
  19   2.0000     -11.280211      -306.9501
  20   2.0000     -11.246258      -306.0262
  21   2.0000     -11.243102      -305.9404
  22   2.0000     -11.236819      -305.7694
  23   2.0000     -11.236534      -305.7616
  24   2.0000     -11.234676      -305.7111
  25   2.0000     -11.233963      -305.6917
  26   2.0000     -11.231646      -305.6286
  27   2.0000     -11.229039      -305.5577
  28   2.0000     -11.225345      -305.4572
  29   2.0000     -11.225245      -305.4544
  30   2.0000     -11.223266      -305.4006
  31   2.0000     -11.222421      -305.3776
  32   2.0000     -11.196953      -304.6846
  33   2.0000     -11.196699      -304.6777
  34   2.0000     -11.195843      -304.6544
  35   2.0000     -11.195601      -304.6478
  36   2.0000     -11.175343      -304.0965
  37   2.0000     -11.175304      -304.0955
  38   2.0000     -11.171617      -303.9952
  39   2.0000     -11.170966      -303.9774
  40   2.0000     -11.165320      -303.8238
  41   2.0000     -11.164670      -303.8061
  42   2.0000     -11.164266      -303.7951
  43   2.0000     -11.163426      -303.7723
  44   2.0000     -11.156978      -303.5968
  45   2.0000     -11.155795      -303.5646
  46   2.0000     -11.154358      -303.5255
  47   2.0000     -11.152696      -303.4803
  48   2.0000     -11.147045      -303.3265
  49   2.0000     -11.145542      -303.2856
  50   2.0000     -11.135829      -303.0213
  51   2.0000     -11.134361      -302.9814
  52   2.0000      -1.329255       -36.1709
  53   2.0000      -1.326175       -36.0870
  54   2.0000      -1.315343       -35.7923
  55   2.0000      -1.312658       -35.7192
  56   2.0000      -1.215159       -33.0662
  57   2.0000      -1.212905       -33.0048
  58   2.0000      -1.162954       -31.6456
  59   2.0000      -1.153211       -31.3805
  60   2.0000      -1.117362       -30.4050
  61   2.0000      -1.112682       -30.2776
  62   2.0000      -1.105399       -30.0794
  63   2.0000      -1.100882       -29.9565
  64   2.0000      -1.052670       -28.6446
  65   2.0000      -1.049907       -28.5694
  66   2.0000      -1.039872       -28.2964
  67   2.0000      -1.037509       -28.2321
  68   2.0000      -1.026304       -27.9272
  69   2.0000      -1.011172       -27.5154
  70   2.0000      -1.007040       -27.4030
  71   2.0000      -0.997894       -27.1541
  72   2.0000      -0.979002       -26.6400
  73   2.0000      -0.977076       -26.5876
  74   2.0000      -0.967863       -26.3369
  75   2.0000      -0.961972       -26.1766
  76   2.0000      -0.950871       -25.8745
  77   2.0000      -0.945257       -25.7218
  78   2.0000      -0.935851       -25.4658
  79   2.0000      -0.922920       -25.1139
  80   2.0000      -0.891583       -24.2612
  81   2.0000      -0.879420       -23.9302
  82   2.0000      -0.876238       -23.8437
  83   2.0000      -0.867473       -23.6051
  84   2.0000      -0.864340       -23.5199
  85   2.0000      -0.856519       -23.3071
  86   2.0000      -0.851394       -23.1676
  87   2.0000      -0.840918       -22.8825
  88   2.0000      -0.822027       -22.3685
  89   2.0000      -0.797560       -21.7027
  90   2.0000      -0.797399       -21.6983
  91   2.0000      -0.739010       -20.1095
  92   2.0000      -0.728084       -19.8122
  93   2.0000      -0.727493       -19.7961
  94   2.0000      -0.723172       -19.6785
  95   2.0000      -0.717089       -19.5130
  96   2.0000      -0.710702       -19.3392
  97   2.0000      -0.710427       -19.3317
  98   2.0000      -0.697559       -18.9815
  99   2.0000      -0.690505       -18.7896
 100   2.0000      -0.684340       -18.6218
 101   2.0000      -0.681913       -18.5558
 102   2.0000      -0.680232       -18.5101
 103   2.0000      -0.672056       -18.2876
 104   2.0000      -0.668558       -18.1924
 105   2.0000      -0.667653       -18.1678
 106   2.0000      -0.661162       -17.9911
 107   2.0000      -0.660370       -17.9696
 108   2.0000      -0.658170       -17.9097
 109   2.0000      -0.655613       -17.8401
 110   2.0000      -0.650940       -17.7130
 111   2.0000      -0.649790       -17.6817
 112   2.0000      -0.647779       -17.6270
 113   2.0000      -0.645072       -17.5533
 114   2.0000      -0.633595       -17.2410
 115   2.0000      -0.623232       -16.9590
 116   2.0000      -0.619177       -16.8487
 117   2.0000      -0.616725       -16.7819
 118   2.0000      -0.610831       -16.6216
 119   2.0000      -0.607836       -16.5401
 120   2.0000      -0.607020       -16.5179
 121   2.0000      -0.605120       -16.4662
 122   2.0000      -0.601420       -16.3655
 123   2.0000      -0.594446       -16.1757
 124   2.0000      -0.587232       -15.9794
 125   2.0000      -0.585339       -15.9279
 126   2.0000      -0.577290       -15.7089
 127   2.0000      -0.575231       -15.6528
 128   2.0000      -0.568030       -15.4569
 129   2.0000      -0.564758       -15.3678
 130   2.0000      -0.553140       -15.0517
 131   2.0000      -0.543150       -14.7799
 132   2.0000      -0.541213       -14.7272
 133   2.0000      -0.534447       -14.5430
 134   2.0000      -0.532863       -14.4999
 135   2.0000      -0.529307       -14.4032
 136   2.0000      -0.524255       -14.2657
 137   2.0000      -0.522700       -14.2234
 138   2.0000      -0.519166       -14.1272
 139   2.0000      -0.515091       -14.0163
 140   2.0000      -0.509359       -13.8604
 141   2.0000      -0.506118       -13.7722
 142   2.0000      -0.503447       -13.6995
 143   2.0000      -0.501489       -13.6462
 144   2.0000      -0.497672       -13.5424
 145   2.0000      -0.496955       -13.5228
 146   2.0000      -0.495932       -13.4950
 147   2.0000      -0.494112       -13.4455
 148   2.0000      -0.490070       -13.3355
 149   2.0000      -0.467462       -12.7203
 150   2.0000      -0.459806       -12.5120
 151   2.0000      -0.451331       -12.2813
 152   2.0000      -0.446261       -12.1434
 153   2.0000      -0.445358       -12.1188
 154   2.0000      -0.443790       -12.0761
 155   2.0000      -0.439513       -11.9598
 156   2.0000      -0.434693       -11.8286
 157   2.0000      -0.428802       -11.6683
 158   2.0000      -0.389059       -10.5868
 159   2.0000      -0.383990       -10.4489
 160   2.0000      -0.374498       -10.1906
 161   2.0000      -0.373214       -10.1557
 162   2.0000      -0.362465        -9.8632
 163   2.0000      -0.360142        -9.8000
 164   2.0000      -0.351613        -9.5679
 165   2.0000      -0.349762        -9.5175
 166   2.0000      -0.337684        -9.1888
 167   2.0000      -0.333070        -9.0633
 168   2.0000      -0.325818        -8.8660
 169   2.0000      -0.300128        -8.1669
 170   2.0000      -0.291958        -7.9446
 171   2.0000      -0.290624        -7.9083
 172   2.0000      -0.286838        -7.8052
 173   2.0000      -0.255897        -6.9633
 174   2.0000      -0.245028        -6.6675
 175   2.0000      -0.186955        -5.0873
 176   2.0000      -0.176635        -4.8065
 177   2.0000      -0.064020        -1.7421
 178   2.0000      -0.053368        -1.4522
 179   0.0000       0.032209         0.8765
 180   0.0000       0.069794         1.8992
 181   0.0000       0.092630         2.5206
 182   0.0000       0.095554         2.6002
 183   0.0000       0.131446         3.5768

MULLIKEN ATOMIC CHARGES
-----------------------
   0 C :    0.210380
   1 N :   -0.436070
   2 C :   -0.066225
   3 N :   -0.339402
   4 C :   -0.081849
   5 N :   -0.563077
   6 C :   -0.049931
   7 N :   -0.337857
   8 C :    0.208207
   9 N :   -0.563576
  10 C :    0.112233
  11 N :   -0.437265
  12 C :   -0.065139
  13 N :   -0.442115
  14 C :    0.231596
  15 N :   -0.440690
  16 C :    0.239924
  17 C :   -0.052373
  18 C :   -0.190180
  19 C :    0.226014
  20 C :    0.205279
  21 C :   -0.071452
  22 C :   -0.085300
  23 C :   -0.052635
  24 C :    0.209959
  25 C :    0.113651
  26 C :   -0.072760
  27 C :    0.228104
  28 C :   -0.049183
  29 C :   -0.187578
  30 C :    0.232353
  31 C :    0.206306
  32 C :   -0.065121
  33 C :   -0.085909
  34 C :   -0.049778
  35 C :    0.198452
  36 C :    0.115564
  37 C :   -0.067288
  38 C :    0.238977
  39 C :   -0.062569
  40 C :   -0.192077
  41 C :    0.219096
  42 C :    0.205379
  43 C :   -0.074527
  44 C :   -0.088783
  45 C :   -0.049767
  46 C :    0.199965
  47 C :    0.115733
  48 C :   -0.076911
  49 C :    0.221976
  50 C :   -0.055465
  51 C :   -0.190234
  52 H :    0.059220
  53 H :   -0.013138
  54 H :    0.049412
  55 H :    0.058128
  56 H :    0.064231
  57 H :    0.060267
  58 H :    0.059449
  59 H :   -0.016763
  60 H :    0.047471
  61 H :    0.173513
  62 H :    0.171990
  63 H :    0.056947
  64 H :   -0.023867
  65 H :    0.046030
  66 H :    0.057975
  67 H :    0.062870
  68 H :    0.058258
  69 H :    0.059560
  70 H :   -0.022898
  71 H :    0.048787
  72 H :    0.052390
  73 H :   -0.015569
  74 H :    0.043060
  75 H :    0.051321
  76 H :    0.058633
  77 H :    0.055558
  78 H :    0.054729
  79 H :   -0.013164
  80 H :    0.043176
  81 H :    0.053226
  82 H :   -0.023756
  83 H :    0.043154
  84 H :    0.052558
  85 H :    0.058224
  86 H :    0.056444
  87 H :    0.056424
  88 H :   -0.024188
  89 H :    0.044269
Sum of atomic charges:   -0.0000000

LOEWDIN ATOMIC CHARGES
----------------------
   0 C :    0.003190
   1 N :    0.147288
   2 C :   -0.100819
   3 N :    0.176354
   4 C :    0.047514
   5 N :   -0.139918
   6 C :   -0.019545
   7 N :    0.177405
   8 C :    0.001499
   9 N :   -0.138656
  10 C :    0.030877
  11 N :    0.145262
  12 C :   -0.100606
  13 N :    0.135859
  14 C :   -0.048518
  15 N :    0.138232
  16 C :   -0.040384
  17 C :   -0.021561
  18 C :   -0.110755
  19 C :   -0.087958
  20 C :   -0.001645
  21 C :   -0.103192
  22 C :    0.044556
  23 C :   -0.022807
  24 C :    0.002624
  25 C :    0.030566
  26 C :   -0.102492
  27 C :   -0.086861
  28 C :   -0.019041
  29 C :   -0.109183
  30 C :   -0.050294
  31 C :   -0.004261
  32 C :   -0.099291
  33 C :    0.030721
  34 C :   -0.020985
  35 C :   -0.011078
  36 C :    0.028306
  37 C :   -0.102536
  38 C :   -0.038374
  39 C :   -0.027361
  40 C :   -0.109666
  41 C :   -0.094717
  42 C :   -0.003772
  43 C :   -0.106982
  44 C :    0.034003
  45 C :   -0.020709
  46 C :   -0.008466
  47 C :    0.029138
  48 C :   -0.107771
  49 C :   -0.095464
  50 C :   -0.024796
  51 C :   -0.109085
  52 H :    0.031535
  53 H :    0.004758
  54 H :    0.046125
  55 H :    0.031615
  56 H :    0.029156
  57 H :    0.032035
  58 H :    0.032728
  59 H :    0.003324
  60 H :    0.045564
  61 H :    0.060883
  62 H :    0.060012
  63 H :    0.031106
  64 H :   -0.001603
  65 H :    0.044794
  66 H :    0.030868
  67 H :    0.028583
  68 H :    0.032088
  69 H :    0.031677
  70 H :   -0.001419
  71 H :    0.045874
  72 H :    0.028887
  73 H :    0.003495
  74 H :    0.043437
  75 H :    0.028075
  76 H :    0.026377
  77 H :    0.030340
  78 H :    0.029991
  79 H :    0.004736
  80 H :    0.042805
  81 H :    0.028903
  82 H :   -0.001927
  83 H :    0.043703
  84 H :    0.028741
  85 H :    0.026174
  86 H :    0.030493
  87 H :    0.031020
  88 H :   -0.002235
  89 H :    0.043440

  Mayer bond orders larger than 0.100000
B(  0-C ,  1-N ) :   1.1302 B(  0-C , 17-C ) :   1.6161 B(  0-C , 52-H ) :   0.9689
B(  1-N ,  8-C ) :   1.1265 B(  1-N , 10-C ) :   0.9562 B(  2-C , 12-C ) :   1.5432
B(  2-C , 16-C ) :   1.3141 B(  2-C , 53-H ) :   0.9781 B(  3-N , 14-C ) :   1.1969
B(  3-N , 16-C ) :   1.1969 B(  3-N , 61-H ) :   0.8980 B(  4-C ,  6-C ) :   1.2799
B(  4-C , 17-C ) :   1.2827 B(  4-C , 18-C ) :   1.2274 B(  5-N , 19-C ) :   1.4085
B(  5-N , 27-C ) :   1.4140 B(  6-C ,  8-C ) :   1.6184 B(  6-C , 54-H ) :   0.9713
B(  7-N , 30-C ) :   1.1905 B(  7-N , 38-C ) :   1.2049 B(  7-N , 62-H ) :   0.8988
B(  8-C , 55-H ) :   0.9700 B(  9-N , 41-C ) :   1.4125 B(  9-N , 49-C ) :   1.4127
B( 10-C , 56-H ) :   0.9763 B( 10-C , 57-H ) :   0.9822 B( 10-C , 58-H ) :   0.9828
B( 11-N , 20-C ) :   1.1217 B( 11-N , 24-C ) :   1.1284 B( 11-N , 25-C ) :   0.9576
B( 12-C , 14-C ) :   1.3152 B( 12-C , 59-H ) :   0.9778 B( 13-N , 31-C ) :   1.1157
B( 13-N , 35-C ) :   1.1071 B( 13-N , 36-C ) :   0.9643 B( 14-C , 18-C ) :   1.2102
B( 15-N , 42-C ) :   1.1184 B( 15-N , 46-C ) :   1.1106 B( 15-N , 47-C ) :   0.9627
B( 16-C , 51-C ) :   1.2094 B( 17-C , 60-H ) :   0.9711 B( 18-C , 19-C ) :   1.2314
B( 19-C , 21-C ) :   1.2048 B( 20-C , 28-C ) :   1.6214 B( 20-C , 63-H ) :   0.9703
B( 21-C , 26-C ) :   1.6472 B( 21-C , 64-H ) :   0.9738 B( 22-C , 23-C ) :   1.2800
B( 22-C , 28-C ) :   1.2783 B( 22-C , 29-C ) :   1.2316 B( 23-C , 24-C ) :   1.6187
B( 23-C , 65-H ) :   0.9712 B( 24-C , 66-H ) :   0.9690 B( 25-C , 67-H ) :   0.9762
B( 25-C , 68-H ) :   0.9830 B( 25-C , 69-H ) :   0.9820 B( 26-C , 27-C ) :   1.2037
B( 26-C , 70-H ) :   0.9736 B( 27-C , 29-C ) :   1.2301 B( 28-C , 71-H ) :   0.9713
B( 29-C , 30-C ) :   1.2071 B( 30-C , 32-C ) :   1.3177 B( 31-C , 39-C ) :   1.6412
B( 31-C , 72-H ) :   0.9699 B( 32-C , 37-C ) :   1.5406 B( 32-C , 73-H ) :   0.9776
B( 33-C , 34-C ) :   1.2670 B( 33-C , 39-C ) :   1.2592 B( 33-C , 40-C ) :   1.2693
B( 34-C , 35-C ) :   1.6383 B( 34-C , 74-H ) :   0.9705 B( 35-C , 75-H ) :   0.9699
B( 36-C , 76-H ) :   0.9761 B( 36-C , 77-H ) :   0.9822 B( 36-C , 78-H ) :   0.9833
B( 37-C , 38-C ) :   1.3180 B( 37-C , 79-H ) :   0.9781 B( 38-C , 40-C ) :   1.2038
B( 39-C , 80-H ) :   0.9717 B( 40-C , 41-C ) :   1.2074 B( 41-C , 43-C ) :   1.2242
B( 42-C , 50-C ) :   1.6345 B( 42-C , 81-H ) :   0.9696 B( 43-C , 48-C ) :   1.6270
B( 43-C , 82-H ) :   0.9740 B( 44-C , 45-C ) :   1.2730 B( 44-C , 50-C ) :   1.2643
B( 44-C , 51-C ) :   1.2547 B( 45-C , 46-C ) :   1.6320 B( 45-C , 83-H ) :   0.9710
B( 46-C , 84-H ) :   0.9704 B( 47-C , 85-H ) :   0.9761 B( 47-C , 86-H ) :   0.9827
B( 47-C , 87-H ) :   0.9827 B( 48-C , 49-C ) :   1.2227 B( 48-C , 88-H ) :   0.9735
B( 49-C , 51-C ) :   1.2110 B( 50-C , 89-H ) :   0.9715

MP2 TOTAL ENERGY:    -2130.910816737 Eh
FINAL SINGLE POINT ENERGY     -2130.910816737369

DIPOLE MOMENT
-------------
                                X             Y             Z
Electronic contribution:     -1.12444       0.28812      -0.19487
Nuclear contribution   :     -0.00293       0.18293       0.22372
                        -----------------------------------------
Total Dipole Moment    :     -1.12737       0.47105       0.02885
                        -----------------------------------------
Magnitude (a.u.)       :      1.22216
Magnitude (Debye)      :      3.10650

Rotational constants in cm-1:     0.001498     0.001474     0.000762
Rotational constants in MHz :    44.908234    44.182490    22.855368

                             ****ORCA TERMINATED NORMALLY****
TOTAL RUN TIME: 0 days 1 hours 30 minutes 9 seconds 852 msec
