                         Program Version 5.0.4 -  RELEASE  -
|  1> ! PAL2
|  2> ! mp2 cc-pvdz TightSCF  NoKeepInts
|  3>
|  4> %scf
|  5>   MaxCore 2000
|  6> end
|  7> %mp2
|  8>   MaxCore 2000
|  9> end
| 10> * xyz 0 1
| 11>    C       -4.82100         5.28600        -0.52200
| 12>    C        1.47400         4.04100         0.05700
| 13>    C       -2.80200         4.09300         0.04900
| 14>    C       -2.34800         5.26400         0.67400
| 15>    C       -3.13700         6.39700         0.68400
| 16>    C       -5.19100         7.61600         0.14900
| 17>    C        0.13200         4.30700         0.06100
| 18>    C       -0.56900         3.05600         0.04700
| 19>    C        1.64900         2.61800         0.02300
| 20>    C       -4.06900         4.12700        -0.55300
| 21>    N       -4.35300         6.39800         0.08800
| 22>    N        0.38800         2.06700         0.02500
| 23>    N       -2.01000         0.39500        -0.07500
| 24>    N       -0.38800        -2.07400        -0.02700
| 25>    N        2.01000        -0.40100         0.06500
| 26>    C       -1.96000         2.86100         0.02400
| 27>    C       -2.62300         1.61500        -0.01800
| 28>    C       -5.57300        -4.32900         1.06600
| 29>    C       -4.07300         1.47100         0.05600
| 30>    C       -4.10600        -2.75600        -0.02600
| 31>    C       -4.99500        -2.75700        -1.11100
| 32>    C       -6.13200        -3.54200        -1.07600
| 33>    C       -7.65100        -5.11300         0.04000
| 34>    C       -4.32400         0.14100         0.03700
| 35>    C       -3.02500        -0.52000        -0.04800
| 36>    C       -4.42200        -3.56600         1.07500
| 37>    N       -6.40700        -4.31300         0.00100
| 38>    C       -2.86700        -1.92200        -0.04000
| 39>    C       -1.65000        -2.62400        -0.02700
| 40>    C        3.56800        -6.14200        -1.04000
| 41>    C       -1.47600        -4.04900        -0.03400
| 42>    C        2.80300        -4.09900        -0.00800
| 43>    C        3.65700        -4.38400         1.06900
| 44>    C        4.42700        -5.53000         1.05900
| 45>    C        5.24500        -7.58800         0.01400
| 46>    C       -0.13400        -4.31500        -0.02200
| 47>    C        0.56800        -3.06400        -0.02700
| 48>    C        2.77500        -5.01200        -1.07400
| 49>    N        4.37600        -6.39100         0.01700
| 50>    C        1.95900        -2.86900        -0.00900
| 51>    C        2.62100        -1.62200         0.00900
| 52>    C        5.54300         4.33900        -1.13000
| 53>    C        4.07000        -1.47900        -0.09400
| 54>    C        4.10400         2.75100        -0.02100
| 55>    C        5.02700         2.72900         1.03600
| 56>    C        6.16600         3.50900         0.97800
| 57>    C        7.61900         5.15300        -0.11500
| 58>    C        4.32100        -0.14800        -0.09200
| 59>    C        3.02500         0.51400         0.01500
| 60>    C        4.38700         3.58200        -1.11500
| 61>    C        2.86600         1.91600         0.01300
| 62>    N        6.41300         4.29600        -0.09500
| 63>    H       -5.79700         5.36200        -0.98400
| 64>    H        2.27400         4.76600         0.08100
| 65>    H       -1.38200         5.29800         1.16500
| 66>    H       -2.83400         7.32000         1.16000
| 67>    H       -5.76300         7.60900         1.07900
| 68>    H       -4.54200         8.49100         0.11400
| 69>    H       -5.86700         7.61900        -0.70600
| 70>    H       -0.33200         5.28200         0.06900
| 71>    H       -4.47000         3.25900        -1.06400
| 72>    H        0.18200         1.07200         0.00500
| 73>    H       -0.18300        -1.08000        -0.02100
| 74>    H       -5.86400        -4.96200         1.89500
| 75>    H       -4.79400         2.27200         0.13900
| 76>    H       -4.80000        -2.16000        -1.99400
| 77>    H       -6.84100        -3.58200        -1.89300
| 78>    H       -8.42800        -4.53600         0.54600
| 79>    H       -7.95600        -5.33700        -0.98100
| 80>    H       -7.45600        -6.03700         0.58400
| 81>    H       -5.28700        -0.34400         0.10000
| 82>    H       -3.78000        -3.60100         1.94700
| 83>    H        3.58700        -6.86800        -1.84300
| 84>    H       -2.27600        -4.77400        -0.05000
| 85>    H        3.71400        -3.72400         1.92600
| 86>    H        5.09200        -5.79500         1.87100
| 87>    H        6.20500        -7.32900        -0.43900
| 88>    H        5.39300        -7.91700         1.04200
| 89>    H        4.75900        -8.37300        -0.56400
| 90>    H        0.32900        -5.29000        -0.00800
| 91>    H        2.14600        -4.84200        -1.94000
| 92>    H        5.80800         4.98600        -1.95600
| 93>    H        4.78800        -2.28100        -0.18500
| 94>    H        4.86000         2.11400         1.91200
| 95>    H        6.90100         3.53100         1.77200
| 96>    H        7.38300         6.10900         0.35600
| 97>    H        8.41400         4.65200         0.43500
| 98>    H        7.92100         5.31000        -1.15000
| 99>    H        5.28300         0.33600        -0.17900
|100>    H        3.72000         3.63200        -1.96700
|101> *
|102>
|103>                          ****END OF INPUT****

CARTESIAN COORDINATES (ANGSTROEM)
---------------------------------
  C     -4.821000    5.286000   -0.522000
  C      1.474000    4.041000    0.057000
  C     -2.802000    4.093000    0.049000
  C     -2.348000    5.264000    0.674000
  C     -3.137000    6.397000    0.684000
  C     -5.191000    7.616000    0.149000
  C      0.132000    4.307000    0.061000
  C     -0.569000    3.056000    0.047000
  C      1.649000    2.618000    0.023000
  C     -4.069000    4.127000   -0.553000
  N     -4.353000    6.398000    0.088000
  N      0.388000    2.067000    0.025000
  N     -2.010000    0.395000   -0.075000
  N     -0.388000   -2.074000   -0.027000
  N      2.010000   -0.401000    0.065000
  C     -1.960000    2.861000    0.024000
  C     -2.623000    1.615000   -0.018000
  C     -5.573000   -4.329000    1.066000
  C     -4.073000    1.471000    0.056000
  C     -4.106000   -2.756000   -0.026000
  C     -4.995000   -2.757000   -1.111000
  C     -6.132000   -3.542000   -1.076000
  C     -7.651000   -5.113000    0.040000
  C     -4.324000    0.141000    0.037000
  C     -3.025000   -0.520000   -0.048000
  C     -4.422000   -3.566000    1.075000
  N     -6.407000   -4.313000    0.001000
  C     -2.867000   -1.922000   -0.040000
  C     -1.650000   -2.624000   -0.027000
  C      3.568000   -6.142000   -1.040000
  C     -1.476000   -4.049000   -0.034000
  C      2.803000   -4.099000   -0.008000
  C      3.657000   -4.384000    1.069000
  C      4.427000   -5.530000    1.059000
  C      5.245000   -7.588000    0.014000
  C     -0.134000   -4.315000   -0.022000
  C      0.568000   -3.064000   -0.027000
  C      2.775000   -5.012000   -1.074000
  N      4.376000   -6.391000    0.017000
  C      1.959000   -2.869000   -0.009000
  C      2.621000   -1.622000    0.009000
  C      5.543000    4.339000   -1.130000
  C      4.070000   -1.479000   -0.094000
  C      4.104000    2.751000   -0.021000
  C      5.027000    2.729000    1.036000
  C      6.166000    3.509000    0.978000
  C      7.619000    5.153000   -0.115000
  C      4.321000   -0.148000   -0.092000
  C      3.025000    0.514000    0.015000
  C      4.387000    3.582000   -1.115000
  C      2.866000    1.916000    0.013000
  N      6.413000    4.296000   -0.095000
  H     -5.797000    5.362000   -0.984000
  H      2.274000    4.766000    0.081000
  H     -1.382000    5.298000    1.165000
  H     -2.834000    7.320000    1.160000
  H     -5.763000    7.609000    1.079000
  H     -4.542000    8.491000    0.114000
  H     -5.867000    7.619000   -0.706000
  H     -0.332000    5.282000    0.069000
  H     -4.470000    3.259000   -1.064000
  H      0.182000    1.072000    0.005000
  H     -0.183000   -1.080000   -0.021000
  H     -5.864000   -4.962000    1.895000
  H     -4.794000    2.272000    0.139000
  H     -4.800000   -2.160000   -1.994000
  H     -6.841000   -3.582000   -1.893000
  H     -8.428000   -4.536000    0.546000
  H     -7.956000   -5.337000   -0.981000
  H     -7.456000   -6.037000    0.584000
  H     -5.287000   -0.344000    0.100000
  H     -3.780000   -3.601000    1.947000
  H      3.587000   -6.868000   -1.843000
  H     -2.276000   -4.774000   -0.050000
  H      3.714000   -3.724000    1.926000
  H      5.092000   -5.795000    1.871000
  H      6.205000   -7.329000   -0.439000
  H      5.393000   -7.917000    1.042000
  H      4.759000   -8.373000   -0.564000
  H      0.329000   -5.290000   -0.008000
  H      2.146000   -4.842000   -1.940000
  H      5.808000    4.986000   -1.956000
  H      4.788000   -2.281000   -0.185000
  H      4.860000    2.114000    1.912000
  H      6.901000    3.531000    1.772000
  H      7.383000    6.109000    0.356000
  H      8.414000    4.652000    0.435000
  H      7.921000    5.310000   -1.150000
  H      5.283000    0.336000   -0.179000
  H      3.720000    3.632000   -1.967000

 Total Charge           Charge          ....    0
 Multiplicity           Mult            ....    1
 Number of Electrons    NEL             ....  358
 Basis Dimension        Dim             ....  918

ORBITAL ENERGIES
----------------

  NO   OCC          E(Eh)            E(eV)
   0   2.0000     -15.673454      -426.4964
   1   2.0000     -15.637248      -425.5111
   2   2.0000     -15.628849      -425.2826
   3   2.0000     -15.589896      -424.2226
   4   2.0000     -15.525268      -422.4640
   5   2.0000     -15.515841      -422.2075
   6   2.0000     -15.451952      -420.4690
   7   2.0000     -15.442584      -420.2141
   8   2.0000     -11.324597      -308.1579
   9   2.0000     -11.324020      -308.1423
  10   2.0000     -11.322560      -308.1025
  11   2.0000     -11.301366      -307.5258
  12   2.0000     -11.296456      -307.3922
  13   2.0000     -11.295393      -307.3633
  14   2.0000     -11.289881      -307.2133
  15   2.0000     -11.288301      -307.1703
  16   2.0000     -11.284287      -307.0611
  17   2.0000     -11.276127      -306.8390
  18   2.0000     -11.272514      -306.7407
  19   2.0000     -11.258965      -306.3720
  20   2.0000     -11.258018      -306.3462
  21   2.0000     -11.255206      -306.2697
  22   2.0000     -11.254141      -306.2407
  23   2.0000     -11.240911      -305.8807
  24   2.0000     -11.233677      -305.6839
  25   2.0000     -11.233660      -305.6834
  26   2.0000     -11.233074      -305.6675
  27   2.0000     -11.227506      -305.5160
  28   2.0000     -11.227194      -305.5075
  29   2.0000     -11.210829      -305.0622
  30   2.0000     -11.209365      -305.0223
  31   2.0000     -11.199366      -304.7502
  32   2.0000     -11.192126      -304.5532
  33   2.0000     -11.191532      -304.5371
  34   2.0000     -11.189534      -304.4827
  35   2.0000     -11.188831      -304.4636
  36   2.0000     -11.188771      -304.4619
  37   2.0000     -11.184816      -304.3543
  38   2.0000     -11.183745      -304.3252
  39   2.0000     -11.174496      -304.0735
  40   2.0000     -11.173372      -304.0429
  41   2.0000     -11.168695      -303.9156
  42   2.0000     -11.168669      -303.9149
  43   2.0000     -11.161606      -303.7227
  44   2.0000     -11.160054      -303.6805
  45   2.0000     -11.158175      -303.6294
  46   2.0000     -11.158050      -303.6260
  47   2.0000     -11.153106      -303.4914
  48   2.0000     -11.147180      -303.3302
  49   2.0000     -11.139446      -303.1197
  50   2.0000     -11.133492      -302.9577
  51   2.0000     -11.124843      -302.7224
  52   2.0000      -1.354992       -36.8712
  53   2.0000      -1.324061       -36.0295
  54   2.0000      -1.317027       -35.8381
  55   2.0000      -1.284023       -34.9400
  56   2.0000      -1.226018       -33.3616
  57   2.0000      -1.210168       -32.9304
  58   2.0000      -1.170748       -31.8577
  59   2.0000      -1.152987       -31.3744
  60   2.0000      -1.139115       -30.9969
  61   2.0000      -1.112589       -30.2751
  62   2.0000      -1.106812       -30.1179
  63   2.0000      -1.080412       -29.3995
  64   2.0000      -1.077085       -29.3090
  65   2.0000      -1.048140       -28.5213
  66   2.0000      -1.041803       -28.3489
  67   2.0000      -1.038220       -28.2514
  68   2.0000      -1.015102       -27.6223
  69   2.0000      -1.012966       -27.5642
  70   2.0000      -1.009286       -27.4641
  71   2.0000      -0.993372       -27.0310
  72   2.0000      -0.986680       -26.8489
  73   2.0000      -0.980082       -26.6694
  74   2.0000      -0.971959       -26.4483
  75   2.0000      -0.960193       -26.1282
  76   2.0000      -0.952710       -25.9245
  77   2.0000      -0.946319       -25.7507
  78   2.0000      -0.935129       -25.4462
  79   2.0000      -0.919149       -25.0113
  80   2.0000      -0.906094       -24.6561
  81   2.0000      -0.893719       -24.3193
  82   2.0000      -0.875579       -23.8257
  83   2.0000      -0.872483       -23.7415
  84   2.0000      -0.867652       -23.6100
  85   2.0000      -0.856186       -23.2980
  86   2.0000      -0.839547       -22.8452
  87   2.0000      -0.836851       -22.7719
  88   2.0000      -0.823572       -22.4105
  89   2.0000      -0.797948       -21.7133
  90   2.0000      -0.791620       -21.5411
  91   2.0000      -0.750145       -20.4125
  92   2.0000      -0.741235       -20.1700
  93   2.0000      -0.733350       -19.9555
  94   2.0000      -0.724478       -19.7141
  95   2.0000      -0.721079       -19.6216
  96   2.0000      -0.715567       -19.4716
  97   2.0000      -0.710552       -19.3351
  98   2.0000      -0.705712       -19.2034
  99   2.0000      -0.696870       -18.9628
 100   2.0000      -0.696118       -18.9423
 101   2.0000      -0.683880       -18.6093
 102   2.0000      -0.680208       -18.5094
 103   2.0000      -0.679655       -18.4944
 104   2.0000      -0.676260       -18.4020
 105   2.0000      -0.671643       -18.2763
 106   2.0000      -0.668735       -18.1972
 107   2.0000      -0.661632       -18.0039
 108   2.0000      -0.655391       -17.8341
 109   2.0000      -0.653966       -17.7953
 110   2.0000      -0.649171       -17.6648
 111   2.0000      -0.642987       -17.4966
 112   2.0000      -0.641556       -17.4576
 113   2.0000      -0.640480       -17.4283
 114   2.0000      -0.637013       -17.3340
 115   2.0000      -0.626163       -17.0388
 116   2.0000      -0.624021       -16.9805
 117   2.0000      -0.617208       -16.7951
 118   2.0000      -0.614900       -16.7323
 119   2.0000      -0.613167       -16.6851
 120   2.0000      -0.609200       -16.5772
 121   2.0000      -0.607344       -16.5267
 122   2.0000      -0.599450       -16.3119
 123   2.0000      -0.586445       -15.9580
 124   2.0000      -0.583334       -15.8733
 125   2.0000      -0.580675       -15.8010
 126   2.0000      -0.578732       -15.7481
 127   2.0000      -0.577006       -15.7011
 128   2.0000      -0.566931       -15.4270
 129   2.0000      -0.558786       -15.2053
 130   2.0000      -0.550581       -14.9821
 131   2.0000      -0.547665       -14.9027
 132   2.0000      -0.543651       -14.7935
 133   2.0000      -0.540692       -14.7130
 134   2.0000      -0.539585       -14.6829
 135   2.0000      -0.534267       -14.5381
 136   2.0000      -0.526980       -14.3399
 137   2.0000      -0.522505       -14.2181
 138   2.0000      -0.518331       -14.1045
 139   2.0000      -0.513356       -13.9691
 140   2.0000      -0.512391       -13.9429
 141   2.0000      -0.510415       -13.8891
 142   2.0000      -0.510341       -13.8871
 143   2.0000      -0.503717       -13.7068
 144   2.0000      -0.500379       -13.6160
 145   2.0000      -0.496401       -13.5077
 146   2.0000      -0.494067       -13.4442
 147   2.0000      -0.483606       -13.1596
 148   2.0000      -0.479054       -13.0357
 149   2.0000      -0.466895       -12.7048
 150   2.0000      -0.465905       -12.6779
 151   2.0000      -0.457219       -12.4416
 152   2.0000      -0.449895       -12.2423
 153   2.0000      -0.446144       -12.1402
 154   2.0000      -0.442144       -12.0314
 155   2.0000      -0.433135       -11.7862
 156   2.0000      -0.429052       -11.6751
 157   2.0000      -0.421479       -11.4690
 158   2.0000      -0.405469       -11.0334
 159   2.0000      -0.386945       -10.5293
 160   2.0000      -0.383484       -10.4351
 161   2.0000      -0.378370       -10.2960
 162   2.0000      -0.371219       -10.1014
 163   2.0000      -0.358930        -9.7670
 164   2.0000      -0.353758        -9.6262
 165   2.0000      -0.339795        -9.2463
 166   2.0000      -0.337756        -9.1908
 167   2.0000      -0.327110        -8.9011
 168   2.0000      -0.324342        -8.8258
 169   2.0000      -0.304988        -8.2991
 170   2.0000      -0.299513        -8.1502
 171   2.0000      -0.285687        -7.7739
 172   2.0000      -0.281782        -7.6677
 173   2.0000      -0.261896        -7.1266
 174   2.0000      -0.243475        -6.6253
 175   2.0000      -0.189976        -5.1695
 176   2.0000      -0.180364        -4.9080
 177   2.0000      -0.076017        -2.0685
 178   2.0000      -0.058455        -1.5907
 179   0.0000       0.028386         0.7724
 180   0.0000       0.066163         1.8004
 181   0.0000       0.091385         2.4867
 182   0.0000       0.109678         2.9845
 183   0.0000       0.110668         3.0114

MULLIKEN ATOMIC CHARGES
-----------------------
   0 C :    0.208537
   1 N :   -0.455732
   2 C :   -0.067820
   3 N :   -0.337216
   4 C :   -0.054003
   5 N :   -0.562191
   6 C :   -0.121177
   7 N :   -0.340363
   8 C :    0.209129
   9 N :   -0.562654
  10 C :    0.118965
  11 N :   -0.437817
  12 C :   -0.079539
  13 N :   -0.430880
  14 C :    0.220319
  15 N :   -0.441512
  16 C :    0.230311
  17 C :   -0.118118
  18 C :   -0.161750
  19 C :    0.207164
  20 C :    0.214124
  21 C :   -0.091602
  22 C :   -0.088918
  23 C :   -0.040892
  24 C :    0.196302
  25 C :    0.114168
  26 C :   -0.078234
  27 C :    0.212468
  28 C :   -0.060207
  29 C :   -0.181073
  30 C :    0.244526
  31 C :    0.228635
  32 C :   -0.061524
  33 C :   -0.063466
  34 C :   -0.049791
  35 C :    0.223816
  36 C :    0.109068
  37 C :   -0.064589
  38 C :    0.233051
  39 C :   -0.059188
  40 C :   -0.181561
  41 C :    0.223903
  42 C :    0.197263
  43 C :   -0.072816
  44 C :   -0.091158
  45 C :   -0.060583
  46 C :    0.209211
  47 C :    0.115708
  48 C :   -0.068307
  49 C :    0.236822
  50 C :   -0.047208
  51 C :   -0.193878
  52 H :    0.039394
  53 H :   -0.016795
  54 H :    0.051833
  55 H :    0.038242
  56 H :    0.049299
  57 H :    0.048074
  58 H :    0.047048
  59 H :    0.001637
  60 H :    0.052301
  61 H :    0.171033
  62 H :    0.175433
  63 H :    0.056460
  64 H :   -0.004364
  65 H :    0.047079
  66 H :    0.056595
  67 H :    0.063354
  68 H :    0.057782
  69 H :    0.057267
  70 H :   -0.028435
  71 H :    0.046178
  72 H :    0.069394
  73 H :   -0.008556
  74 H :    0.058657
  75 H :    0.068646
  76 H :    0.073265
  77 H :    0.066683
  78 H :    0.065847
  79 H :   -0.015686
  80 H :    0.059267
  81 H :    0.053654
  82 H :   -0.025166
  83 H :    0.041040
  84 H :    0.053121
  85 H :    0.059890
  86 H :    0.055063
  87 H :    0.056707
  88 H :   -0.015339
  89 H :    0.046371
Sum of atomic charges:   -0.0000000

LOEWDIN ATOMIC CHARGES
----------------------
   0 C :   -0.023591
   1 N :    0.115952
   2 C :   -0.102274
   3 N :    0.183401
   4 C :   -0.009436
   5 N :   -0.130804
   6 C :   -0.042654
   7 N :    0.175636
   8 C :   -0.020686
   9 N :   -0.140396
  10 C :    0.023670
  11 N :    0.143577
  12 C :   -0.113524
  13 N :    0.162875
  14 C :   -0.030591
  15 N :    0.137413
  16 C :   -0.057641
  17 C :   -0.041100
  18 C :   -0.101532
  19 C :   -0.083342
  20 C :    0.005605
  21 C :   -0.118387
  22 C :    0.039359
  23 C :   -0.015159
  24 C :   -0.009913
  25 C :    0.030211
  26 C :   -0.108250
  27 C :   -0.115172
  28 C :   -0.026094
  29 C :   -0.099030
  30 C :   -0.032912
  31 C :    0.022166
  32 C :   -0.093761
  33 C :    0.076138
  34 C :   -0.014976
  35 C :    0.018207
  36 C :    0.034481
  37 C :   -0.094985
  38 C :   -0.048857
  39 C :   -0.019221
  40 C :   -0.108085
  41 C :   -0.093744
  42 C :   -0.010793
  43 C :   -0.100404
  44 C :    0.031092
  45 C :   -0.028016
  46 C :   -0.000526
  47 C :    0.029176
  48 C :   -0.096912
  49 C :   -0.071645
  50 C :   -0.019602
  51 C :   -0.109978
  52 H :    0.023337
  53 H :    0.002985
  54 H :    0.040411
  55 H :    0.023444
  56 H :    0.021562
  57 H :    0.026490
  58 H :    0.027010
  59 H :    0.011194
  60 H :    0.041494
  61 H :    0.060000
  62 H :    0.061820
  63 H :    0.031247
  64 H :    0.007015
  65 H :    0.045831
  66 H :    0.029738
  67 H :    0.028690
  68 H :    0.031881
  69 H :    0.030714
  70 H :   -0.004050
  71 H :    0.044131
  72 H :    0.036850
  73 H :    0.006853
  74 H :    0.050015
  75 H :    0.036321
  76 H :    0.033931
  77 H :    0.035566
  78 H :    0.035198
  79 H :    0.003395
  80 H :    0.049795
  81 H :    0.028780
  82 H :   -0.002862
  83 H :    0.042178
  84 H :    0.029349
  85 H :    0.026898
  86 H :    0.029942
  87 H :    0.031168
  88 H :    0.001981
  89 H :    0.044734

  Mayer bond orders larger than 0.100000
B(  0-C ,  1-N ) :   1.0887 B(  0-C , 17-C ) :   1.7077 B(  0-C , 52-H ) :   0.9665
B(  1-N ,  8-C ) :   1.0896 B(  1-N , 10-C ) :   0.9779 B(  2-C , 12-C ) :   1.5063
B(  2-C , 16-C ) :   1.3559 B(  2-C , 53-H ) :   0.9757 B(  3-N , 14-C ) :   1.2181
B(  3-N , 16-C ) :   1.1909 B(  3-N , 61-H ) :   0.8994 B(  4-C ,  6-C ) :   1.2119
B(  4-C , 17-C ) :   1.2122 B(  4-C , 18-C ) :   1.4335 B(  5-N , 19-C ) :   1.4521
B(  5-N , 27-C ) :   1.3799 B(  6-C ,  8-C ) :   1.7070 B(  6-C , 54-H ) :   0.9555
B(  7-N , 30-C ) :   1.1940 B(  7-N , 38-C ) :   1.1925 B(  7-N , 62-H ) :   0.8968
B(  8-C , 55-H ) :   0.9675 B(  9-N , 41-C ) :   1.3932 B(  9-N , 49-C ) :   1.4275
B( 10-C , 56-H ) :   0.9769 B( 10-C , 57-H ) :   0.9832 B( 10-C , 58-H ) :   0.9834
B( 11-N , 20-C ) :   1.1320 B( 11-N , 24-C ) :   1.1108 B( 11-N , 25-C ) :   0.9589
B( 12-C , 14-C ) :   1.3558 B( 12-C , 59-H ) :   0.9737 B( 13-N , 31-C ) :   1.1575
B( 13-N , 35-C ) :   1.1524 B( 13-N , 36-C ) :   0.9439 B( 14-C , 18-C ) :   1.1301
B( 15-N , 42-C ) :   1.1069 B( 15-N , 46-C ) :   1.1209 B( 15-N , 47-C ) :   0.9624
B( 16-C , 51-C ) :   1.1722 B( 17-C , 60-H ) :   0.9561 B( 18-C , 19-C ) :   1.1340
B( 19-C , 21-C ) :   1.2439 B( 20-C , 28-C ) :   1.6257 B( 20-C , 63-H ) :   0.9702
B( 21-C , 26-C ) :   1.6115 B( 21-C , 64-H ) :   0.9709 B( 22-C , 23-C ) :   1.2909
B( 22-C , 28-C ) :   1.2674 B( 22-C , 29-C ) :   1.2206 B( 23-C , 24-C ) :   1.6174
B( 23-C , 65-H ) :   0.9704 B( 24-C , 66-H ) :   0.9694 B( 25-C , 67-H ) :   0.9760
B( 25-C , 68-H ) :   0.9828 B( 25-C , 69-H ) :   0.9823 B( 26-C , 27-C ) :   1.2385
B( 26-C , 70-H ) :   0.9702 B( 27-C , 29-C ) :   1.2139 B( 28-C , 71-H ) :   0.9719
B( 29-C , 30-C ) :   1.2423 B( 30-C , 32-C ) :   1.2821 B( 31-C , 39-C ) :   1.5940
B( 31-C , 72-H ) :   0.9683 B( 32-C , 37-C ) :   1.5772 B( 32-C , 73-H ) :   0.9784
B( 33-C , 34-C ) :   1.3042 B( 33-C , 39-C ) :   1.2980 B( 33-C , 40-C ) :   1.1844
B( 34-C , 35-C ) :   1.5906 B( 34-C , 74-H ) :   0.9697 B( 35-C , 75-H ) :   0.9684
B( 36-C , 76-H ) :   0.9767 B( 36-C , 77-H ) :   0.9816 B( 36-C , 78-H ) :   0.9824
B( 37-C , 38-C ) :   1.2864 B( 37-C , 79-H ) :   0.9767 B( 38-C , 40-C ) :   1.2319
B( 39-C , 80-H ) :   0.9707 B( 40-C , 41-C ) :   1.2462 B( 41-C , 43-C ) :   1.1904
B( 42-C , 50-C ) :   1.6360 B( 42-C , 81-H ) :   0.9697 B( 43-C , 48-C ) :   1.6616
B( 43-C , 82-H ) :   0.9723 B( 44-C , 45-C ) :   1.2623 B( 44-C , 50-C ) :   1.2692
B( 44-C , 51-C ) :   1.2652 B( 45-C , 46-C ) :   1.6369 B( 45-C , 83-H ) :   0.9718
B( 46-C , 84-H ) :   0.9701 B( 47-C , 85-H ) :   0.9762 B( 47-C , 86-H ) :   0.9829
B( 47-C , 87-H ) :   0.9825 B( 48-C , 49-C ) :   1.1938 B( 48-C , 88-H ) :   0.9748
B( 49-C , 51-C ) :   1.2367 B( 50-C , 89-H ) :   0.9709

MP2 TOTAL ENERGY:    -2130.892301639 Eh
FINAL SINGLE POINT ENERGY     -2130.892301639249

DIPOLE MOMENT
-------------
                                X             Y             Z
Electronic contribution:      2.15750      -4.05049      -0.22242
Nuclear contribution   :      0.03688       0.21101       0.22243
                        -----------------------------------------
Total Dipole Moment    :      2.19439      -3.83947       0.00001
                        -----------------------------------------
Magnitude (a.u.)       :      4.42232
Magnitude (Debye)      :     11.24063

Rotational constants in cm-1:     0.001500     0.001478     0.000761
Rotational constants in MHz :    44.974438    44.311740    22.803545

                             ****ORCA TERMINATED NORMALLY****
TOTAL RUN TIME: 0 days 1 hours 20 minutes 14 seconds 344 msec
