                         Program Version 5.0.4 -  RELEASE  -
|  1> ! PAL2
|  2> ! mp2 cc-pvdz TightSCF  NoKeepInts
|  3>
|  4> %scf
|  5>   MaxCore 2000
|  6> end
|  7> %mp2
|  8>   MaxCore 2000
|  9> end
| 10> * xyz 0 1
| 11>    C       -4.00500         5.80800         1.24800
| 12>    C        1.47400         4.04100         0.05700
| 13>    C       -2.80200         4.09300         0.04900
| 14>    C       -3.21200         4.71000        -1.14300
| 15>    C       -3.99500         5.84700        -1.10100
| 16>    C       -5.19100         7.61800         0.09200
| 17>    C        0.13200         4.30700         0.06100
| 18>    C       -0.56900         3.05600         0.04700
| 19>    C        1.64900         2.61800         0.02300
| 20>    C       -3.21700         4.67300         1.25800
| 21>    N       -4.38300         6.37800         0.08100
| 22>    N        0.38800         2.06700         0.02500
| 23>    N       -2.01000         0.39500        -0.07500
| 24>    N       -0.38800        -2.07400        -0.02700
| 25>    N        2.01000        -0.40100         0.06500
| 26>    C       -1.96000         2.86100         0.02400
| 27>    C       -2.62300         1.61500        -0.01800
| 28>    C       -5.57300        -4.32900         1.06600
| 29>    C       -4.07300         1.47100         0.05600
| 30>    C       -4.10600        -2.75600        -0.02600
| 31>    C       -4.99500        -2.75700        -1.11100
| 32>    C       -6.13200        -3.54200        -1.07600
| 33>    C       -7.65100        -5.11300         0.04000
| 34>    C       -4.32400         0.14100         0.03700
| 35>    C       -3.02500        -0.52000        -0.04800
| 36>    C       -4.42200        -3.56600         1.07500
| 37>    N       -6.40700        -4.31300         0.00100
| 38>    C       -2.86700        -1.92200        -0.04000
| 39>    C       -1.65000        -2.62400        -0.02700
| 40>    C        3.56800        -6.14200        -1.04000
| 41>    C       -1.47600        -4.04900        -0.03400
| 42>    C        2.80300        -4.09900        -0.00800
| 43>    C        3.65700        -4.38400         1.06900
| 44>    C        4.42700        -5.53000         1.05900
| 45>    C        5.24500        -7.58800         0.01400
| 46>    C       -0.13400        -4.31500        -0.02200
| 47>    C        0.56800        -3.06400        -0.02700
| 48>    C        2.77500        -5.01200        -1.07400
| 49>    N        4.37600        -6.39100         0.01700
| 50>    C        1.95900        -2.86900        -0.00900
| 51>    C        2.62100        -1.62200         0.00900
| 52>    C        5.54300         4.33900        -1.13000
| 53>    C        4.07000        -1.47900        -0.09400
| 54>    C        4.10400         2.75100        -0.02100
| 55>    C        5.02700         2.72900         1.03600
| 56>    C        6.16600         3.50900         0.97800
| 57>    C        7.61900         5.15300        -0.11500
| 58>    C        4.32100        -0.14800        -0.09200
| 59>    C        3.02500         0.51400         0.01500
| 60>    C        4.38700         3.58200        -1.11500
| 61>    C        2.86600         1.91600         0.01300
| 62>    N        6.41300         4.29600        -0.09500
| 63>    H       -4.35800         6.28200         2.15600
| 64>    H        2.27400         4.76600         0.08100
| 65>    H       -2.91600         4.31600        -2.10700
| 66>    H       -4.32800         6.36200        -1.99300
| 67>    H       -4.52000         8.47900         0.04500
| 68>    H       -5.85500         7.61100        -0.77100
| 69>    H       -5.77400         7.64800         1.01200
| 70>    H       -0.33200         5.28200         0.06900
| 71>    H       -2.94500         4.23500         2.21100
| 72>    H        0.18200         1.07200         0.00500
| 73>    H       -0.18300        -1.08000        -0.02100
| 74>    H       -5.86400        -4.96200         1.89500
| 75>    H       -4.79400         2.27200         0.13900
| 76>    H       -4.80000        -2.16000        -1.99400
| 77>    H       -6.84100        -3.58200        -1.89300
| 78>    H       -8.42800        -4.53600         0.54600
| 79>    H       -7.95600        -5.33700        -0.98100
| 80>    H       -7.45600        -6.03700         0.58400
| 81>    H       -5.28700        -0.34400         0.10000
| 82>    H       -3.78000        -3.60100         1.94700
| 83>    H        3.58700        -6.86800        -1.84300
| 84>    H       -2.27600        -4.77400        -0.05000
| 85>    H        3.71400        -3.72400         1.92600
| 86>    H        5.09200        -5.79500         1.87100
| 87>    H        6.20500        -7.32900        -0.43900
| 88>    H        5.39300        -7.91700         1.04200
| 89>    H        4.75900        -8.37300        -0.56400
| 90>    H        0.32900        -5.29000        -0.00800
| 91>    H        2.14600        -4.84200        -1.94000
| 92>    H        5.80800         4.98600        -1.95600
| 93>    H        4.78800        -2.28100        -0.18500
| 94>    H        4.86000         2.11400         1.91200
| 95>    H        6.90100         3.53100         1.77200
| 96>    H        7.38300         6.10900         0.35600
| 97>    H        8.41400         4.65200         0.43500
| 98>    H        7.92100         5.31000        -1.15000
| 99>    H        5.28300         0.33600        -0.17900
|100>    H        3.72000         3.63200        -1.96700
|101> *
|102>
|103>                          ****END OF INPUT****

CARTESIAN COORDINATES (ANGSTROEM)
---------------------------------
  C     -4.005000    5.808000    1.248000
  C      1.474000    4.041000    0.057000
  C     -2.802000    4.093000    0.049000
  C     -3.212000    4.710000   -1.143000
  C     -3.995000    5.847000   -1.101000
  C     -5.191000    7.618000    0.092000
  C      0.132000    4.307000    0.061000
  C     -0.569000    3.056000    0.047000
  C      1.649000    2.618000    0.023000
  C     -3.217000    4.673000    1.258000
  N     -4.383000    6.378000    0.081000
  N      0.388000    2.067000    0.025000
  N     -2.010000    0.395000   -0.075000
  N     -0.388000   -2.074000   -0.027000
  N      2.010000   -0.401000    0.065000
  C     -1.960000    2.861000    0.024000
  C     -2.623000    1.615000   -0.018000
  C     -5.573000   -4.329000    1.066000
  C     -4.073000    1.471000    0.056000
  C     -4.106000   -2.756000   -0.026000
  C     -4.995000   -2.757000   -1.111000
  C     -6.132000   -3.542000   -1.076000
  C     -7.651000   -5.113000    0.040000
  C     -4.324000    0.141000    0.037000
  C     -3.025000   -0.520000   -0.048000
  C     -4.422000   -3.566000    1.075000
  N     -6.407000   -4.313000    0.001000
  C     -2.867000   -1.922000   -0.040000
  C     -1.650000   -2.624000   -0.027000
  C      3.568000   -6.142000   -1.040000
  C     -1.476000   -4.049000   -0.034000
  C      2.803000   -4.099000   -0.008000
  C      3.657000   -4.384000    1.069000
  C      4.427000   -5.530000    1.059000
  C      5.245000   -7.588000    0.014000
  C     -0.134000   -4.315000   -0.022000
  C      0.568000   -3.064000   -0.027000
  C      2.775000   -5.012000   -1.074000
  N      4.376000   -6.391000    0.017000
  C      1.959000   -2.869000   -0.009000
  C      2.621000   -1.622000    0.009000
  C      5.543000    4.339000   -1.130000
  C      4.070000   -1.479000   -0.094000
  C      4.104000    2.751000   -0.021000
  C      5.027000    2.729000    1.036000
  C      6.166000    3.509000    0.978000
  C      7.619000    5.153000   -0.115000
  C      4.321000   -0.148000   -0.092000
  C      3.025000    0.514000    0.015000
  C      4.387000    3.582000   -1.115000
  C      2.866000    1.916000    0.013000
  N      6.413000    4.296000   -0.095000
  H     -4.358000    6.282000    2.156000
  H      2.274000    4.766000    0.081000
  H     -2.916000    4.316000   -2.107000
  H     -4.328000    6.362000   -1.993000
  H     -4.520000    8.479000    0.045000
  H     -5.855000    7.611000   -0.771000
  H     -5.774000    7.648000    1.012000
  H     -0.332000    5.282000    0.069000
  H     -2.945000    4.235000    2.211000
  H      0.182000    1.072000    0.005000
  H     -0.183000   -1.080000   -0.021000
  H     -5.864000   -4.962000    1.895000
  H     -4.794000    2.272000    0.139000
  H     -4.800000   -2.160000   -1.994000
  H     -6.841000   -3.582000   -1.893000
  H     -8.428000   -4.536000    0.546000
  H     -7.956000   -5.337000   -0.981000
  H     -7.456000   -6.037000    0.584000
  H     -5.287000   -0.344000    0.100000
  H     -3.780000   -3.601000    1.947000
  H      3.587000   -6.868000   -1.843000
  H     -2.276000   -4.774000   -0.050000
  H      3.714000   -3.724000    1.926000
  H      5.092000   -5.795000    1.871000
  H      6.205000   -7.329000   -0.439000
  H      5.393000   -7.917000    1.042000
  H      4.759000   -8.373000   -0.564000
  H      0.329000   -5.290000   -0.008000
  H      2.146000   -4.842000   -1.940000
  H      5.808000    4.986000   -1.956000
  H      4.788000   -2.281000   -0.185000
  H      4.860000    2.114000    1.912000
  H      6.901000    3.531000    1.772000
  H      7.383000    6.109000    0.356000
  H      8.414000    4.652000    0.435000
  H      7.921000    5.310000   -1.150000
  H      5.283000    0.336000   -0.179000
  H      3.720000    3.632000   -1.967000

 Total Charge           Charge          ....    0
 Multiplicity           Mult            ....    1
 Number of Electrons    NEL             ....  358
 Basis Dimension        Dim             ....  918

ORBITAL ENERGIES
----------------

  NO   OCC          E(Eh)            E(eV)
   0   2.0000     -15.721085      -427.7925
   1   2.0000     -15.628115      -425.2626
   2   2.0000     -15.618408      -424.9985
   3   2.0000     -15.575845      -423.8403
   4   2.0000     -15.520762      -422.3414
   5   2.0000     -15.503950      -421.8839
   6   2.0000     -15.451393      -420.4538
   7   2.0000     -15.426588      -419.7788
   8   2.0000     -11.357974      -309.0662
   9   2.0000     -11.357624      -309.0567
  10   2.0000     -11.350823      -308.8716
  11   2.0000     -11.314565      -307.8850
  12   2.0000     -11.296164      -307.3842
  13   2.0000     -11.290421      -307.2280
  14   2.0000     -11.289506      -307.2031
  15   2.0000     -11.287202      -307.1404
  16   2.0000     -11.287055      -307.1364
  17   2.0000     -11.281396      -306.9824
  18   2.0000     -11.280045      -306.9456
  19   2.0000     -11.271063      -306.7012
  20   2.0000     -11.262706      -306.4738
  21   2.0000     -11.242502      -305.9240
  22   2.0000     -11.238795      -305.8232
  23   2.0000     -11.231885      -305.6351
  24   2.0000     -11.226517      -305.4891
  25   2.0000     -11.225625      -305.4648
  26   2.0000     -11.222714      -305.3856
  27   2.0000     -11.218809      -305.2793
  28   2.0000     -11.218498      -305.2709
  29   2.0000     -11.211489      -305.0801
  30   2.0000     -11.209628      -305.0295
  31   2.0000     -11.195745      -304.6517
  32   2.0000     -11.194628      -304.6213
  33   2.0000     -11.193355      -304.5867
  34   2.0000     -11.187692      -304.4326
  35   2.0000     -11.186935      -304.4120
  36   2.0000     -11.182458      -304.2902
  37   2.0000     -11.179577      -304.2118
  38   2.0000     -11.179504      -304.2098
  39   2.0000     -11.178232      -304.1752
  40   2.0000     -11.170521      -303.9653
  41   2.0000     -11.165461      -303.8276
  42   2.0000     -11.164480      -303.8010
  43   2.0000     -11.162040      -303.7345
  44   2.0000     -11.160518      -303.6931
  45   2.0000     -11.144238      -303.2501
  46   2.0000     -11.143611      -303.2331
  47   2.0000     -11.140412      -303.1460
  48   2.0000     -11.136925      -303.0511
  49   2.0000     -11.130480      -302.8758
  50   2.0000     -11.116302      -302.4900
  51   2.0000     -11.110539      -302.3331
  52   2.0000      -1.392536       -37.8928
  53   2.0000      -1.316417       -35.8215
  54   2.0000      -1.307435       -35.5771
  55   2.0000      -1.271227       -34.5918
  56   2.0000      -1.224634       -33.3240
  57   2.0000      -1.199986       -32.6533
  58   2.0000      -1.178551       -32.0700
  59   2.0000      -1.165520       -31.7154
  60   2.0000      -1.136558       -30.9273
  61   2.0000      -1.110042       -30.2058
  62   2.0000      -1.105782       -30.0898
  63   2.0000      -1.097201       -29.8564
  64   2.0000      -1.065511       -28.9940
  65   2.0000      -1.058101       -28.7924
  66   2.0000      -1.040897       -28.3242
  67   2.0000      -1.032386       -28.0926
  68   2.0000      -1.015327       -27.6284
  69   2.0000      -1.003861       -27.3164
  70   2.0000      -0.998487       -27.1702
  71   2.0000      -0.995299       -27.0835
  72   2.0000      -0.985646       -26.8208
  73   2.0000      -0.975807       -26.5531
  74   2.0000      -0.964457       -26.2442
  75   2.0000      -0.961174       -26.1549
  76   2.0000      -0.950685       -25.8695
  77   2.0000      -0.940306       -25.5870
  78   2.0000      -0.936079       -25.4720
  79   2.0000      -0.919465       -25.0199
  80   2.0000      -0.911991       -24.8165
  81   2.0000      -0.891375       -24.2555
  82   2.0000      -0.886829       -24.1318
  83   2.0000      -0.868036       -23.6205
  84   2.0000      -0.859907       -23.3993
  85   2.0000      -0.846163       -23.0253
  86   2.0000      -0.828915       -22.5559
  87   2.0000      -0.826039       -22.4777
  88   2.0000      -0.820015       -22.3138
  89   2.0000      -0.794221       -21.6118
  90   2.0000      -0.785624       -21.3779
  91   2.0000      -0.772676       -21.0256
  92   2.0000      -0.740977       -20.1630
  93   2.0000      -0.733531       -19.9604
  94   2.0000      -0.728955       -19.8359
  95   2.0000      -0.724268       -19.7083
  96   2.0000      -0.715999       -19.4833
  97   2.0000      -0.711181       -19.3522
  98   2.0000      -0.706428       -19.2229
  99   2.0000      -0.705415       -19.1953
 100   2.0000      -0.695807       -18.9339
 101   2.0000      -0.687996       -18.7213
 102   2.0000      -0.683940       -18.6110
 103   2.0000      -0.675686       -18.3864
 104   2.0000      -0.672178       -18.2909
 105   2.0000      -0.671879       -18.2828
 106   2.0000      -0.666652       -18.1405
 107   2.0000      -0.661484       -17.9999
 108   2.0000      -0.651962       -17.7408
 109   2.0000      -0.648801       -17.6548
 110   2.0000      -0.648366       -17.6429
 111   2.0000      -0.641908       -17.4672
 112   2.0000      -0.640417       -17.4266
 113   2.0000      -0.635449       -17.2914
 114   2.0000      -0.633646       -17.2424
 115   2.0000      -0.629034       -17.1169
 116   2.0000      -0.627048       -17.0629
 117   2.0000      -0.614457       -16.7202
 118   2.0000      -0.610673       -16.6173
 119   2.0000      -0.608712       -16.5639
 120   2.0000      -0.608142       -16.5484
 121   2.0000      -0.600567       -16.3423
 122   2.0000      -0.593321       -16.1451
 123   2.0000      -0.589111       -16.0305
 124   2.0000      -0.584059       -15.8930
 125   2.0000      -0.577991       -15.7279
 126   2.0000      -0.574540       -15.6340
 127   2.0000      -0.571708       -15.5570
 128   2.0000      -0.570577       -15.5262
 129   2.0000      -0.569283       -15.4910
 130   2.0000      -0.556238       -15.1360
 131   2.0000      -0.542666       -14.7667
 132   2.0000      -0.542011       -14.7489
 133   2.0000      -0.538130       -14.6433
 134   2.0000      -0.533441       -14.5157
 135   2.0000      -0.529130       -14.3984
 136   2.0000      -0.519532       -14.1372
 137   2.0000      -0.515570       -14.0294
 138   2.0000      -0.513744       -13.9797
 139   2.0000      -0.511848       -13.9281
 140   2.0000      -0.509595       -13.8668
 141   2.0000      -0.503292       -13.6953
 142   2.0000      -0.501104       -13.6357
 143   2.0000      -0.497417       -13.5354
 144   2.0000      -0.495280       -13.4773
 145   2.0000      -0.492511       -13.4019
 146   2.0000      -0.488246       -13.2858
 147   2.0000      -0.472987       -12.8706
 148   2.0000      -0.469847       -12.7852
 149   2.0000      -0.465800       -12.6751
 150   2.0000      -0.462857       -12.5950
 151   2.0000      -0.459978       -12.5166
 152   2.0000      -0.451880       -12.2963
 153   2.0000      -0.440730       -11.9929
 154   2.0000      -0.432549       -11.7703
 155   2.0000      -0.430810       -11.7229
 156   2.0000      -0.418573       -11.3899
 157   2.0000      -0.416537       -11.3345
 158   2.0000      -0.410889       -11.1809
 159   2.0000      -0.410425       -11.1682
 160   2.0000      -0.381366       -10.3775
 161   2.0000      -0.369276       -10.0485
 162   2.0000      -0.353105        -9.6085
 163   2.0000      -0.351551        -9.5662
 164   2.0000      -0.345490        -9.4013
 165   2.0000      -0.341722        -9.2987
 166   2.0000      -0.337812        -9.1923
 167   2.0000      -0.316466        -8.6115
 168   2.0000      -0.311655        -8.4806
 169   2.0000      -0.305168        -8.3040
 170   2.0000      -0.298024        -8.1096
 171   2.0000      -0.282358        -7.6833
 172   2.0000      -0.275249        -7.4899
 173   2.0000      -0.266588        -7.2542
 174   2.0000      -0.228650        -6.2219
 175   2.0000      -0.182878        -4.9764
 176   2.0000      -0.173083        -4.7098
 177   2.0000      -0.062675        -1.7055
 178   2.0000      -0.050741        -1.3807
 179   0.0000       0.036421         0.9911
 180   0.0000       0.054073         1.4714
 181   0.0000       0.072721         1.9788
 182   0.0000       0.098667         2.6849
 183   0.0000       0.102371         2.7857

MULLIKEN ATOMIC CHARGES
-----------------------
   0 C :    0.236481
   1 N :   -0.409400
   2 C :   -0.066378
   3 N :   -0.344440
   4 C :   -0.066544
   5 N :   -0.566275
   6 C :   -0.027206
   7 N :   -0.336784
   8 C :    0.236730
   9 N :   -0.566475
  10 C :    0.103007
  11 N :   -0.440265
  12 C :   -0.057842
  13 N :   -0.452083
  14 C :    0.218724
  15 N :   -0.441840
  16 C :    0.258432
  17 C :   -0.028796
  18 C :   -0.174185
  19 C :    0.229987
  20 C :    0.185487
  21 C :   -0.066960
  22 C :   -0.092456
  23 C :   -0.069511
  24 C :    0.217704
  25 C :    0.115229
  26 C :   -0.064766
  27 C :    0.250371
  28 C :   -0.038637
  29 C :   -0.198044
  30 C :    0.219323
  31 C :    0.185718
  32 C :   -0.064284
  33 C :   -0.104573
  34 C :   -0.050487
  35 C :    0.175912
  36 C :    0.121708
  37 C :   -0.071003
  38 C :    0.245266
  39 C :   -0.065792
  40 C :   -0.205905
  41 C :    0.215767
  42 C :    0.212824
  43 C :   -0.077823
  44 C :   -0.092950
  45 C :   -0.036808
  46 C :    0.181716
  47 C :    0.116943
  48 C :   -0.082813
  49 C :    0.205728
  50 C :   -0.069214
  51 C :   -0.188496
  52 H :    0.084967
  53 H :   -0.006003
  54 H :    0.068495
  55 H :    0.083016
  56 H :    0.087697
  57 H :    0.077912
  58 H :    0.076601
  59 H :   -0.030510
  60 H :    0.069646
  61 H :    0.177654
  62 H :    0.167214
  63 H :    0.051697
  64 H :   -0.035717
  65 H :    0.039388
  66 H :    0.053962
  67 H :    0.057156
  68 H :    0.055346
  69 H :    0.058570
  70 H :   -0.011942
  71 H :    0.045920
  72 H :    0.035472
  73 H :   -0.019607
  74 H :    0.027555
  75 H :    0.034105
  76 H :    0.044546
  77 H :    0.044803
  78 H :    0.044051
  79 H :   -0.011498
  80 H :    0.027264
  81 H :    0.049741
  82 H :   -0.023029
  83 H :    0.042436
  84 H :    0.048616
  85 H :    0.053511
  86 H :    0.056246
  87 H :    0.054052
  88 H :   -0.031350
  89 H :    0.037994
Sum of atomic charges:   -0.0000000

LOEWDIN ATOMIC CHARGES
----------------------
   0 C :    0.041491
   1 N :    0.198920
   2 C :   -0.097976
   3 N :    0.170281
   4 C :    0.126886
   5 N :   -0.149019
   6 C :   -0.010510
   7 N :    0.177436
   8 C :    0.041919
   9 N :   -0.138407
  10 C :    0.041709
  11 N :    0.137865
  12 C :   -0.095888
  13 N :    0.110603
  14 C :   -0.062963
  15 N :    0.133885
  16 C :   -0.013930
  17 C :   -0.010418
  18 C :   -0.122301
  19 C :   -0.089303
  20 C :   -0.021212
  21 C :   -0.098473
  22 C :    0.030410
  23 C :   -0.035764
  24 C :    0.007369
  25 C :    0.028933
  26 C :   -0.090515
  27 C :   -0.050270
  28 C :   -0.014551
  29 C :   -0.119112
  30 C :   -0.067059
  31 C :   -0.029264
  32 C :   -0.100683
  33 C :   -0.010962
  34 C :   -0.027516
  35 C :   -0.038050
  36 C :    0.022436
  37 C :   -0.111098
  38 C :   -0.027760
  39 C :   -0.035488
  40 C :   -0.113950
  41 C :   -0.093695
  42 C :    0.001058
  43 C :   -0.115332
  44 C :    0.025590
  45 C :   -0.013486
  46 C :   -0.026004
  47 C :    0.027988
  48 C :   -0.115888
  49 C :   -0.120541
  50 C :   -0.034965
  51 C :   -0.107988
  52 H :    0.043351
  53 H :    0.008204
  54 H :    0.056360
  55 H :    0.043000
  56 H :    0.041578
  57 H :    0.040427
  58 H :    0.040591
  59 H :   -0.001119
  60 H :    0.056870
  61 H :    0.062872
  62 H :    0.057389
  63 H :    0.028137
  64 H :   -0.005696
  65 H :    0.041005
  66 H :    0.029534
  67 H :    0.025827
  68 H :    0.030718
  69 H :    0.031048
  70 H :    0.003878
  71 H :    0.045187
  72 H :    0.021132
  73 H :    0.001612
  74 H :    0.036980
  75 H :    0.020109
  76 H :    0.019170
  77 H :    0.025322
  78 H :    0.025016
  79 H :    0.005693
  80 H :    0.036018
  81 H :    0.027744
  82 H :   -0.001329
  83 H :    0.044091
  84 H :    0.026373
  85 H :    0.023916
  86 H :    0.030272
  87 H :    0.029890
  88 H :   -0.005673
  89 H :    0.040063

  Mayer bond orders larger than 0.100000
B(  0-C ,  1-N ) :   1.2130 B(  0-C , 17-C ) :   1.5052 B(  0-C , 52-H ) :   0.9665
B(  1-N ,  8-C ) :   1.2130 B(  1-N , 10-C ) :   0.9227 B(  2-C , 12-C ) :   1.5839
B(  2-C , 16-C ) :   1.2689 B(  2-C , 53-H ) :   0.9794 B(  3-N , 14-C ) :   1.1737
B(  3-N , 16-C ) :   1.2020 B(  3-N , 61-H ) :   0.8950 B(  4-C ,  6-C ) :   1.3630
B(  4-C , 17-C ) :   1.3681 B(  4-C , 18-C ) :   1.0430 B(  5-N , 19-C ) :   1.3623
B(  5-N , 27-C ) :   1.4500 B(  6-C ,  8-C ) :   1.5073 B(  6-C , 54-H ) :   0.9707
B(  7-N , 30-C ) :   1.1834 B(  7-N , 38-C ) :   1.2163 B(  7-N , 62-H ) :   0.9016
B(  8-C , 55-H ) :   0.9674 B(  9-N , 41-C ) :   1.4362 B(  9-N , 49-C ) :   1.3917
B( 10-C , 56-H ) :   0.9768 B( 10-C , 57-H ) :   0.9807 B( 10-C , 58-H ) :   0.9814
B( 11-N , 20-C ) :   1.0946 B( 11-N , 24-C ) :   1.1343 B( 11-N , 25-C ) :   0.9629
B( 12-C , 14-C ) :   1.2695 B( 12-C , 59-H ) :   0.9767 B( 13-N , 31-C ) :   1.0802
B( 13-N , 35-C ) :   1.0696 B( 13-N , 36-C ) :   0.9836 B( 14-C , 18-C ) :   1.2667
B( 15-N , 42-C ) :   1.1267 B( 15-N , 46-C ) :   1.0875 B( 15-N , 47-C ) :   0.9668
B( 16-C , 51-C ) :   1.2519 B( 17-C , 60-H ) :   0.9706 B( 18-C , 19-C ) :   1.3160
B( 19-C , 21-C ) :   1.1592 B( 20-C , 28-C ) :   1.6301 B( 20-C , 63-H ) :   0.9710
B( 21-C , 26-C ) :   1.6855 B( 21-C , 64-H ) :   0.9716 B( 22-C , 23-C ) :   1.2534
B( 22-C , 28-C ) :   1.2795 B( 22-C , 29-C ) :   1.2585 B( 23-C , 24-C ) :   1.6365
B( 23-C , 65-H ) :   0.9723 B( 24-C , 66-H ) :   0.9691 B( 25-C , 67-H ) :   0.9762
B( 25-C , 68-H ) :   0.9834 B( 25-C , 69-H ) :   0.9819 B( 26-C , 27-C ) :   1.1693
B( 26-C , 70-H ) :   0.9759 B( 27-C , 29-C ) :   1.2442 B( 28-C , 71-H ) :   0.9709
B( 29-C , 30-C ) :   1.1728 B( 30-C , 32-C ) :   1.3532 B( 31-C , 39-C ) :   1.6878
B( 31-C , 72-H ) :   0.9709 B( 32-C , 37-C ) :   1.5070 B( 32-C , 73-H ) :   0.9771
B( 33-C , 34-C ) :   1.2302 B( 33-C , 39-C ) :   1.2225 B( 33-C , 40-C ) :   1.3643
B( 34-C , 35-C ) :   1.6864 B( 34-C , 74-H ) :   0.9710 B( 35-C , 75-H ) :   0.9709
B( 36-C , 76-H ) :   0.9754 B( 36-C , 77-H ) :   0.9826 B( 36-C , 78-H ) :   0.9838
B( 37-C , 38-C ) :   1.3463 B( 37-C , 79-H ) :   0.9794 B( 38-C , 40-C ) :   1.1768
B( 39-C , 80-H ) :   0.9721 B( 40-C , 41-C ) :   1.1656 B( 41-C , 43-C ) :   1.2589
B( 42-C , 50-C ) :   1.6428 B( 42-C , 81-H ) :   0.9696 B( 43-C , 48-C ) :   1.5922
B( 43-C , 82-H ) :   0.9757 B( 44-C , 45-C ) :   1.2814 B( 44-C , 50-C ) :   1.2477
B( 44-C , 51-C ) :   1.2463 B( 45-C , 46-C ) :   1.6332 B( 45-C , 83-H ) :   0.9702
B( 46-C , 84-H ) :   0.9710 B( 47-C , 85-H ) :   0.9759 B( 47-C , 86-H ) :   0.9825
B( 47-C , 87-H ) :   0.9830 B( 48-C , 49-C ) :   1.2529 B( 48-C , 88-H ) :   0.9725
B( 49-C , 51-C ) :   1.1874 B( 50-C , 89-H ) :   0.9723

MP2 TOTAL ENERGY:    -2130.868915323 Eh
FINAL SINGLE POINT ENERGY     -2130.868915322954

DIPOLE MOMENT
-------------
                                X             Y             Z
Electronic contribution:     -4.81182       5.57022      -0.06443
Nuclear contribution   :      0.05663       0.22498       0.09003
                        -----------------------------------------
Total Dipole Moment    :     -4.75520       5.79520       0.02560
                        -----------------------------------------
Magnitude (a.u.)       :      7.49646
Magnitude (Debye)      :     19.05448

Rotational constants in cm-1:     0.001498     0.001472     0.000763
Rotational constants in MHz :    44.913277    44.125564    22.868231

                             ****ORCA TERMINATED NORMALLY****
TOTAL RUN TIME: 0 days 1 hours 15 minutes 38 seconds 758 msec
