                         Program Version 5.0.4 -  RELEASE  -
|  1> ! PAL2
|  2> ! mp2 cc-pvdz TightSCF  NoKeepInts
|  3>
|  4> %scf
|  5>   MaxCore 2000
|  6> end
|  7> %mp2
|  8>   MaxCore 2000
|  9> end
| 10> * xyz 0 1
| 11>    C       -4.27200         5.62600         1.19500
| 12>    C        1.47400         4.04100         0.05700
| 13>    C       -2.80200         4.09300         0.04900
| 14>    C       -2.93500         4.89900        -1.09200
| 15>    C       -3.72200         6.03200        -1.05300
| 16>    C       -5.18500         7.62200         0.09800
| 17>    C        0.13200         4.30700         0.06100
| 18>    C       -0.56900         3.05600         0.04700
| 19>    C        1.64900         2.61800         0.02300
| 20>    C       -3.49200         4.48600         1.20600
| 21>    N       -4.38000         6.38000         0.07700
| 22>    N        0.38800         2.06700         0.02500
| 23>    N       -2.01000         0.39500        -0.07500
| 24>    N       -0.38800        -2.07400        -0.02700
| 25>    N        2.01000        -0.40100         0.06500
| 26>    C       -1.96000         2.86100         0.02400
| 27>    C       -2.62300         1.61500        -0.01800
| 28>    C       -5.57300        -4.32900         1.06600
| 29>    C       -4.07300         1.47100         0.05600
| 30>    C       -4.10600        -2.75600        -0.02600
| 31>    C       -4.99500        -2.75700        -1.11100
| 32>    C       -6.13200        -3.54200        -1.07600
| 33>    C       -7.65100        -5.11300         0.04000
| 34>    C       -4.32400         0.14100         0.03700
| 35>    C       -3.02500        -0.52000        -0.04800
| 36>    C       -4.42200        -3.56600         1.07500
| 37>    N       -6.40700        -4.31300         0.00100
| 38>    C       -2.86700        -1.92200        -0.04000
| 39>    C       -1.65000        -2.62400        -0.02700
| 40>    C        3.56800        -6.14200        -1.04000
| 41>    C       -1.47600        -4.04900        -0.03400
| 42>    C        2.80300        -4.09900        -0.00800
| 43>    C        3.65700        -4.38400         1.06900
| 44>    C        4.42700        -5.53000         1.05900
| 45>    C        5.24500        -7.58800         0.01400
| 46>    C       -0.13400        -4.31500        -0.02200
| 47>    C        0.56800        -3.06400        -0.02700
| 48>    C        2.77500        -5.01200        -1.07400
| 49>    N        4.37600        -6.39100         0.01700
| 50>    C        1.95900        -2.86900        -0.00900
| 51>    C        2.62100        -1.62200         0.00900
| 52>    C        5.54300         4.33900        -1.13000
| 53>    C        4.07000        -1.47900        -0.09400
| 54>    C        4.10400         2.75100        -0.02100
| 55>    C        5.02700         2.72900         1.03600
| 56>    C        6.16600         3.50900         0.97800
| 57>    C        7.61900         5.15300        -0.11500
| 58>    C        4.32100        -0.14800        -0.09200
| 59>    C        3.02500         0.51400         0.01500
| 60>    C        4.38700         3.58200        -1.11500
| 61>    C        2.86600         1.91600         0.01300
| 62>    N        6.41300         4.29600        -0.09500
| 63>    H       -4.83200         5.96000         2.06000
| 64>    H        2.27400         4.76600         0.08100
| 65>    H       -2.42000         4.65300        -2.01300
| 66>    H       -3.84800         6.68900        -1.90400
| 67>    H       -4.53400         8.46400         0.34200
| 68>    H       -5.63200         7.76600        -0.88500
| 69>    H       -5.96500         7.52100         0.85300
| 70>    H       -0.33200         5.28200         0.06900
| 71>    H       -3.44100         3.89800         2.11500
| 72>    H        0.18200         1.07200         0.00500
| 73>    H       -0.18300        -1.08000        -0.02100
| 74>    H       -5.86400        -4.96200         1.89500
| 75>    H       -4.79400         2.27200         0.13900
| 76>    H       -4.80000        -2.16000        -1.99400
| 77>    H       -6.84100        -3.58200        -1.89300
| 78>    H       -8.42800        -4.53600         0.54600
| 79>    H       -7.95600        -5.33700        -0.98100
| 80>    H       -7.45600        -6.03700         0.58400
| 81>    H       -5.28700        -0.34400         0.10000
| 82>    H       -3.78000        -3.60100         1.94700
| 83>    H        3.58700        -6.86800        -1.84300
| 84>    H       -2.27600        -4.77400        -0.05000
| 85>    H        3.71400        -3.72400         1.92600
| 86>    H        5.09200        -5.79500         1.87100
| 87>    H        6.20500        -7.32900        -0.43900
| 88>    H        5.39300        -7.91700         1.04200
| 89>    H        4.75900        -8.37300        -0.56400
| 90>    H        0.32900        -5.29000        -0.00800
| 91>    H        2.14600        -4.84200        -1.94000
| 92>    H        5.80800         4.98600        -1.95600
| 93>    H        4.78800        -2.28100        -0.18500
| 94>    H        4.86000         2.11400         1.91200
| 95>    H        6.90100         3.53100         1.77200
| 96>    H        7.38300         6.10900         0.35600
| 97>    H        8.41400         4.65200         0.43500
| 98>    H        7.92100         5.31000        -1.15000
| 99>    H        5.28300         0.33600        -0.17900
|100>    H        3.72000         3.63200        -1.96700
|101> *
|102>
|103>                          ****END OF INPUT****

CARTESIAN COORDINATES (ANGSTROEM)
---------------------------------
  C     -4.272000    5.626000    1.195000
  C      1.474000    4.041000    0.057000
  C     -2.802000    4.093000    0.049000
  C     -2.935000    4.899000   -1.092000
  C     -3.722000    6.032000   -1.053000
  C     -5.185000    7.622000    0.098000
  C      0.132000    4.307000    0.061000
  C     -0.569000    3.056000    0.047000
  C      1.649000    2.618000    0.023000
  C     -3.492000    4.486000    1.206000
  N     -4.380000    6.380000    0.077000
  N      0.388000    2.067000    0.025000
  N     -2.010000    0.395000   -0.075000
  N     -0.388000   -2.074000   -0.027000
  N      2.010000   -0.401000    0.065000
  C     -1.960000    2.861000    0.024000
  C     -2.623000    1.615000   -0.018000
  C     -5.573000   -4.329000    1.066000
  C     -4.073000    1.471000    0.056000
  C     -4.106000   -2.756000   -0.026000
  C     -4.995000   -2.757000   -1.111000
  C     -6.132000   -3.542000   -1.076000
  C     -7.651000   -5.113000    0.040000
  C     -4.324000    0.141000    0.037000
  C     -3.025000   -0.520000   -0.048000
  C     -4.422000   -3.566000    1.075000
  N     -6.407000   -4.313000    0.001000
  C     -2.867000   -1.922000   -0.040000
  C     -1.650000   -2.624000   -0.027000
  C      3.568000   -6.142000   -1.040000
  C     -1.476000   -4.049000   -0.034000
  C      2.803000   -4.099000   -0.008000
  C      3.657000   -4.384000    1.069000
  C      4.427000   -5.530000    1.059000
  C      5.245000   -7.588000    0.014000
  C     -0.134000   -4.315000   -0.022000
  C      0.568000   -3.064000   -0.027000
  C      2.775000   -5.012000   -1.074000
  N      4.376000   -6.391000    0.017000
  C      1.959000   -2.869000   -0.009000
  C      2.621000   -1.622000    0.009000
  C      5.543000    4.339000   -1.130000
  C      4.070000   -1.479000   -0.094000
  C      4.104000    2.751000   -0.021000
  C      5.027000    2.729000    1.036000
  C      6.166000    3.509000    0.978000
  C      7.619000    5.153000   -0.115000
  C      4.321000   -0.148000   -0.092000
  C      3.025000    0.514000    0.015000
  C      4.387000    3.582000   -1.115000
  C      2.866000    1.916000    0.013000
  N      6.413000    4.296000   -0.095000
  H     -4.832000    5.960000    2.060000
  H      2.274000    4.766000    0.081000
  H     -2.420000    4.653000   -2.013000
  H     -3.848000    6.689000   -1.904000
  H     -4.534000    8.464000    0.342000
  H     -5.632000    7.766000   -0.885000
  H     -5.965000    7.521000    0.853000
  H     -0.332000    5.282000    0.069000
  H     -3.441000    3.898000    2.115000
  H      0.182000    1.072000    0.005000
  H     -0.183000   -1.080000   -0.021000
  H     -5.864000   -4.962000    1.895000
  H     -4.794000    2.272000    0.139000
  H     -4.800000   -2.160000   -1.994000
  H     -6.841000   -3.582000   -1.893000
  H     -8.428000   -4.536000    0.546000
  H     -7.956000   -5.337000   -0.981000
  H     -7.456000   -6.037000    0.584000
  H     -5.287000   -0.344000    0.100000
  H     -3.780000   -3.601000    1.947000
  H      3.587000   -6.868000   -1.843000
  H     -2.276000   -4.774000   -0.050000
  H      3.714000   -3.724000    1.926000
  H      5.092000   -5.795000    1.871000
  H      6.205000   -7.329000   -0.439000
  H      5.393000   -7.917000    1.042000
  H      4.759000   -8.373000   -0.564000
  H      0.329000   -5.290000   -0.008000
  H      2.146000   -4.842000   -1.940000
  H      5.808000    4.986000   -1.956000
  H      4.788000   -2.281000   -0.185000
  H      4.860000    2.114000    1.912000
  H      6.901000    3.531000    1.772000
  H      7.383000    6.109000    0.356000
  H      8.414000    4.652000    0.435000
  H      7.921000    5.310000   -1.150000
  H      5.283000    0.336000   -0.179000
  H      3.720000    3.632000   -1.967000

 Total Charge           Charge          ....    0
 Multiplicity           Mult            ....    1
 Number of Electrons    NEL             ....  358
 Basis Dimension        Dim             ....  918

ORBITAL ENERGIES
----------------

  NO   OCC          E(Eh)            E(eV)
   0   2.0000     -15.682454      -426.7413
   1   2.0000     -15.635574      -425.4656
   2   2.0000     -15.623198      -425.1288
   3   2.0000     -15.596990      -424.4157
   4   2.0000     -15.518961      -422.2924
   5   2.0000     -15.509275      -422.0288
   6   2.0000     -15.448447      -420.3736
   7   2.0000     -15.432691      -419.9449
   8   2.0000     -11.329302      -308.2860
   9   2.0000     -11.328601      -308.2669
  10   2.0000     -11.328515      -308.2646
  11   2.0000     -11.300477      -307.5016
  12   2.0000     -11.294416      -307.3367
  13   2.0000     -11.292442      -307.2830
  14   2.0000     -11.288241      -307.1686
  15   2.0000     -11.283794      -307.0477
  16   2.0000     -11.281058      -306.9732
  17   2.0000     -11.277235      -306.8692
  18   2.0000     -11.276162      -306.8400
  19   2.0000     -11.263734      -306.5018
  20   2.0000     -11.263191      -306.4870
  21   2.0000     -11.260300      -306.4083
  22   2.0000     -11.257189      -306.3237
  23   2.0000     -11.238921      -305.8266
  24   2.0000     -11.231510      -305.6249
  25   2.0000     -11.230640      -305.6013
  26   2.0000     -11.227449      -305.5144
  27   2.0000     -11.222362      -305.3760
  28   2.0000     -11.222087      -305.3685
  29   2.0000     -11.204157      -304.8806
  30   2.0000     -11.203897      -304.8735
  31   2.0000     -11.203785      -304.8705
  32   2.0000     -11.203026      -304.8498
  33   2.0000     -11.202152      -304.8261
  34   2.0000     -11.186704      -304.4057
  35   2.0000     -11.186397      -304.3973
  36   2.0000     -11.185883      -304.3834
  37   2.0000     -11.185040      -304.3604
  38   2.0000     -11.184310      -304.3406
  39   2.0000     -11.168069      -303.8986
  40   2.0000     -11.167224      -303.8756
  41   2.0000     -11.162905      -303.7581
  42   2.0000     -11.160074      -303.6811
  43   2.0000     -11.159503      -303.6655
  44   2.0000     -11.154865      -303.5393
  45   2.0000     -11.154086      -303.5181
  46   2.0000     -11.153801      -303.5103
  47   2.0000     -11.148842      -303.3754
  48   2.0000     -11.146812      -303.3202
  49   2.0000     -11.140108      -303.1378
  50   2.0000     -11.125791      -302.7482
  51   2.0000     -11.122192      -302.6502
  52   2.0000      -1.361416       -37.0460
  53   2.0000      -1.322625       -35.9904
  54   2.0000      -1.311618       -35.6909
  55   2.0000      -1.289463       -35.0881
  56   2.0000      -1.219936       -33.1961
  57   2.0000      -1.205742       -32.8099
  58   2.0000      -1.170091       -31.8398
  59   2.0000      -1.144763       -31.1506
  60   2.0000      -1.142784       -31.0967
  61   2.0000      -1.110710       -30.2240
  62   2.0000      -1.101128       -29.9632
  63   2.0000      -1.082548       -29.4576
  64   2.0000      -1.081457       -29.4279
  65   2.0000      -1.046564       -28.4785
  66   2.0000      -1.039007       -28.2728
  67   2.0000      -1.036350       -28.2005
  68   2.0000      -1.015728       -27.6394
  69   2.0000      -1.013652       -27.5829
  70   2.0000      -1.005549       -27.3624
  71   2.0000      -0.988769       -26.9058
  72   2.0000      -0.985104       -26.8060
  73   2.0000      -0.977956       -26.6115
  74   2.0000      -0.968370       -26.3507
  75   2.0000      -0.959783       -26.1170
  76   2.0000      -0.951499       -25.8916
  77   2.0000      -0.944907       -25.7122
  78   2.0000      -0.926988       -25.2246
  79   2.0000      -0.918520       -24.9942
  80   2.0000      -0.909315       -24.7437
  81   2.0000      -0.888892       -24.1880
  82   2.0000      -0.875135       -23.8136
  83   2.0000      -0.870684       -23.6925
  84   2.0000      -0.863552       -23.4985
  85   2.0000      -0.851660       -23.1748
  86   2.0000      -0.842525       -22.9263
  87   2.0000      -0.831386       -22.6232
  88   2.0000      -0.822394       -22.3785
  89   2.0000      -0.796179       -21.6651
  90   2.0000      -0.791903       -21.5488
  91   2.0000      -0.752724       -20.4827
  92   2.0000      -0.734142       -19.9770
  93   2.0000      -0.727207       -19.7883
  94   2.0000      -0.721747       -19.6397
  95   2.0000      -0.716660       -19.5013
  96   2.0000      -0.714354       -19.4386
  97   2.0000      -0.707790       -19.2599
  98   2.0000      -0.699261       -19.0279
  99   2.0000      -0.695129       -18.9154
 100   2.0000      -0.694013       -18.8851
 101   2.0000      -0.686191       -18.6722
 102   2.0000      -0.681635       -18.5482
 103   2.0000      -0.677304       -18.4304
 104   2.0000      -0.672000       -18.2860
 105   2.0000      -0.669297       -18.2125
 106   2.0000      -0.666316       -18.1314
 107   2.0000      -0.655854       -17.8467
 108   2.0000      -0.653858       -17.7924
 109   2.0000      -0.650829       -17.7100
 110   2.0000      -0.646668       -17.5967
 111   2.0000      -0.646488       -17.5918
 112   2.0000      -0.645645       -17.5689
 113   2.0000      -0.639024       -17.3887
 114   2.0000      -0.634156       -17.2563
 115   2.0000      -0.627603       -17.0780
 116   2.0000      -0.622787       -16.9469
 117   2.0000      -0.615974       -16.7615
 118   2.0000      -0.613363       -16.6905
 119   2.0000      -0.612649       -16.6710
 120   2.0000      -0.609022       -16.5723
 121   2.0000      -0.604230       -16.4419
 122   2.0000      -0.594733       -16.1835
 123   2.0000      -0.588688       -16.0190
 124   2.0000      -0.584990       -15.9184
 125   2.0000      -0.582287       -15.8448
 126   2.0000      -0.575734       -15.6665
 127   2.0000      -0.573488       -15.6054
 128   2.0000      -0.571076       -15.5398
 129   2.0000      -0.559074       -15.2132
 130   2.0000      -0.555696       -15.1212
 131   2.0000      -0.547539       -14.8993
 132   2.0000      -0.545288       -14.8380
 133   2.0000      -0.538865       -14.6633
 134   2.0000      -0.534982       -14.5576
 135   2.0000      -0.531363       -14.4591
 136   2.0000      -0.520594       -14.1661
 137   2.0000      -0.518152       -14.0996
 138   2.0000      -0.514284       -13.9944
 139   2.0000      -0.512820       -13.9546
 140   2.0000      -0.510222       -13.8839
 141   2.0000      -0.507878       -13.8201
 142   2.0000      -0.502625       -13.6771
 143   2.0000      -0.500100       -13.6084
 144   2.0000      -0.496197       -13.5022
 145   2.0000      -0.494077       -13.4445
 146   2.0000      -0.493585       -13.4311
 147   2.0000      -0.483302       -13.1513
 148   2.0000      -0.481076       -13.0907
 149   2.0000      -0.464433       -12.6379
 150   2.0000      -0.463282       -12.6066
 151   2.0000      -0.456338       -12.4176
 152   2.0000      -0.450042       -12.2463
 153   2.0000      -0.442134       -12.0311
 154   2.0000      -0.438999       -11.9458
 155   2.0000      -0.437404       -11.9024
 156   2.0000      -0.426380       -11.6024
 157   2.0000      -0.419919       -11.4266
 158   2.0000      -0.403118       -10.9694
 159   2.0000      -0.387577       -10.5465
 160   2.0000      -0.382887       -10.4189
 161   2.0000      -0.372660       -10.1406
 162   2.0000      -0.359812        -9.7910
 163   2.0000      -0.357442        -9.7265
 164   2.0000      -0.348783        -9.4909
 165   2.0000      -0.339116        -9.2278
 166   2.0000      -0.337509        -9.1841
 167   2.0000      -0.331124        -9.0103
 168   2.0000      -0.318451        -8.6655
 169   2.0000      -0.299462        -8.1488
 170   2.0000      -0.298578        -8.1247
 171   2.0000      -0.285209        -7.7609
 172   2.0000      -0.281441        -7.6584
 173   2.0000      -0.262318        -7.1380
 174   2.0000      -0.236901        -6.4464
 175   2.0000      -0.185054        -5.0356
 176   2.0000      -0.174975        -4.7613
 177   2.0000      -0.062779        -1.7083
 178   2.0000      -0.051360        -1.3976
 179   0.0000       0.033904         0.9226
 180   0.0000       0.062195         1.6924
 181   0.0000       0.091279         2.4838
 182   0.0000       0.096748         2.6326
 183   0.0000       0.107253         2.9185

MULLIKEN ATOMIC CHARGES
-----------------------
   0 C :    0.225483
   1 N :   -0.425080
   2 C :   -0.066466
   3 N :   -0.341100
   4 C :   -0.072864
   5 N :   -0.565249
   6 C :   -0.035599
   7 N :   -0.336908
   8 C :    0.222923
   9 N :   -0.565470
  10 C :    0.107881
  11 N :   -0.438382
  12 C :   -0.061580
  13 N :   -0.447842
  14 C :    0.228096
  15 N :   -0.441208
  16 C :    0.249046
  17 C :   -0.040981
  18 C :   -0.191541
  19 C :    0.235928
  20 C :    0.195979
  21 C :   -0.072814
  22 C :   -0.087609
  23 C :   -0.061159
  24 C :    0.215258
  25 C :    0.114194
  26 C :   -0.068469
  27 C :    0.240294
  28 C :   -0.043379
  29 C :   -0.193968
  30 C :    0.225243
  31 C :    0.194072
  32 C :   -0.066183
  33 C :   -0.096777
  34 C :   -0.050780
  35 C :    0.186084
  36 C :    0.119034
  37 C :   -0.069468
  38 C :    0.241788
  39 C :   -0.063854
  40 C :   -0.200052
  41 C :    0.218299
  42 C :    0.209806
  43 C :   -0.075763
  44 C :   -0.090594
  45 C :   -0.042462
  46 C :    0.190417
  47 C :    0.116294
  48 C :   -0.079545
  49 C :    0.213868
  50 C :   -0.062783
  51 C :   -0.189164
  52 H :    0.072961
  53 H :   -0.009528
  54 H :    0.058950
  55 H :    0.070829
  56 H :    0.075613
  57 H :    0.069268
  58 H :    0.068160
  59 H :   -0.023903
  60 H :    0.059698
  61 H :    0.175834
  62 H :    0.169336
  63 H :    0.054835
  64 H :   -0.029137
  65 H :    0.043910
  66 H :    0.056769
  67 H :    0.060398
  68 H :    0.057283
  69 H :    0.059538
  70 H :   -0.017666
  71 H :    0.047882
  72 H :    0.042885
  73 H :   -0.018748
  74 H :    0.034351
  75 H :    0.041753
  76 H :    0.050688
  77 H :    0.049503
  78 H :    0.048749
  79 H :   -0.012447
  80 H :    0.034313
  81 H :    0.051421
  82 H :   -0.022742
  83 H :    0.043171
  84 H :    0.050771
  85 H :    0.055978
  86 H :    0.056510
  87 H :    0.055198
  88 H :   -0.027777
  89 H :    0.040499
Sum of atomic charges:   -0.0000000

LOEWDIN ATOMIC CHARGES
----------------------
   0 C :    0.024154
   1 N :    0.171442
   2 C :   -0.100318
   3 N :    0.174082
   4 C :    0.086611
   5 N :   -0.145189
   6 C :   -0.012385
   7 N :    0.177845
   8 C :    0.022367
   9 N :   -0.139016
  10 C :    0.036256
  11 N :    0.142557
  12 C :   -0.098393
  13 N :    0.121533
  14 C :   -0.057179
  15 N :    0.136238
  16 C :   -0.026015
  17 C :   -0.013971
  18 C :   -0.115359
  19 C :   -0.088759
  20 C :   -0.010593
  21 C :   -0.100553
  22 C :    0.039929
  23 C :   -0.028941
  24 C :    0.006632
  25 C :    0.029966
  26 C :   -0.096094
  27 C :   -0.067306
  28 C :   -0.016307
  29 C :   -0.116190
  30 C :   -0.059505
  31 C :   -0.018873
  32 C :   -0.102006
  33 C :    0.006952
  34 C :   -0.025018
  35 C :   -0.025916
  36 C :    0.024992
  37 C :   -0.107678
  38 C :   -0.033436
  39 C :   -0.031614
  40 C :   -0.112288
  41 C :   -0.092672
  42 C :   -0.000764
  43 C :   -0.110613
  44 C :    0.030110
  45 C :   -0.016481
  46 C :   -0.017536
  47 C :    0.028603
  48 C :   -0.111098
  49 C :   -0.108812
  50 C :   -0.030305
  51 C :   -0.108394
  52 H :    0.037950
  53 H :    0.006487
  54 H :    0.051479
  55 H :    0.037348
  56 H :    0.035021
  57 H :    0.036413
  58 H :    0.036665
  59 H :    0.000843
  60 H :    0.051648
  61 H :    0.062037
  62 H :    0.058579
  63 H :    0.029852
  64 H :   -0.003892
  65 H :    0.043391
  66 H :    0.030593
  67 H :    0.027422
  68 H :    0.031624
  69 H :    0.031581
  70 H :    0.001129
  71 H :    0.045795
  72 H :    0.024492
  73 H :    0.001986
  74 H :    0.039759
  75 H :    0.023639
  76 H :    0.022307
  77 H :    0.027511
  78 H :    0.027199
  79 H :    0.005161
  80 H :    0.039038
  81 H :    0.028322
  82 H :   -0.001312
  83 H :    0.044104
  84 H :    0.027617
  85 H :    0.025096
  86 H :    0.030455
  87 H :    0.030437
  88 H :   -0.003954
  89 H :    0.041485

  Mayer bond orders larger than 0.100000
B(  0-C ,  1-N ) :   1.1675 B(  0-C , 17-C ) :   1.5637 B(  0-C , 52-H ) :   0.9680
B(  1-N ,  8-C ) :   1.1639 B(  1-N , 10-C ) :   0.9396 B(  2-C , 12-C ) :   1.5613
B(  2-C , 16-C ) :   1.2944 B(  2-C , 53-H ) :   0.9788 B(  3-N , 14-C ) :   1.1836
B(  3-N , 16-C ) :   1.2022 B(  3-N , 61-H ) :   0.8963 B(  4-C ,  6-C ) :   1.3208
B(  4-C , 17-C ) :   1.3265 B(  4-C , 18-C ) :   1.1295 B(  5-N , 19-C ) :   1.3820
B(  5-N , 27-C ) :   1.4347 B(  6-C ,  8-C ) :   1.5687 B(  6-C , 54-H ) :   0.9712
B(  7-N , 30-C ) :   1.1882 B(  7-N , 38-C ) :   1.2108 B(  7-N , 62-H ) :   0.9004
B(  8-C , 55-H ) :   0.9687 B(  9-N , 41-C ) :   1.4270 B(  9-N , 49-C ) :   1.3992
B( 10-C , 56-H ) :   0.9764 B( 10-C , 57-H ) :   0.9811 B( 10-C , 58-H ) :   0.9824
B( 11-N , 20-C ) :   1.1094 B( 11-N , 24-C ) :   1.1336 B( 11-N , 25-C ) :   0.9595
B( 12-C , 14-C ) :   1.2945 B( 12-C , 59-H ) :   0.9771 B( 13-N , 31-C ) :   1.0945
B( 13-N , 35-C ) :   1.0860 B( 13-N , 36-C ) :   0.9752 B( 14-C , 18-C ) :   1.2370
B( 15-N , 42-C ) :   1.1235 B( 15-N , 46-C ) :   1.0983 B( 15-N , 47-C ) :   0.9646
B( 16-C , 51-C ) :   1.2260 B( 17-C , 60-H ) :   0.9711 B( 18-C , 19-C ) :   1.2790
B( 19-C , 21-C ) :   1.1784 B( 20-C , 28-C ) :   1.6242 B( 20-C , 63-H ) :   0.9706
B( 21-C , 26-C ) :   1.6692 B( 21-C , 64-H ) :   0.9723 B( 22-C , 23-C ) :   1.2676
B( 22-C , 28-C ) :   1.2802 B( 22-C , 29-C ) :   1.2459 B( 23-C , 24-C ) :   1.6263
B( 23-C , 65-H ) :   0.9717 B( 24-C , 66-H ) :   0.9689 B( 25-C , 67-H ) :   0.9763
B( 25-C , 68-H ) :   0.9832 B( 25-C , 69-H ) :   0.9819 B( 26-C , 27-C ) :   1.1846
B( 26-C , 70-H ) :   0.9748 B( 27-C , 29-C ) :   1.2391 B( 28-C , 71-H ) :   0.9710
B( 29-C , 30-C ) :   1.1850 B( 30-C , 32-C ) :   1.3405 B( 31-C , 39-C ) :   1.6672
B( 31-C , 72-H ) :   0.9706 B( 32-C , 37-C ) :   1.5183 B( 32-C , 73-H ) :   0.9772
B( 33-C , 34-C ) :   1.2459 B( 33-C , 39-C ) :   1.2388 B( 33-C , 40-C ) :   1.3218
B( 34-C , 35-C ) :   1.6652 B( 34-C , 74-H ) :   0.9709 B( 35-C , 75-H ) :   0.9705
B( 36-C , 76-H ) :   0.9758 B( 36-C , 77-H ) :   0.9824 B( 36-C , 78-H ) :   0.9836
B( 37-C , 38-C ) :   1.3376 B( 37-C , 79-H ) :   0.9788 B( 38-C , 40-C ) :   1.1861
B( 39-C , 80-H ) :   0.9720 B( 40-C , 41-C ) :   1.1860 B( 41-C , 43-C ) :   1.2403
B( 42-C , 50-C ) :   1.6385 B( 42-C , 81-H ) :   0.9696 B( 43-C , 48-C ) :   1.6109
B( 43-C , 82-H ) :   0.9751 B( 44-C , 45-C ) :   1.2784 B( 44-C , 50-C ) :   1.2556
B( 44-C , 51-C ) :   1.2499 B( 45-C , 46-C ) :   1.6320 B( 45-C , 83-H ) :   0.9705
B( 46-C , 84-H ) :   0.9706 B( 47-C , 85-H ) :   0.9760 B( 47-C , 86-H ) :   0.9826
B( 47-C , 87-H ) :   0.9828 B( 48-C , 49-C ) :   1.2362 B( 48-C , 88-H ) :   0.9730
B( 49-C , 51-C ) :   1.2033 B( 50-C , 89-H ) :   0.9719

MP2 TOTAL ENERGY:    -2130.892662121 Eh
FINAL SINGLE POINT ENERGY     -2130.892662120730

DIPOLE MOMENT
-------------
                                X             Y             Z
Electronic contribution:     -3.18469       3.04751      -0.08741
Nuclear contribution   :      0.06684       0.23377       0.10624
                        -----------------------------------------
Total Dipole Moment    :     -3.11786       3.28127       0.01882
                        -----------------------------------------
Magnitude (a.u.)       :      4.52638
Magnitude (Debye)      :     11.50515

Rotational constants in cm-1:     0.001498     0.001473     0.000763
Rotational constants in MHz :    44.913253    44.154301    22.860758

                             ****ORCA TERMINATED NORMALLY****
TOTAL RUN TIME: 0 days 1 hours 23 minutes 35 seconds 274 msec
