                         Program Version 5.0.4 -  RELEASE  -
|  1> ! PAL2
|  2> ! mp2 cc-pvdz TightSCF  NoKeepInts
|  3>
|  4> %scf
|  5>   MaxCore 2000
|  6> end
|  7> %mp2
|  8>   MaxCore 2000
|  9> end
| 10> * xyz 0 1
| 11>    C       -3.03500         6.49300         0.15400
| 12>    C        1.47400         4.04100         0.05700
| 13>    C       -2.80200         4.09300         0.04900
| 14>    C       -4.20200         4.01000         0.00600
| 15>    C       -4.96600         5.16000         0.03500
| 16>    C       -5.22700         7.59300         0.10300
| 17>    C        0.13200         4.30700         0.06100
| 18>    C       -0.56900         3.05600         0.04700
| 19>    C        1.64900         2.61800         0.02300
| 20>    C       -2.22800         5.37200         0.12100
| 21>    N       -4.38200         6.37800         0.11200
| 22>    N        0.38800         2.06700         0.02500
| 23>    N       -2.01000         0.39500        -0.07500
| 24>    N       -0.38800        -2.07400        -0.02700
| 25>    N        2.01000        -0.40100         0.06500
| 26>    C       -1.96000         2.86100         0.02400
| 27>    C       -2.62300         1.61500        -0.01800
| 28>    C       -5.57300        -4.32900         1.06600
| 29>    C       -4.07300         1.47100         0.05600
| 30>    C       -4.10600        -2.75600        -0.02600
| 31>    C       -4.99500        -2.75700        -1.11100
| 32>    C       -6.13200        -3.54200        -1.07600
| 33>    C       -7.65100        -5.11300         0.04000
| 34>    C       -4.32400         0.14100         0.03700
| 35>    C       -3.02500        -0.52000        -0.04800
| 36>    C       -4.42200        -3.56600         1.07500
| 37>    N       -6.40700        -4.31300         0.00100
| 38>    C       -2.86700        -1.92200        -0.04000
| 39>    C       -1.65000        -2.62400        -0.02700
| 40>    C        3.56800        -6.14200        -1.04000
| 41>    C       -1.47600        -4.04900        -0.03400
| 42>    C        2.80300        -4.09900        -0.00800
| 43>    C        3.65700        -4.38400         1.06900
| 44>    C        4.42700        -5.53000         1.05900
| 45>    C        5.24500        -7.58800         0.01400
| 46>    C       -0.13400        -4.31500        -0.02200
| 47>    C        0.56800        -3.06400        -0.02700
| 48>    C        2.77500        -5.01200        -1.07400
| 49>    N        4.37600        -6.39100         0.01700
| 50>    C        1.95900        -2.86900        -0.00900
| 51>    C        2.62100        -1.62200         0.00900
| 52>    C        5.54300         4.33900        -1.13000
| 53>    C        4.07000        -1.47900        -0.09400
| 54>    C        4.10400         2.75100        -0.02100
| 55>    C        5.02700         2.72900         1.03600
| 56>    C        6.16600         3.50900         0.97800
| 57>    C        7.61900         5.15300        -0.11500
| 58>    C        4.32100        -0.14800        -0.09200
| 59>    C        3.02500         0.51400         0.01500
| 60>    C        4.38700         3.58200        -1.11500
| 61>    C        2.86600         1.91600         0.01300
| 62>    N        6.41300         4.29600        -0.09500
| 63>    H       -2.63600         7.49800         0.22200
| 64>    H        2.27400         4.76600         0.08100
| 65>    H       -4.70400         3.05200        -0.06000
| 66>    H       -6.04800         5.14700        -0.00500
| 67>    H       -5.43600         7.87300        -0.93200
| 68>    H       -6.15700         7.37700         0.62800
| 69>    H       -4.69100         8.39600         0.60700
| 70>    H       -0.33200         5.28200         0.06900
| 71>    H       -1.15300         5.50100         0.17200
| 72>    H        0.18200         1.07200         0.00500
| 73>    H       -0.18300        -1.08000        -0.02100
| 74>    H       -5.86400        -4.96200         1.89500
| 75>    H       -4.79400         2.27200         0.13900
| 76>    H       -4.80000        -2.16000        -1.99400
| 77>    H       -6.84100        -3.58200        -1.89300
| 78>    H       -8.42800        -4.53600         0.54600
| 79>    H       -7.95600        -5.33700        -0.98100
| 80>    H       -7.45600        -6.03700         0.58400
| 81>    H       -5.28700        -0.34400         0.10000
| 82>    H       -3.78000        -3.60100         1.94700
| 83>    H        3.58700        -6.86800        -1.84300
| 84>    H       -2.27600        -4.77400        -0.05000
| 85>    H        3.71400        -3.72400         1.92600
| 86>    H        5.09200        -5.79500         1.87100
| 87>    H        6.20500        -7.32900        -0.43900
| 88>    H        5.39300        -7.91700         1.04200
| 89>    H        4.75900        -8.37300        -0.56400
| 90>    H        0.32900        -5.29000        -0.00800
| 91>    H        2.14600        -4.84200        -1.94000
| 92>    H        5.80800         4.98600        -1.95600
| 93>    H        4.78800        -2.28100        -0.18500
| 94>    H        4.86000         2.11400         1.91200
| 95>    H        6.90100         3.53100         1.77200
| 96>    H        7.38300         6.10900         0.35600
| 97>    H        8.41400         4.65200         0.43500
| 98>    H        7.92100         5.31000        -1.15000
| 99>    H        5.28300         0.33600        -0.17900
|100>    H        3.72000         3.63200        -1.96700
|101> *
|102>
|103>                          ****END OF INPUT****

CARTESIAN COORDINATES (ANGSTROEM)
---------------------------------
  C     -3.035000    6.493000    0.154000
  C      1.474000    4.041000    0.057000
  C     -2.802000    4.093000    0.049000
  C     -4.202000    4.010000    0.006000
  C     -4.966000    5.160000    0.035000
  C     -5.227000    7.593000    0.103000
  C      0.132000    4.307000    0.061000
  C     -0.569000    3.056000    0.047000
  C      1.649000    2.618000    0.023000
  C     -2.228000    5.372000    0.121000
  N     -4.382000    6.378000    0.112000
  N      0.388000    2.067000    0.025000
  N     -2.010000    0.395000   -0.075000
  N     -0.388000   -2.074000   -0.027000
  N      2.010000   -0.401000    0.065000
  C     -1.960000    2.861000    0.024000
  C     -2.623000    1.615000   -0.018000
  C     -5.573000   -4.329000    1.066000
  C     -4.073000    1.471000    0.056000
  C     -4.106000   -2.756000   -0.026000
  C     -4.995000   -2.757000   -1.111000
  C     -6.132000   -3.542000   -1.076000
  C     -7.651000   -5.113000    0.040000
  C     -4.324000    0.141000    0.037000
  C     -3.025000   -0.520000   -0.048000
  C     -4.422000   -3.566000    1.075000
  N     -6.407000   -4.313000    0.001000
  C     -2.867000   -1.922000   -0.040000
  C     -1.650000   -2.624000   -0.027000
  C      3.568000   -6.142000   -1.040000
  C     -1.476000   -4.049000   -0.034000
  C      2.803000   -4.099000   -0.008000
  C      3.657000   -4.384000    1.069000
  C      4.427000   -5.530000    1.059000
  C      5.245000   -7.588000    0.014000
  C     -0.134000   -4.315000   -0.022000
  C      0.568000   -3.064000   -0.027000
  C      2.775000   -5.012000   -1.074000
  N      4.376000   -6.391000    0.017000
  C      1.959000   -2.869000   -0.009000
  C      2.621000   -1.622000    0.009000
  C      5.543000    4.339000   -1.130000
  C      4.070000   -1.479000   -0.094000
  C      4.104000    2.751000   -0.021000
  C      5.027000    2.729000    1.036000
  C      6.166000    3.509000    0.978000
  C      7.619000    5.153000   -0.115000
  C      4.321000   -0.148000   -0.092000
  C      3.025000    0.514000    0.015000
  C      4.387000    3.582000   -1.115000
  C      2.866000    1.916000    0.013000
  N      6.413000    4.296000   -0.095000
  H     -2.636000    7.498000    0.222000
  H      2.274000    4.766000    0.081000
  H     -4.704000    3.052000   -0.060000
  H     -6.048000    5.147000   -0.005000
  H     -5.436000    7.873000   -0.932000
  H     -6.157000    7.377000    0.628000
  H     -4.691000    8.396000    0.607000
  H     -0.332000    5.282000    0.069000
  H     -1.153000    5.501000    0.172000
  H      0.182000    1.072000    0.005000
  H     -0.183000   -1.080000   -0.021000
  H     -5.864000   -4.962000    1.895000
  H     -4.794000    2.272000    0.139000
  H     -4.800000   -2.160000   -1.994000
  H     -6.841000   -3.582000   -1.893000
  H     -8.428000   -4.536000    0.546000
  H     -7.956000   -5.337000   -0.981000
  H     -7.456000   -6.037000    0.584000
  H     -5.287000   -0.344000    0.100000
  H     -3.780000   -3.601000    1.947000
  H      3.587000   -6.868000   -1.843000
  H     -2.276000   -4.774000   -0.050000
  H      3.714000   -3.724000    1.926000
  H      5.092000   -5.795000    1.871000
  H      6.205000   -7.329000   -0.439000
  H      5.393000   -7.917000    1.042000
  H      4.759000   -8.373000   -0.564000
  H      0.329000   -5.290000   -0.008000
  H      2.146000   -4.842000   -1.940000
  H      5.808000    4.986000   -1.956000
  H      4.788000   -2.281000   -0.185000
  H      4.860000    2.114000    1.912000
  H      6.901000    3.531000    1.772000
  H      7.383000    6.109000    0.356000
  H      8.414000    4.652000    0.435000
  H      7.921000    5.310000   -1.150000
  H      5.283000    0.336000   -0.179000
  H      3.720000    3.632000   -1.967000

 Total Charge           Charge          ....    0
 Multiplicity           Mult            ....    1
 Number of Electrons    NEL             ....  358
 Basis Dimension        Dim             ....  918

ORBITAL ENERGIES
----------------

  NO   OCC          E(Eh)            E(eV)
   0   2.0000     -15.680180      -426.6794
   1   2.0000     -15.633224      -425.4017
   2   2.0000     -15.632522      -425.3825
   3   2.0000     -15.587842      -424.1668
   4   2.0000     -15.524870      -422.4532
   5   2.0000     -15.515357      -422.1943
   6   2.0000     -15.453983      -420.5243
   7   2.0000     -15.439343      -420.1259
   8   2.0000     -11.329627      -308.2948
   9   2.0000     -11.328793      -308.2721
  10   2.0000     -11.328161      -308.2549
  11   2.0000     -11.298864      -307.4577
  12   2.0000     -11.298812      -307.4563
  13   2.0000     -11.292390      -307.2816
  14   2.0000     -11.291877      -307.2676
  15   2.0000     -11.287009      -307.1351
  16   2.0000     -11.285914      -307.1053
  17   2.0000     -11.282389      -307.0094
  18   2.0000     -11.269242      -306.6517
  19   2.0000     -11.263585      -306.4977
  20   2.0000     -11.262580      -306.4704
  21   2.0000     -11.250934      -306.1535
  22   2.0000     -11.247337      -306.0556
  23   2.0000     -11.237264      -305.7815
  24   2.0000     -11.237036      -305.7753
  25   2.0000     -11.230556      -305.5990
  26   2.0000     -11.230264      -305.5910
  27   2.0000     -11.230056      -305.5854
  28   2.0000     -11.229885      -305.5807
  29   2.0000     -11.210833      -305.0623
  30   2.0000     -11.209410      -305.0236
  31   2.0000     -11.193593      -304.5931
  32   2.0000     -11.192229      -304.5560
  33   2.0000     -11.191424      -304.5341
  34   2.0000     -11.188776      -304.4621
  35   2.0000     -11.187981      -304.4404
  36   2.0000     -11.187234      -304.4201
  37   2.0000     -11.174559      -304.0752
  38   2.0000     -11.171782      -303.9996
  39   2.0000     -11.171276      -303.9859
  40   2.0000     -11.170791      -303.9727
  41   2.0000     -11.168108      -303.8997
  42   2.0000     -11.165474      -303.8280
  43   2.0000     -11.162164      -303.7379
  44   2.0000     -11.160982      -303.7058
  45   2.0000     -11.157063      -303.5991
  46   2.0000     -11.156215      -303.5760
  47   2.0000     -11.150476      -303.4199
  48   2.0000     -11.147294      -303.3333
  49   2.0000     -11.135715      -303.0182
  50   2.0000     -11.129338      -302.8447
  51   2.0000     -11.117492      -302.5223
  52   2.0000      -1.360701       -37.0266
  53   2.0000      -1.320580       -35.9348
  54   2.0000      -1.320209       -35.9247
  55   2.0000      -1.279727       -34.8231
  56   2.0000      -1.225986       -33.3608
  57   2.0000      -1.210335       -32.9349
  58   2.0000      -1.173699       -31.9380
  59   2.0000      -1.150668       -31.3113
  60   2.0000      -1.143897       -31.1270
  61   2.0000      -1.110250       -30.2114
  62   2.0000      -1.108946       -30.1759
  63   2.0000      -1.082356       -29.4524
  64   2.0000      -1.077017       -29.3071
  65   2.0000      -1.044826       -28.4312
  66   2.0000      -1.044799       -28.4304
  67   2.0000      -1.041246       -28.3338
  68   2.0000      -1.014858       -27.6157
  69   2.0000      -1.014769       -27.6133
  70   2.0000      -1.009050       -27.4577
  71   2.0000      -0.993383       -27.0313
  72   2.0000      -0.985546       -26.8181
  73   2.0000      -0.981873       -26.7181
  74   2.0000      -0.974055       -26.5054
  75   2.0000      -0.962445       -26.1895
  76   2.0000      -0.955039       -25.9879
  77   2.0000      -0.946740       -25.7621
  78   2.0000      -0.939679       -25.5700
  79   2.0000      -0.916589       -24.9417
  80   2.0000      -0.910859       -24.7857
  81   2.0000      -0.898522       -24.4500
  82   2.0000      -0.877438       -23.8763
  83   2.0000      -0.871883       -23.7251
  84   2.0000      -0.871263       -23.7083
  85   2.0000      -0.861726       -23.4488
  86   2.0000      -0.845680       -23.0121
  87   2.0000      -0.838225       -22.8093
  88   2.0000      -0.829570       -22.5737
  89   2.0000      -0.796282       -21.6679
  90   2.0000      -0.789218       -21.4757
  91   2.0000      -0.775486       -21.1021
  92   2.0000      -0.753254       -20.4971
  93   2.0000      -0.734187       -19.9782
  94   2.0000      -0.728897       -19.8343
  95   2.0000      -0.726777       -19.7766
  96   2.0000      -0.720480       -19.6053
  97   2.0000      -0.718120       -19.5410
  98   2.0000      -0.714321       -19.4377
  99   2.0000      -0.700026       -19.0487
 100   2.0000      -0.698341       -19.0028
 101   2.0000      -0.694681       -18.9032
 102   2.0000      -0.685523       -18.6540
 103   2.0000      -0.684575       -18.6282
 104   2.0000      -0.678855       -18.4726
 105   2.0000      -0.674564       -18.3558
 106   2.0000      -0.673028       -18.3140
 107   2.0000      -0.660822       -17.9819
 108   2.0000      -0.658163       -17.9095
 109   2.0000      -0.652722       -17.7615
 110   2.0000      -0.652188       -17.7469
 111   2.0000      -0.646441       -17.5906
 112   2.0000      -0.645852       -17.5745
 113   2.0000      -0.638026       -17.3616
 114   2.0000      -0.635270       -17.2866
 115   2.0000      -0.628731       -17.1086
 116   2.0000      -0.623234       -16.9590
 117   2.0000      -0.620346       -16.8805
 118   2.0000      -0.612948       -16.6792
 119   2.0000      -0.612067       -16.6552
 120   2.0000      -0.611851       -16.6493
 121   2.0000      -0.611662       -16.6442
 122   2.0000      -0.601492       -16.3674
 123   2.0000      -0.589396       -16.0383
 124   2.0000      -0.581308       -15.8182
 125   2.0000      -0.581013       -15.8102
 126   2.0000      -0.580302       -15.7908
 127   2.0000      -0.571271       -15.5451
 128   2.0000      -0.566637       -15.4190
 129   2.0000      -0.560063       -15.2401
 130   2.0000      -0.555564       -15.1177
 131   2.0000      -0.547926       -14.9098
 132   2.0000      -0.542756       -14.7691
 133   2.0000      -0.540138       -14.6979
 134   2.0000      -0.538454       -14.6521
 135   2.0000      -0.536260       -14.5924
 136   2.0000      -0.531710       -14.4686
 137   2.0000      -0.517997       -14.0954
 138   2.0000      -0.516752       -14.0615
 139   2.0000      -0.514304       -13.9949
 140   2.0000      -0.512200       -13.9377
 141   2.0000      -0.509797       -13.8723
 142   2.0000      -0.507618       -13.8130
 143   2.0000      -0.505138       -13.7455
 144   2.0000      -0.502371       -13.6702
 145   2.0000      -0.495396       -13.4804
 146   2.0000      -0.488293       -13.2871
 147   2.0000      -0.480950       -13.0873
 148   2.0000      -0.476441       -12.9646
 149   2.0000      -0.467937       -12.7332
 150   2.0000      -0.466186       -12.6856
 151   2.0000      -0.456419       -12.4198
 152   2.0000      -0.451632       -12.2895
 153   2.0000      -0.445179       -12.1139
 154   2.0000      -0.437816       -11.9136
 155   2.0000      -0.427658       -11.6372
 156   2.0000      -0.409270       -11.1368
 157   2.0000      -0.390958       -10.6385
 158   2.0000      -0.388076       -10.5601
 159   2.0000      -0.384882       -10.4732
 160   2.0000      -0.378497       -10.2994
 161   2.0000      -0.373011       -10.1501
 162   2.0000      -0.358221        -9.7477
 163   2.0000      -0.356520        -9.7014
 164   2.0000      -0.355917        -9.6850
 165   2.0000      -0.342000        -9.3063
 166   2.0000      -0.337558        -9.1854
 167   2.0000      -0.324693        -8.8353
 168   2.0000      -0.320969        -8.7340
 169   2.0000      -0.305209        -8.3051
 170   2.0000      -0.299329        -8.1452
 171   2.0000      -0.285937        -7.7807
 172   2.0000      -0.278102        -7.5675
 173   2.0000      -0.263607        -7.1731
 174   2.0000      -0.242021        -6.5857
 175   2.0000      -0.189955        -5.1689
 176   2.0000      -0.181423        -4.9368
 177   2.0000      -0.080232        -2.1832
 178   2.0000      -0.059826        -1.6279
 179   0.0000       0.028446         0.7741
 180   0.0000       0.065335         1.7778
 181   0.0000       0.090161         2.4534
 182   0.0000       0.106027         2.8851
 183   0.0000       0.117123         3.1871

MULLIKEN ATOMIC CHARGES
-----------------------
   0 C :    0.230889
   1 N :   -0.455216
   2 C :   -0.066794
   3 N :   -0.341002
   4 C :   -0.121870
   5 N :   -0.569233
   6 C :   -0.095800
   7 N :   -0.341152
   8 C :    0.219397
   9 N :   -0.562278
  10 C :    0.119971
  11 N :   -0.438607
  12 C :   -0.056856
  13 N :   -0.429254
  14 C :    0.210963
  15 N :   -0.440752
  16 C :    0.235274
  17 C :   -0.109987
  18 C :   -0.169964
  19 C :    0.205809
  20 C :    0.213524
  21 C :   -0.044729
  22 C :   -0.090410
  23 C :   -0.039629
  24 C :    0.192941
  25 C :    0.114696
  26 C :   -0.088564
  27 C :    0.218432
  28 C :   -0.061919
  29 C :   -0.184064
  30 C :    0.245996
  31 C :    0.230221
  32 C :   -0.061527
  33 C :   -0.059751
  34 C :   -0.051533
  35 C :    0.229245
  36 C :    0.108146
  37 C :   -0.064474
  38 C :    0.230800
  39 C :   -0.057336
  40 C :   -0.181846
  41 C :    0.226390
  42 C :    0.197436
  43 C :   -0.072672
  44 C :   -0.089399
  45 C :   -0.061794
  46 C :    0.212268
  47 C :    0.115259
  48 C :   -0.066277
  49 C :    0.237749
  50 C :   -0.045865
  51 C :   -0.192828
  52 H :    0.032232
  53 H :   -0.018925
  54 H :    0.051401
  55 H :    0.031464
  56 H :    0.049230
  57 H :    0.047799
  58 H :    0.046008
  59 H :   -0.021008
  60 H :    0.063408
  61 H :    0.170894
  62 H :    0.175430
  63 H :    0.055025
  64 H :   -0.041174
  65 H :    0.046543
  66 H :    0.055230
  67 H :    0.062212
  68 H :    0.057013
  69 H :    0.056163
  70 H :   -0.030434
  71 H :    0.044576
  72 H :    0.071577
  73 H :   -0.007926
  74 H :    0.060647
  75 H :    0.071069
  76 H :    0.075196
  77 H :    0.068195
  78 H :    0.067529
  79 H :   -0.016875
  80 H :    0.061628
  81 H :    0.054699
  82 H :   -0.024910
  83 H :    0.042142
  84 H :    0.054500
  85 H :    0.061110
  86 H :    0.055712
  87 H :    0.057468
  88 H :   -0.014348
  89 H :    0.047475
Sum of atomic charges:   -0.0000000

LOEWDIN ATOMIC CHARGES
----------------------
   0 C :   -0.016595
   1 N :    0.122798
   2 C :   -0.099654
   3 N :    0.182257
   4 C :   -0.010555
   5 N :   -0.134785
   6 C :   -0.013383
   7 N :    0.174905
   8 C :   -0.022529
   9 N :   -0.140602
  10 C :    0.022962
  11 N :    0.141458
  12 C :   -0.092092
  13 N :    0.166698
  14 C :   -0.014568
  15 N :    0.139272
  16 C :   -0.061551
  17 C :   -0.024438
  18 C :   -0.115790
  19 C :   -0.072386
  20 C :    0.004529
  21 C :   -0.095180
  22 C :    0.036813
  23 C :   -0.014688
  24 C :   -0.013373
  25 C :    0.029702
  26 C :   -0.107752
  27 C :   -0.117209
  28 C :   -0.027830
  29 C :   -0.099467
  30 C :   -0.029630
  31 C :    0.024465
  32 C :   -0.094380
  33 C :    0.082898
  34 C :   -0.015294
  35 C :    0.023954
  36 C :    0.035341
  37 C :   -0.094098
  38 C :   -0.052742
  39 C :   -0.017295
  40 C :   -0.109124
  41 C :   -0.090581
  42 C :   -0.010354
  43 C :   -0.099292
  44 C :    0.034389
  45 C :   -0.028352
  46 C :    0.002677
  47 C :    0.029612
  48 C :   -0.094345
  49 C :   -0.069460
  50 C :   -0.018269
  51 C :   -0.107867
  52 H :    0.021927
  53 H :    0.002339
  54 H :   -0.022507
  55 H :    0.021542
  56 H :    0.021922
  57 H :    0.026328
  58 H :    0.026307
  59 H :    0.001395
  60 H :   -0.013924
  61 H :    0.060313
  62 H :    0.061878
  63 H :    0.030623
  64 H :   -0.000810
  65 H :    0.045677
  66 H :    0.029045
  67 H :    0.028109
  68 H :    0.031525
  69 H :    0.030201
  70 H :   -0.004897
  71 H :    0.043386
  72 H :    0.037825
  73 H :    0.007182
  74 H :    0.050771
  75 H :    0.037564
  76 H :    0.034950
  77 H :    0.036280
  78 H :    0.035977
  79 H :    0.002835
  80 H :    0.050910
  81 H :    0.029216
  82 H :   -0.002760
  83 H :    0.042571
  84 H :    0.030044
  85 H :    0.027509
  86 H :    0.030261
  87 H :    0.031522
  88 H :    0.002465
  89 H :    0.045279

  Mayer bond orders larger than 0.100000
B(  0-C ,  1-N ) :   1.1041 B(  0-C , 17-C ) :   1.7290 B(  0-C , 52-H ) :   0.9590
B(  1-N ,  8-C ) :   1.0916 B(  1-N , 10-C ) :   0.9772 B(  2-C , 12-C ) :   1.4840
B(  2-C , 16-C ) :   1.3798 B(  2-C , 53-H ) :   0.9705 B(  3-N , 14-C ) :   1.2270
B(  3-N , 16-C ) :   1.1772 B(  3-N , 61-H ) :   0.8972 B(  4-C ,  6-C ) :   1.2296
B(  4-C , 17-C ) :   1.2289 B(  4-C , 18-C ) :   1.4882 B(  5-N , 19-C ) :   1.4625
B(  5-N , 27-C ) :   1.3677 B(  6-C ,  8-C ) :   1.7340 B(  6-C , 54-H ) :   0.8344
B(  7-N , 30-C ) :   1.1952 B(  7-N , 38-C ) :   1.1893 B(  7-N , 62-H ) :   0.8968
B(  8-C , 55-H ) :   0.9587 B(  9-N , 41-C ) :   1.3954 B(  9-N , 49-C ) :   1.4240
B( 10-C , 56-H ) :   0.9777 B( 10-C , 57-H ) :   0.9826 B( 10-C , 58-H ) :   0.9835
B( 11-N , 20-C ) :   1.1307 B( 11-N , 24-C ) :   1.1060 B( 11-N , 25-C ) :   0.9605
B( 12-C , 14-C ) :   1.3634 B( 12-C , 59-H ) :   0.9042 B( 13-N , 31-C ) :   1.1617
B( 13-N , 35-C ) :   1.1615 B( 13-N , 36-C ) :   0.9410 B( 14-C , 18-C ) :   1.1159
B( 15-N , 42-C ) :   1.1080 B( 15-N , 46-C ) :   1.1256 B( 15-N , 47-C ) :   0.9609
B( 16-C , 51-C ) :   1.1682 B( 17-C , 60-H ) :   0.8618 B( 18-C , 19-C ) :   1.1130
B( 19-C , 21-C ) :   1.2564 B( 20-C , 28-C ) :   1.6294 B( 20-C , 63-H ) :   0.9703
B( 21-C , 26-C ) :   1.5743 B( 21-C , 64-H ) :   0.8811 B( 22-C , 23-C ) :   1.2890
B( 22-C , 28-C ) :   1.2631 B( 22-C , 29-C ) :   1.2286 B( 23-C , 24-C ) :   1.6207
B( 23-C , 65-H ) :   0.9703 B( 24-C , 66-H ) :   0.9696 B( 25-C , 67-H ) :   0.9760
B( 25-C , 68-H ) :   0.9828 B( 25-C , 69-H ) :   0.9824 B( 26-C , 27-C ) :   1.2691
B( 26-C , 70-H ) :   0.9650 B( 27-C , 29-C ) :   1.2041 B( 28-C , 71-H ) :   0.9720
B( 29-C , 30-C ) :   1.2474 B( 30-C , 32-C ) :   1.2785 B( 31-C , 39-C ) :   1.5870
B( 31-C , 72-H ) :   0.9681 B( 32-C , 37-C ) :   1.5802 B( 32-C , 73-H ) :   0.9786
B( 33-C , 34-C ) :   1.3070 B( 33-C , 39-C ) :   1.3050 B( 33-C , 40-C ) :   1.1755
B( 34-C , 35-C ) :   1.5849 B( 34-C , 74-H ) :   0.9696 B( 35-C , 75-H ) :   0.9681
B( 36-C , 76-H ) :   0.9768 B( 36-C , 77-H ) :   0.9816 B( 36-C , 78-H ) :   0.9823
B( 37-C , 38-C ) :   1.2848 B( 37-C , 79-H ) :   0.9764 B( 38-C , 40-C ) :   1.2343
B( 39-C , 80-H ) :   0.9705 B( 40-C , 41-C ) :   1.2504 B( 41-C , 43-C ) :   1.1837
B( 42-C , 50-C ) :   1.6322 B( 42-C , 81-H ) :   0.9696 B( 43-C , 48-C ) :   1.6695
B( 43-C , 82-H ) :   0.9721 B( 44-C , 45-C ) :   1.2637 B( 44-C , 50-C ) :   1.2733
B( 44-C , 51-C ) :   1.2588 B( 45-C , 46-C ) :   1.6337 B( 45-C , 83-H ) :   0.9718
B( 46-C , 84-H ) :   0.9700 B( 47-C , 85-H ) :   0.9762 B( 47-C , 86-H ) :   0.9829
B( 47-C , 87-H ) :   0.9824 B( 48-C , 49-C ) :   1.1870 B( 48-C , 88-H ) :   0.9748
B( 49-C , 51-C ) :   1.2475 B( 50-C , 89-H ) :   0.9708 B( 54-H , 64-H ) :   0.1467
B( 59-H , 60-H ) :   0.1084

MP2 TOTAL ENERGY:    -2130.736298545 Eh
FINAL SINGLE POINT ENERGY     -2130.736298544632

DIPOLE MOMENT
-------------
                                X             Y             Z
Electronic contribution:      2.93787      -4.28060      -0.07784
Nuclear contribution   :     -0.03429       0.16388       0.09625
                        -----------------------------------------
Total Dipole Moment    :      2.90358      -4.11672       0.01841
                        -----------------------------------------
Magnitude (a.u.)       :      5.03770
Magnitude (Debye)      :     12.80483

Rotational constants in cm-1:     0.001504     0.001478     0.000760
Rotational constants in MHz :    45.075599    44.299797    22.780415

                             ****ORCA TERMINATED NORMALLY****
TOTAL RUN TIME: 0 days 0 hours 58 minutes 35 seconds 226 msec
