                         Program Version 5.0.4 -  RELEASE  -
|  1> ! PAL2
|  2> ! mp2 cc-pvdz TightSCF  NoKeepInts
|  3>
|  4> %scf
|  5>   MaxCore 2000
|  6> end
|  7> %mp2
|  8>   MaxCore 2000
|  9> end
| 10> * xyz 0 1
| 11>    C       -3.03800         6.49000         0.20200
| 12>    C        1.47400         4.04100         0.05700
| 13>    C       -2.80200         4.09300         0.04900
| 14>    C       -4.20000         4.01300        -0.04400
| 15>    C       -4.96400         5.16200        -0.01400
| 16>    C       -5.22600         7.59300         0.10100
| 17>    C        0.13200         4.30700         0.06100
| 18>    C       -0.56900         3.05600         0.04700
| 19>    C        1.64900         2.61800         0.02300
| 20>    C       -2.23100         5.36900         0.17100
| 21>    N       -4.38200         6.37800         0.11100
| 22>    N        0.38800         2.06700         0.02500
| 23>    N       -2.01000         0.39500        -0.07500
| 24>    N       -0.38800        -2.07400        -0.02700
| 25>    N        2.01000        -0.40100         0.06500
| 26>    C       -1.96000         2.86100         0.02400
| 27>    C       -2.62300         1.61500        -0.01800
| 28>    C       -5.57300        -4.32900         1.06600
| 29>    C       -4.07300         1.47100         0.05600
| 30>    C       -4.10600        -2.75600        -0.02600
| 31>    C       -4.99500        -2.75700        -1.11100
| 32>    C       -6.13200        -3.54200        -1.07600
| 33>    C       -7.65100        -5.11300         0.04000
| 34>    C       -4.32400         0.14100         0.03700
| 35>    C       -3.02500        -0.52000        -0.04800
| 36>    C       -4.42200        -3.56600         1.07500
| 37>    N       -6.40700        -4.31300         0.00100
| 38>    C       -2.86700        -1.92200        -0.04000
| 39>    C       -1.65000        -2.62400        -0.02700
| 40>    C        3.56800        -6.14200        -1.04000
| 41>    C       -1.47600        -4.04900        -0.03400
| 42>    C        2.80300        -4.09900        -0.00800
| 43>    C        3.65700        -4.38400         1.06900
| 44>    C        4.42700        -5.53000         1.05900
| 45>    C        5.24500        -7.58800         0.01400
| 46>    C       -0.13400        -4.31500        -0.02200
| 47>    C        0.56800        -3.06400        -0.02700
| 48>    C        2.77500        -5.01200        -1.07400
| 49>    N        4.37600        -6.39100         0.01700
| 50>    C        1.95900        -2.86900        -0.00900
| 51>    C        2.62100        -1.62200         0.00900
| 52>    C        5.54300         4.33900        -1.13000
| 53>    C        4.07000        -1.47900        -0.09400
| 54>    C        4.10400         2.75100        -0.02100
| 55>    C        5.02700         2.72900         1.03600
| 56>    C        6.16600         3.50900         0.97800
| 57>    C        7.61900         5.15300        -0.11500
| 58>    C        4.32100        -0.14800        -0.09200
| 59>    C        3.02500         0.51400         0.01500
| 60>    C        4.38700         3.58200        -1.11500
| 61>    C        2.86600         1.91600         0.01300
| 62>    N        6.41300         4.29600        -0.09500
| 63>    H       -2.64100         7.49200         0.30800
| 64>    H        2.27400         4.76600         0.08100
| 65>    H       -4.69900         3.05700        -0.15000
| 66>    H       -6.04400         5.15100        -0.09200
| 67>    H       -5.39900         7.89800        -0.93300
| 68>    H       -6.17400         7.36600         0.58900
| 69>    H       -4.70800         8.38400         0.64300
| 70>    H       -0.33200         5.28200         0.06900
| 71>    H       -1.15800         5.49600         0.26200
| 72>    H        0.18200         1.07200         0.00500
| 73>    H       -0.18300        -1.08000        -0.02100
| 74>    H       -5.86400        -4.96200         1.89500
| 75>    H       -4.79400         2.27200         0.13900
| 76>    H       -4.80000        -2.16000        -1.99400
| 77>    H       -6.84100        -3.58200        -1.89300
| 78>    H       -8.42800        -4.53600         0.54600
| 79>    H       -7.95600        -5.33700        -0.98100
| 80>    H       -7.45600        -6.03700         0.58400
| 81>    H       -5.28700        -0.34400         0.10000
| 82>    H       -3.78000        -3.60100         1.94700
| 83>    H        3.58700        -6.86800        -1.84300
| 84>    H       -2.27600        -4.77400        -0.05000
| 85>    H        3.71400        -3.72400         1.92600
| 86>    H        5.09200        -5.79500         1.87100
| 87>    H        6.20500        -7.32900        -0.43900
| 88>    H        5.39300        -7.91700         1.04200
| 89>    H        4.75900        -8.37300        -0.56400
| 90>    H        0.32900        -5.29000        -0.00800
| 91>    H        2.14600        -4.84200        -1.94000
| 92>    H        5.80800         4.98600        -1.95600
| 93>    H        4.78800        -2.28100        -0.18500
| 94>    H        4.86000         2.11400         1.91200
| 95>    H        6.90100         3.53100         1.77200
| 96>    H        7.38300         6.10900         0.35600
| 97>    H        8.41400         4.65200         0.43500
| 98>    H        7.92100         5.31000        -1.15000
| 99>    H        5.28300         0.33600        -0.17900
|100>    H        3.72000         3.63200        -1.96700
|101> *
|102>
|103>                          ****END OF INPUT****

CARTESIAN COORDINATES (ANGSTROEM)
---------------------------------
  C     -3.038000    6.490000    0.202000
  C      1.474000    4.041000    0.057000
  C     -2.802000    4.093000    0.049000
  C     -4.200000    4.013000   -0.044000
  C     -4.964000    5.162000   -0.014000
  C     -5.226000    7.593000    0.101000
  C      0.132000    4.307000    0.061000
  C     -0.569000    3.056000    0.047000
  C      1.649000    2.618000    0.023000
  C     -2.231000    5.369000    0.171000
  N     -4.382000    6.378000    0.111000
  N      0.388000    2.067000    0.025000
  N     -2.010000    0.395000   -0.075000
  N     -0.388000   -2.074000   -0.027000
  N      2.010000   -0.401000    0.065000
  C     -1.960000    2.861000    0.024000
  C     -2.623000    1.615000   -0.018000
  C     -5.573000   -4.329000    1.066000
  C     -4.073000    1.471000    0.056000
  C     -4.106000   -2.756000   -0.026000
  C     -4.995000   -2.757000   -1.111000
  C     -6.132000   -3.542000   -1.076000
  C     -7.651000   -5.113000    0.040000
  C     -4.324000    0.141000    0.037000
  C     -3.025000   -0.520000   -0.048000
  C     -4.422000   -3.566000    1.075000
  N     -6.407000   -4.313000    0.001000
  C     -2.867000   -1.922000   -0.040000
  C     -1.650000   -2.624000   -0.027000
  C      3.568000   -6.142000   -1.040000
  C     -1.476000   -4.049000   -0.034000
  C      2.803000   -4.099000   -0.008000
  C      3.657000   -4.384000    1.069000
  C      4.427000   -5.530000    1.059000
  C      5.245000   -7.588000    0.014000
  C     -0.134000   -4.315000   -0.022000
  C      0.568000   -3.064000   -0.027000
  C      2.775000   -5.012000   -1.074000
  N      4.376000   -6.391000    0.017000
  C      1.959000   -2.869000   -0.009000
  C      2.621000   -1.622000    0.009000
  C      5.543000    4.339000   -1.130000
  C      4.070000   -1.479000   -0.094000
  C      4.104000    2.751000   -0.021000
  C      5.027000    2.729000    1.036000
  C      6.166000    3.509000    0.978000
  C      7.619000    5.153000   -0.115000
  C      4.321000   -0.148000   -0.092000
  C      3.025000    0.514000    0.015000
  C      4.387000    3.582000   -1.115000
  C      2.866000    1.916000    0.013000
  N      6.413000    4.296000   -0.095000
  H     -2.641000    7.492000    0.308000
  H      2.274000    4.766000    0.081000
  H     -4.699000    3.057000   -0.150000
  H     -6.044000    5.151000   -0.092000
  H     -5.399000    7.898000   -0.933000
  H     -6.174000    7.366000    0.589000
  H     -4.708000    8.384000    0.643000
  H     -0.332000    5.282000    0.069000
  H     -1.158000    5.496000    0.262000
  H      0.182000    1.072000    0.005000
  H     -0.183000   -1.080000   -0.021000
  H     -5.864000   -4.962000    1.895000
  H     -4.794000    2.272000    0.139000
  H     -4.800000   -2.160000   -1.994000
  H     -6.841000   -3.582000   -1.893000
  H     -8.428000   -4.536000    0.546000
  H     -7.956000   -5.337000   -0.981000
  H     -7.456000   -6.037000    0.584000
  H     -5.287000   -0.344000    0.100000
  H     -3.780000   -3.601000    1.947000
  H      3.587000   -6.868000   -1.843000
  H     -2.276000   -4.774000   -0.050000
  H      3.714000   -3.724000    1.926000
  H      5.092000   -5.795000    1.871000
  H      6.205000   -7.329000   -0.439000
  H      5.393000   -7.917000    1.042000
  H      4.759000   -8.373000   -0.564000
  H      0.329000   -5.290000   -0.008000
  H      2.146000   -4.842000   -1.940000
  H      5.808000    4.986000   -1.956000
  H      4.788000   -2.281000   -0.185000
  H      4.860000    2.114000    1.912000
  H      6.901000    3.531000    1.772000
  H      7.383000    6.109000    0.356000
  H      8.414000    4.652000    0.435000
  H      7.921000    5.310000   -1.150000
  H      5.283000    0.336000   -0.179000
  H      3.720000    3.632000   -1.967000

 Total Charge           Charge          ....    0
 Multiplicity           Mult            ....    1
 Number of Electrons    NEL             ....  358
 Basis Dimension        Dim             ....  918

ORBITAL ENERGIES
----------------

  NO   OCC          E(Eh)            E(eV)
   0   2.0000     -15.680486      -426.6877
   1   2.0000     -15.633595      -425.4117
   2   2.0000     -15.632368      -425.3784
   3   2.0000     -15.587550      -424.1588
   4   2.0000     -15.525026      -422.4574
   5   2.0000     -15.515369      -422.1946
   6   2.0000     -15.454013      -420.5251
   7   2.0000     -15.439480      -420.1296
   8   2.0000     -11.329918      -308.3027
   9   2.0000     -11.329018      -308.2782
  10   2.0000     -11.328355      -308.2602
  11   2.0000     -11.299088      -307.4638
  12   2.0000     -11.298709      -307.4535
  13   2.0000     -11.292707      -307.2902
  14   2.0000     -11.291751      -307.2642
  15   2.0000     -11.286881      -307.1316
  16   2.0000     -11.286233      -307.1140
  17   2.0000     -11.282684      -307.0175
  18   2.0000     -11.269110      -306.6481
  19   2.0000     -11.263822      -306.5042
  20   2.0000     -11.262818      -306.4769
  21   2.0000     -11.250803      -306.1499
  22   2.0000     -11.247188      -306.0515
  23   2.0000     -11.237396      -305.7851
  24   2.0000     -11.237124      -305.7777
  25   2.0000     -11.230824      -305.6063
  26   2.0000     -11.230154      -305.5880
  27   2.0000     -11.230141      -305.5877
  28   2.0000     -11.229907      -305.5813
  29   2.0000     -11.211048      -305.0681
  30   2.0000     -11.209659      -305.0303
  31   2.0000     -11.193234      -304.5834
  32   2.0000     -11.191982      -304.5493
  33   2.0000     -11.191653      -304.5404
  34   2.0000     -11.188802      -304.4628
  35   2.0000     -11.188020      -304.4415
  36   2.0000     -11.187299      -304.4219
  37   2.0000     -11.174826      -304.0825
  38   2.0000     -11.171963      -304.0046
  39   2.0000     -11.171071      -303.9803
  40   2.0000     -11.171071      -303.9803
  41   2.0000     -11.168353      -303.9063
  42   2.0000     -11.166458      -303.8548
  43   2.0000     -11.162253      -303.7403
  44   2.0000     -11.160837      -303.7018
  45   2.0000     -11.157047      -303.5987
  46   2.0000     -11.156316      -303.5788
  47   2.0000     -11.150772      -303.4279
  48   2.0000     -11.147027      -303.3260
  49   2.0000     -11.135456      -303.0112
  50   2.0000     -11.129302      -302.8437
  51   2.0000     -11.117128      -302.5124
  52   2.0000      -1.360965       -37.0337
  53   2.0000      -1.320896       -35.9434
  54   2.0000      -1.320076       -35.9211
  55   2.0000      -1.279682       -34.8219
  56   2.0000      -1.226180       -33.3661
  57   2.0000      -1.210290       -32.9337
  58   2.0000      -1.173747       -31.9393
  59   2.0000      -1.150696       -31.3120
  60   2.0000      -1.144127       -31.1333
  61   2.0000      -1.110294       -30.2126
  62   2.0000      -1.109047       -30.1787
  63   2.0000      -1.082606       -29.4592
  64   2.0000      -1.076836       -29.3022
  65   2.0000      -1.045102       -28.4387
  66   2.0000      -1.044691       -28.4275
  67   2.0000      -1.041438       -28.3390
  68   2.0000      -1.014961       -27.6185
  69   2.0000      -1.014264       -27.5995
  70   2.0000      -1.009016       -27.4567
  71   2.0000      -0.993585       -27.0368
  72   2.0000      -0.985486       -26.8164
  73   2.0000      -0.982010       -26.7218
  74   2.0000      -0.973845       -26.4997
  75   2.0000      -0.962397       -26.1881
  76   2.0000      -0.955000       -25.9869
  77   2.0000      -0.946366       -25.7519
  78   2.0000      -0.939217       -25.5574
  79   2.0000      -0.916571       -24.9412
  80   2.0000      -0.911065       -24.7913
  81   2.0000      -0.898297       -24.4439
  82   2.0000      -0.877454       -23.8767
  83   2.0000      -0.872131       -23.7319
  84   2.0000      -0.871144       -23.7050
  85   2.0000      -0.861344       -23.4384
  86   2.0000      -0.844711       -22.9857
  87   2.0000      -0.837900       -22.8004
  88   2.0000      -0.829316       -22.5668
  89   2.0000      -0.796331       -21.6693
  90   2.0000      -0.789013       -21.4701
  91   2.0000      -0.773509       -21.0482
  92   2.0000      -0.753446       -20.5023
  93   2.0000      -0.734116       -19.9763
  94   2.0000      -0.728317       -19.8185
  95   2.0000      -0.726249       -19.7622
  96   2.0000      -0.720314       -19.6007
  97   2.0000      -0.718108       -19.5407
  98   2.0000      -0.714158       -19.4332
  99   2.0000      -0.699506       -19.0345
 100   2.0000      -0.698474       -19.0064
 101   2.0000      -0.694453       -18.8970
 102   2.0000      -0.685661       -18.6578
 103   2.0000      -0.684754       -18.6331
 104   2.0000      -0.678919       -18.4743
 105   2.0000      -0.674598       -18.3567
 106   2.0000      -0.673056       -18.3148
 107   2.0000      -0.660647       -17.9771
 108   2.0000      -0.658225       -17.9112
 109   2.0000      -0.652763       -17.7626
 110   2.0000      -0.652253       -17.7487
 111   2.0000      -0.646655       -17.5964
 112   2.0000      -0.645883       -17.5754
 113   2.0000      -0.637976       -17.3602
 114   2.0000      -0.635329       -17.2882
 115   2.0000      -0.628533       -17.1033
 116   2.0000      -0.623154       -16.9569
 117   2.0000      -0.620345       -16.8805
 118   2.0000      -0.613120       -16.6838
 119   2.0000      -0.612093       -16.6559
 120   2.0000      -0.612054       -16.6548
 121   2.0000      -0.611696       -16.6451
 122   2.0000      -0.601344       -16.3634
 123   2.0000      -0.589188       -16.0326
 124   2.0000      -0.581445       -15.8219
 125   2.0000      -0.581021       -15.8104
 126   2.0000      -0.580363       -15.7925
 127   2.0000      -0.571461       -15.5502
 128   2.0000      -0.566647       -15.4192
 129   2.0000      -0.560056       -15.2399
 130   2.0000      -0.555270       -15.1097
 131   2.0000      -0.548098       -14.9145
 132   2.0000      -0.542886       -14.7727
 133   2.0000      -0.540334       -14.7032
 134   2.0000      -0.538556       -14.6548
 135   2.0000      -0.536182       -14.5902
 136   2.0000      -0.531585       -14.4652
 137   2.0000      -0.518075       -14.0975
 138   2.0000      -0.517017       -14.0687
 139   2.0000      -0.514281       -13.9943
 140   2.0000      -0.512288       -13.9401
 141   2.0000      -0.509940       -13.8762
 142   2.0000      -0.507982       -13.8229
 143   2.0000      -0.504876       -13.7384
 144   2.0000      -0.502289       -13.6680
 145   2.0000      -0.495342       -13.4789
 146   2.0000      -0.488439       -13.2911
 147   2.0000      -0.481032       -13.0895
 148   2.0000      -0.476553       -12.9677
 149   2.0000      -0.468006       -12.7351
 150   2.0000      -0.466220       -12.6865
 151   2.0000      -0.456532       -12.4229
 152   2.0000      -0.451668       -12.2905
 153   2.0000      -0.445191       -12.1143
 154   2.0000      -0.437911       -11.9162
 155   2.0000      -0.427593       -11.6354
 156   2.0000      -0.409421       -11.1409
 157   2.0000      -0.391284       -10.6474
 158   2.0000      -0.388425       -10.5696
 159   2.0000      -0.386392       -10.5143
 160   2.0000      -0.378637       -10.3032
 161   2.0000      -0.373319       -10.1585
 162   2.0000      -0.361215        -9.8291
 163   2.0000      -0.356555        -9.7024
 164   2.0000      -0.356049        -9.6886
 165   2.0000      -0.342041        -9.3074
 166   2.0000      -0.337654        -9.1880
 167   2.0000      -0.324800        -8.8383
 168   2.0000      -0.320660        -8.7256
 169   2.0000      -0.305425        -8.3110
 170   2.0000      -0.299320        -8.1449
 171   2.0000      -0.285769        -7.7762
 172   2.0000      -0.278145        -7.5687
 173   2.0000      -0.263606        -7.1731
 174   2.0000      -0.241869        -6.5816
 175   2.0000      -0.190004        -5.1703
 176   2.0000      -0.181410        -4.9364
 177   2.0000      -0.080288        -2.1847
 178   2.0000      -0.059900        -1.6300
 179   0.0000       0.028364         0.7718
 180   0.0000       0.065219         1.7747
 181   0.0000       0.090081         2.4512
 182   0.0000       0.105811         2.8793
 183   0.0000       0.116845         3.1795

MULLIKEN ATOMIC CHARGES
-----------------------
   0 C :    0.230059
   1 N :   -0.455422
   2 C :   -0.071515
   3 N :   -0.341424
   4 C :   -0.103232
   5 N :   -0.569119
   6 C :   -0.101040
   7 N :   -0.341160
   8 C :    0.217219
   9 N :   -0.562303
  10 C :    0.119571
  11 N :   -0.438535
  12 C :   -0.049495
  13 N :   -0.429176
  14 C :    0.210003
  15 N :   -0.440798
  16 C :    0.235411
  17 C :   -0.116855
  18 C :   -0.164711
  19 C :    0.203894
  20 C :    0.213739
  21 C :   -0.044017
  22 C :   -0.090113
  23 C :   -0.039607
  24 C :    0.193132
  25 C :    0.114645
  26 C :   -0.091706
  27 C :    0.217573
  28 C :   -0.061917
  29 C :   -0.184086
  30 C :    0.246220
  31 C :    0.230447
  32 C :   -0.061562
  33 C :   -0.059664
  34 C :   -0.051419
  35 C :    0.229261
  36 C :    0.108110
  37 C :   -0.064354
  38 C :    0.230795
  39 C :   -0.057417
  40 C :   -0.181598
  41 C :    0.226253
  42 C :    0.197468
  43 C :   -0.072617
  44 C :   -0.089501
  45 C :   -0.061823
  46 C :    0.212203
  47 C :    0.115274
  48 C :   -0.066348
  49 C :    0.238013
  50 C :   -0.045866
  51 C :   -0.193563
  52 H :    0.033077
  53 H :   -0.018549
  54 H :    0.045504
  55 H :    0.032284
  56 H :    0.049071
  57 H :    0.047909
  58 H :    0.045967
  59 H :   -0.020656
  60 H :    0.054987
  61 H :    0.170975
  62 H :    0.175507
  63 H :    0.055164
  64 H :   -0.036081
  65 H :    0.046643
  66 H :    0.055364
  67 H :    0.062358
  68 H :    0.057088
  69 H :    0.056240
  70 H :   -0.030219
  71 H :    0.044695
  72 H :    0.071681
  73 H :   -0.007900
  74 H :    0.060746
  75 H :    0.071163
  76 H :    0.075288
  77 H :    0.068261
  78 H :    0.067582
  79 H :   -0.016818
  80 H :    0.061706
  81 H :    0.054688
  82 H :   -0.024948
  83 H :    0.042053
  84 H :    0.054439
  85 H :    0.061093
  86 H :    0.055665
  87 H :    0.057442
  88 H :   -0.014317
  89 H :    0.047522
Sum of atomic charges:   -0.0000000

LOEWDIN ATOMIC CHARGES
----------------------
   0 C :   -0.016562
   1 N :    0.122432
   2 C :   -0.100116
   3 N :    0.182333
   4 C :   -0.011376
   5 N :   -0.134537
   6 C :   -0.016213
   7 N :    0.174890
   8 C :   -0.022932
   9 N :   -0.140636
  10 C :    0.022664
  11 N :    0.141666
  12 C :   -0.094526
  13 N :    0.166863
  14 C :   -0.014983
  15 N :    0.139192
  16 C :   -0.061235
  17 C :   -0.027061
  18 C :   -0.114529
  19 C :   -0.072738
  20 C :    0.004769
  21 C :   -0.099429
  22 C :    0.037167
  23 C :   -0.014616
  24 C :   -0.013132
  25 C :    0.029752
  26 C :   -0.108107
  27 C :   -0.117289
  28 C :   -0.027770
  29 C :   -0.099522
  30 C :   -0.029487
  31 C :    0.024699
  32 C :   -0.094342
  33 C :    0.083123
  34 C :   -0.015183
  35 C :    0.024003
  36 C :    0.035378
  37 C :   -0.093945
  38 C :   -0.052709
  39 C :   -0.017308
  40 C :   -0.108939
  41 C :   -0.090849
  42 C :   -0.010329
  43 C :   -0.099213
  44 C :    0.034294
  45 C :   -0.028412
  46 C :    0.002599
  47 C :    0.029595
  48 C :   -0.094452
  49 C :   -0.069149
  50 C :   -0.018275
  51 C :   -0.108314
  52 H :    0.021981
  53 H :    0.002336
  54 H :   -0.016288
  55 H :    0.021666
  56 H :    0.021721
  57 H :    0.026451
  58 H :    0.026418
  59 H :    0.001852
  60 H :   -0.010454
  61 H :    0.060272
  62 H :    0.061901
  63 H :    0.030689
  64 H :    0.000296
  65 H :    0.045722
  66 H :    0.029107
  67 H :    0.028182
  68 H :    0.031559
  69 H :    0.030238
  70 H :   -0.004897
  71 H :    0.043437
  72 H :    0.037877
  73 H :    0.007190
  74 H :    0.050818
  75 H :    0.037604
  76 H :    0.034996
  77 H :    0.036311
  78 H :    0.036003
  79 H :    0.002862
  80 H :    0.050937
  81 H :    0.029213
  82 H :   -0.002780
  83 H :    0.042532
  84 H :    0.030016
  85 H :    0.027500
  86 H :    0.030239
  87 H :    0.031511
  88 H :    0.002477
  89 H :    0.045298

  Mayer bond orders larger than 0.100000
B(  0-C ,  1-N ) :   1.1044 B(  0-C , 17-C ) :   1.7242 B(  0-C , 52-H ) :   0.9596
B(  1-N ,  8-C ) :   1.0895 B(  1-N , 10-C ) :   0.9776 B(  2-C , 12-C ) :   1.4833
B(  2-C , 16-C ) :   1.3782 B(  2-C , 53-H ) :   0.9712 B(  3-N , 14-C ) :   1.2251
B(  3-N , 16-C ) :   1.1781 B(  3-N , 61-H ) :   0.8978 B(  4-C ,  6-C ) :   1.2256
B(  4-C , 17-C ) :   1.2265 B(  4-C , 18-C ) :   1.4852 B(  5-N , 19-C ) :   1.4608
B(  5-N , 27-C ) :   1.3683 B(  6-C ,  8-C ) :   1.7310 B(  6-C , 54-H ) :   0.8460
B(  7-N , 30-C ) :   1.1952 B(  7-N , 38-C ) :   1.1892 B(  7-N , 62-H ) :   0.8968
B(  8-C , 55-H ) :   0.9597 B(  9-N , 41-C ) :   1.3948 B(  9-N , 49-C ) :   1.4246
B( 10-C , 56-H ) :   0.9777 B( 10-C , 57-H ) :   0.9827 B( 10-C , 58-H ) :   0.9835
B( 11-N , 20-C ) :   1.1310 B( 11-N , 24-C ) :   1.1064 B( 11-N , 25-C ) :   0.9604
B( 12-C , 14-C ) :   1.3622 B( 12-C , 59-H ) :   0.9094 B( 13-N , 31-C ) :   1.1621
B( 13-N , 35-C ) :   1.1617 B( 13-N , 36-C ) :   0.9409 B( 14-C , 18-C ) :   1.1156
B( 15-N , 42-C ) :   1.1079 B( 15-N , 46-C ) :   1.1255 B( 15-N , 47-C ) :   0.9610
B( 16-C , 51-C ) :   1.1676 B( 17-C , 60-H ) :   0.8674 B( 18-C , 19-C ) :   1.1124
B( 19-C , 21-C ) :   1.2558 B( 20-C , 28-C ) :   1.6291 B( 20-C , 63-H ) :   0.9702
B( 21-C , 26-C ) :   1.5746 B( 21-C , 64-H ) :   0.8920 B( 22-C , 23-C ) :   1.2893
B( 22-C , 28-C ) :   1.2634 B( 22-C , 29-C ) :   1.2281 B( 23-C , 24-C ) :   1.6204
B( 23-C , 65-H ) :   0.9703 B( 24-C , 66-H ) :   0.9696 B( 25-C , 67-H ) :   0.9760
B( 25-C , 68-H ) :   0.9828 B( 25-C , 69-H ) :   0.9824 B( 26-C , 27-C ) :   1.2675
B( 26-C , 70-H ) :   0.9654 B( 27-C , 29-C ) :   1.2039 B( 28-C , 71-H ) :   0.9720
B( 29-C , 30-C ) :   1.2479 B( 30-C , 32-C ) :   1.2780 B( 31-C , 39-C ) :   1.5867
B( 31-C , 72-H ) :   0.9681 B( 32-C , 37-C ) :   1.5807 B( 32-C , 73-H ) :   0.9786
B( 33-C , 34-C ) :   1.3074 B( 33-C , 39-C ) :   1.3051 B( 33-C , 40-C ) :   1.1748
B( 34-C , 35-C ) :   1.5845 B( 34-C , 74-H ) :   0.9696 B( 35-C , 75-H ) :   0.9681
B( 36-C , 76-H ) :   0.9768 B( 36-C , 77-H ) :   0.9816 B( 36-C , 78-H ) :   0.9823
B( 37-C , 38-C ) :   1.2844 B( 37-C , 79-H ) :   0.9764 B( 38-C , 40-C ) :   1.2347
B( 39-C , 80-H ) :   0.9705 B( 40-C , 41-C ) :   1.2508 B( 41-C , 43-C ) :   1.1837
B( 42-C , 50-C ) :   1.6324 B( 42-C , 81-H ) :   0.9696 B( 43-C , 48-C ) :   1.6694
B( 43-C , 82-H ) :   0.9721 B( 44-C , 45-C ) :   1.2636 B( 44-C , 50-C ) :   1.2731
B( 44-C , 51-C ) :   1.2594 B( 45-C , 46-C ) :   1.6339 B( 45-C , 83-H ) :   0.9718
B( 46-C , 84-H ) :   0.9700 B( 47-C , 85-H ) :   0.9762 B( 47-C , 86-H ) :   0.9829
B( 47-C , 87-H ) :   0.9824 B( 48-C , 49-C ) :   1.1870 B( 48-C , 88-H ) :   0.9748
B( 49-C , 51-C ) :   1.2471 B( 50-C , 89-H ) :   0.9708 B( 54-H , 64-H ) :   0.1323
B( 59-H , 60-H ) :   0.1046

MP2 TOTAL ENERGY:    -2130.749373872 Eh
FINAL SINGLE POINT ENERGY     -2130.749373872499

DIPOLE MOMENT
-------------
                                X             Y             Z
Electronic contribution:      2.93565      -4.33451      -0.07822
Nuclear contribution   :     -0.03189       0.16451       0.09445
                        -----------------------------------------
Total Dipole Moment    :      2.90376      -4.17000       0.01623
                        -----------------------------------------
Magnitude (a.u.)       :      5.08143
Magnitude (Debye)      :     12.91598

Rotational constants in cm-1:     0.001504     0.001478     0.000760
Rotational constants in MHz :    45.075364    44.298648    22.781069

                             ****ORCA TERMINATED NORMALLY****
TOTAL RUN TIME: 0 days 0 hours 59 minutes 14 seconds 599 msec
