                         Program Version 5.0.4 -  RELEASE  -
|  1> ! PAL2
|  2> ! mp2 cc-pvdz TightSCF  NoKeepInts
|  3>
|  4> %scf
|  5>   MaxCore 2000
|  6> end
|  7> %mp2
|  8>   MaxCore 2000
|  9> end
| 10> * xyz 0 1
| 11>    C       -3.18000         6.40700        -0.52100
| 12>    C        1.47400         4.04100         0.05700
| 13>    C       -2.80200         4.09300         0.04900
| 14>    C       -4.04400         4.10400         0.70200
| 15>    C       -4.80800         5.25400         0.71900
| 16>    C       -5.23100         7.59000         0.12100
| 17>    C        0.13200         4.30700         0.06100
| 18>    C       -0.56900         3.05600         0.04700
| 19>    C        1.64900         2.61800         0.02300
| 20>    C       -2.38300         5.28000        -0.57100
| 21>    N       -4.37200         6.38500         0.11700
| 22>    N        0.38800         2.06700         0.02500
| 23>    N       -2.01000         0.39500        -0.07500
| 24>    N       -0.38800        -2.07400        -0.02700
| 25>    N        2.01000        -0.40100         0.06500
| 26>    C       -1.96000         2.86100         0.02400
| 27>    C       -2.62300         1.61500        -0.01800
| 28>    C       -5.57300        -4.32900         1.06600
| 29>    C       -4.07300         1.47100         0.05600
| 30>    C       -4.10600        -2.75600        -0.02600
| 31>    C       -4.99500        -2.75700        -1.11100
| 32>    C       -6.13200        -3.54200        -1.07600
| 33>    C       -7.65100        -5.11300         0.04000
| 34>    C       -4.32400         0.14100         0.03700
| 35>    C       -3.02500        -0.52000        -0.04800
| 36>    C       -4.42200        -3.56600         1.07500
| 37>    N       -6.40700        -4.31300         0.00100
| 38>    C       -2.86700        -1.92200        -0.04000
| 39>    C       -1.65000        -2.62400        -0.02700
| 40>    C        3.56800        -6.14200        -1.04000
| 41>    C       -1.47600        -4.04900        -0.03400
| 42>    C        2.80300        -4.09900        -0.00800
| 43>    C        3.65700        -4.38400         1.06900
| 44>    C        4.42700        -5.53000         1.05900
| 45>    C        5.24500        -7.58800         0.01400
| 46>    C       -0.13400        -4.31500        -0.02200
| 47>    C        0.56800        -3.06400        -0.02700
| 48>    C        2.77500        -5.01200        -1.07400
| 49>    N        4.37600        -6.39100         0.01700
| 50>    C        1.95900        -2.86900        -0.00900
| 51>    C        2.62100        -1.62200         0.00900
| 52>    C        5.54300         4.33900        -1.13000
| 53>    C        4.07000        -1.47900        -0.09400
| 54>    C        4.10400         2.75100        -0.02100
| 55>    C        5.02700         2.72900         1.03600
| 56>    C        6.16600         3.50900         0.97800
| 57>    C        7.61900         5.15300        -0.11500
| 58>    C        4.32100        -0.14800        -0.09200
| 59>    C        3.02500         0.51400         0.01500
| 60>    C        4.38700         3.58200        -1.11500
| 61>    C        2.86600         1.91600         0.01300
| 62>    N        6.41300         4.29600        -0.09500
| 63>    H       -2.89100         7.34800        -0.97400
| 64>    H        2.27400         4.76600         0.08100
| 65>    H       -4.42700         3.21600         1.19000
| 66>    H       -5.77500         5.30800         1.20200
| 67>    H       -5.92600         7.53400        -0.72000
| 68>    H       -5.78200         7.62500         1.06100
| 69>    H       -4.59800         8.47200         0.02600
| 70>    H       -0.33200         5.28200         0.06900
| 71>    H       -1.42700         5.33900        -1.07900
| 72>    H        0.18200         1.07200         0.00500
| 73>    H       -0.18300        -1.08000        -0.02100
| 74>    H       -5.86400        -4.96200         1.89500
| 75>    H       -4.79400         2.27200         0.13900
| 76>    H       -4.80000        -2.16000        -1.99400
| 77>    H       -6.84100        -3.58200        -1.89300
| 78>    H       -8.42800        -4.53600         0.54600
| 79>    H       -7.95600        -5.33700        -0.98100
| 80>    H       -7.45600        -6.03700         0.58400
| 81>    H       -5.28700        -0.34400         0.10000
| 82>    H       -3.78000        -3.60100         1.94700
| 83>    H        3.58700        -6.86800        -1.84300
| 84>    H       -2.27600        -4.77400        -0.05000
| 85>    H        3.71400        -3.72400         1.92600
| 86>    H        5.09200        -5.79500         1.87100
| 87>    H        6.20500        -7.32900        -0.43900
| 88>    H        5.39300        -7.91700         1.04200
| 89>    H        4.75900        -8.37300        -0.56400
| 90>    H        0.32900        -5.29000        -0.00800
| 91>    H        2.14600        -4.84200        -1.94000
| 92>    H        5.80800         4.98600        -1.95600
| 93>    H        4.78800        -2.28100        -0.18500
| 94>    H        4.86000         2.11400         1.91200
| 95>    H        6.90100         3.53100         1.77200
| 96>    H        7.38300         6.10900         0.35600
| 97>    H        8.41400         4.65200         0.43500
| 98>    H        7.92100         5.31000        -1.15000
| 99>    H        5.28300         0.33600        -0.17900
|100>    H        3.72000         3.63200        -1.96700
|101> *
|102>
|103>                          ****END OF INPUT****

CARTESIAN COORDINATES (ANGSTROEM)
---------------------------------
  C     -3.180000    6.407000   -0.521000
  C      1.474000    4.041000    0.057000
  C     -2.802000    4.093000    0.049000
  C     -4.044000    4.104000    0.702000
  C     -4.808000    5.254000    0.719000
  C     -5.231000    7.590000    0.121000
  C      0.132000    4.307000    0.061000
  C     -0.569000    3.056000    0.047000
  C      1.649000    2.618000    0.023000
  C     -2.383000    5.280000   -0.571000
  N     -4.372000    6.385000    0.117000
  N      0.388000    2.067000    0.025000
  N     -2.010000    0.395000   -0.075000
  N     -0.388000   -2.074000   -0.027000
  N      2.010000   -0.401000    0.065000
  C     -1.960000    2.861000    0.024000
  C     -2.623000    1.615000   -0.018000
  C     -5.573000   -4.329000    1.066000
  C     -4.073000    1.471000    0.056000
  C     -4.106000   -2.756000   -0.026000
  C     -4.995000   -2.757000   -1.111000
  C     -6.132000   -3.542000   -1.076000
  C     -7.651000   -5.113000    0.040000
  C     -4.324000    0.141000    0.037000
  C     -3.025000   -0.520000   -0.048000
  C     -4.422000   -3.566000    1.075000
  N     -6.407000   -4.313000    0.001000
  C     -2.867000   -1.922000   -0.040000
  C     -1.650000   -2.624000   -0.027000
  C      3.568000   -6.142000   -1.040000
  C     -1.476000   -4.049000   -0.034000
  C      2.803000   -4.099000   -0.008000
  C      3.657000   -4.384000    1.069000
  C      4.427000   -5.530000    1.059000
  C      5.245000   -7.588000    0.014000
  C     -0.134000   -4.315000   -0.022000
  C      0.568000   -3.064000   -0.027000
  C      2.775000   -5.012000   -1.074000
  N      4.376000   -6.391000    0.017000
  C      1.959000   -2.869000   -0.009000
  C      2.621000   -1.622000    0.009000
  C      5.543000    4.339000   -1.130000
  C      4.070000   -1.479000   -0.094000
  C      4.104000    2.751000   -0.021000
  C      5.027000    2.729000    1.036000
  C      6.166000    3.509000    0.978000
  C      7.619000    5.153000   -0.115000
  C      4.321000   -0.148000   -0.092000
  C      3.025000    0.514000    0.015000
  C      4.387000    3.582000   -1.115000
  C      2.866000    1.916000    0.013000
  N      6.413000    4.296000   -0.095000
  H     -2.891000    7.348000   -0.974000
  H      2.274000    4.766000    0.081000
  H     -4.427000    3.216000    1.190000
  H     -5.775000    5.308000    1.202000
  H     -5.926000    7.534000   -0.720000
  H     -5.782000    7.625000    1.061000
  H     -4.598000    8.472000    0.026000
  H     -0.332000    5.282000    0.069000
  H     -1.427000    5.339000   -1.079000
  H      0.182000    1.072000    0.005000
  H     -0.183000   -1.080000   -0.021000
  H     -5.864000   -4.962000    1.895000
  H     -4.794000    2.272000    0.139000
  H     -4.800000   -2.160000   -1.994000
  H     -6.841000   -3.582000   -1.893000
  H     -8.428000   -4.536000    0.546000
  H     -7.956000   -5.337000   -0.981000
  H     -7.456000   -6.037000    0.584000
  H     -5.287000   -0.344000    0.100000
  H     -3.780000   -3.601000    1.947000
  H      3.587000   -6.868000   -1.843000
  H     -2.276000   -4.774000   -0.050000
  H      3.714000   -3.724000    1.926000
  H      5.092000   -5.795000    1.871000
  H      6.205000   -7.329000   -0.439000
  H      5.393000   -7.917000    1.042000
  H      4.759000   -8.373000   -0.564000
  H      0.329000   -5.290000   -0.008000
  H      2.146000   -4.842000   -1.940000
  H      5.808000    4.986000   -1.956000
  H      4.788000   -2.281000   -0.185000
  H      4.860000    2.114000    1.912000
  H      6.901000    3.531000    1.772000
  H      7.383000    6.109000    0.356000
  H      8.414000    4.652000    0.435000
  H      7.921000    5.310000   -1.150000
  H      5.283000    0.336000   -0.179000
  H      3.720000    3.632000   -1.967000

 Total Charge           Charge          ....    0
 Multiplicity           Mult            ....    1
 Number of Electrons    NEL             ....  358
 Basis Dimension        Dim             ....  918

ORBITAL ENERGIES
----------------

  NO   OCC          E(Eh)            E(eV)
   0   2.0000     -15.671138      -426.4334
   1   2.0000     -15.634763      -425.4435
   2   2.0000     -15.630934      -425.3393
   3   2.0000     -15.593226      -424.3132
   4   2.0000     -15.524277      -422.4370
   5   2.0000     -15.516293      -422.2198
   6   2.0000     -15.452047      -420.4716
   7   2.0000     -15.441598      -420.1872
   8   2.0000     -11.322593      -308.1034
   9   2.0000     -11.322392      -308.0979
  10   2.0000     -11.320923      -308.0580
  11   2.0000     -11.299817      -307.4837
  12   2.0000     -11.297748      -307.4274
  13   2.0000     -11.293218      -307.3041
  14   2.0000     -11.289907      -307.2140
  15   2.0000     -11.287711      -307.1542
  16   2.0000     -11.286216      -307.1135
  17   2.0000     -11.274645      -306.7987
  18   2.0000     -11.273934      -306.7794
  19   2.0000     -11.258387      -306.3563
  20   2.0000     -11.257315      -306.3271
  21   2.0000     -11.256362      -306.3012
  22   2.0000     -11.256205      -306.2969
  23   2.0000     -11.238402      -305.8125
  24   2.0000     -11.235684      -305.7385
  25   2.0000     -11.231769      -305.6320
  26   2.0000     -11.230962      -305.6100
  27   2.0000     -11.229050      -305.5580
  28   2.0000     -11.228956      -305.5554
  29   2.0000     -11.209064      -305.0141
  30   2.0000     -11.207887      -304.9821
  31   2.0000     -11.202136      -304.8256
  32   2.0000     -11.195675      -304.6498
  33   2.0000     -11.193503      -304.5907
  34   2.0000     -11.190577      -304.5111
  35   2.0000     -11.189608      -304.4847
  36   2.0000     -11.187709      -304.4330
  37   2.0000     -11.185053      -304.3608
  38   2.0000     -11.183986      -304.3317
  39   2.0000     -11.172481      -304.0187
  40   2.0000     -11.171579      -303.9941
  41   2.0000     -11.170139      -303.9549
  42   2.0000     -11.166631      -303.8595
  43   2.0000     -11.161839      -303.7291
  44   2.0000     -11.159728      -303.6716
  45   2.0000     -11.158359      -303.6344
  46   2.0000     -11.158149      -303.6287
  47   2.0000     -11.153685      -303.5072
  48   2.0000     -11.148716      -303.3720
  49   2.0000     -11.141101      -303.1648
  50   2.0000     -11.133127      -302.9478
  51   2.0000     -11.124182      -302.7044
  52   2.0000      -1.353028       -36.8178
  53   2.0000      -1.321904       -35.9708
  54   2.0000      -1.318811       -35.8867
  55   2.0000      -1.286909       -35.0186
  56   2.0000      -1.224679       -33.3252
  57   2.0000      -1.210848       -32.9489
  58   2.0000      -1.170826       -31.8598
  59   2.0000      -1.152559       -31.3627
  60   2.0000      -1.137486       -30.9526
  61   2.0000      -1.110732       -30.2246
  62   2.0000      -1.108307       -30.1586
  63   2.0000      -1.082492       -29.4561
  64   2.0000      -1.075255       -29.2592
  65   2.0000      -1.046050       -28.4645
  66   2.0000      -1.043519       -28.3956
  67   2.0000      -1.037036       -28.2192
  68   2.0000      -1.015349       -27.6291
  69   2.0000      -1.014170       -27.5970
  70   2.0000      -1.009819       -27.4786
  71   2.0000      -0.992412       -27.0049
  72   2.0000      -0.987243       -26.8642
  73   2.0000      -0.978979       -26.6394
  74   2.0000      -0.972566       -26.4649
  75   2.0000      -0.960567       -26.1384
  76   2.0000      -0.952687       -25.9239
  77   2.0000      -0.946921       -25.7670
  78   2.0000      -0.935294       -25.4506
  79   2.0000      -0.919930       -25.0326
  80   2.0000      -0.904540       -24.6138
  81   2.0000      -0.893082       -24.3020
  82   2.0000      -0.874323       -23.7915
  83   2.0000      -0.871581       -23.7169
  84   2.0000      -0.868173       -23.6242
  85   2.0000      -0.856479       -23.3060
  86   2.0000      -0.842060       -22.9136
  87   2.0000      -0.836502       -22.7624
  88   2.0000      -0.823726       -22.4147
  89   2.0000      -0.798120       -21.7180
  90   2.0000      -0.792559       -21.5666
  91   2.0000      -0.748850       -20.3772
  92   2.0000      -0.740933       -20.1618
  93   2.0000      -0.732401       -19.9296
  94   2.0000      -0.723553       -19.6889
  95   2.0000      -0.721499       -19.6330
  96   2.0000      -0.715155       -19.4604
  97   2.0000      -0.709761       -19.3136
  98   2.0000      -0.705691       -19.2028
  99   2.0000      -0.696128       -18.9426
 100   2.0000      -0.695900       -18.9364
 101   2.0000      -0.683758       -18.6060
 102   2.0000      -0.679028       -18.4773
 103   2.0000      -0.678485       -18.4625
 104   2.0000      -0.677791       -18.4436
 105   2.0000      -0.672827       -18.3086
 106   2.0000      -0.668225       -18.1833
 107   2.0000      -0.661220       -17.9927
 108   2.0000      -0.655637       -17.8408
 109   2.0000      -0.653690       -17.7878
 110   2.0000      -0.650544       -17.7022
 111   2.0000      -0.643478       -17.5099
 112   2.0000      -0.641110       -17.4455
 113   2.0000      -0.639783       -17.4094
 114   2.0000      -0.638063       -17.3626
 115   2.0000      -0.627242       -17.0681
 116   2.0000      -0.626010       -17.0346
 117   2.0000      -0.618101       -16.8194
 118   2.0000      -0.613028       -16.6813
 119   2.0000      -0.612051       -16.6548
 120   2.0000      -0.610737       -16.6190
 121   2.0000      -0.605949       -16.4887
 122   2.0000      -0.600620       -16.3437
 123   2.0000      -0.586827       -15.9684
 124   2.0000      -0.582486       -15.8503
 125   2.0000      -0.580689       -15.8014
 126   2.0000      -0.579559       -15.7706
 127   2.0000      -0.576701       -15.6928
 128   2.0000      -0.566031       -15.4025
 129   2.0000      -0.558973       -15.2104
 130   2.0000      -0.551974       -15.0200
 131   2.0000      -0.547871       -14.9083
 132   2.0000      -0.542191       -14.7538
 133   2.0000      -0.539401       -14.6778
 134   2.0000      -0.538101       -14.6425
 135   2.0000      -0.535527       -14.5724
 136   2.0000      -0.527265       -14.3476
 137   2.0000      -0.523498       -14.2451
 138   2.0000      -0.516639       -14.0585
 139   2.0000      -0.513904       -13.9840
 140   2.0000      -0.512492       -13.9456
 141   2.0000      -0.511380       -13.9153
 142   2.0000      -0.508937       -13.8489
 143   2.0000      -0.503621       -13.7042
 144   2.0000      -0.501503       -13.6466
 145   2.0000      -0.497343       -13.5334
 146   2.0000      -0.493547       -13.4301
 147   2.0000      -0.484564       -13.1856
 148   2.0000      -0.480804       -13.0833
 149   2.0000      -0.467057       -12.7093
 150   2.0000      -0.465574       -12.6689
 151   2.0000      -0.457102       -12.4384
 152   2.0000      -0.450114       -12.2482
 153   2.0000      -0.445494       -12.1225
 154   2.0000      -0.442151       -12.0315
 155   2.0000      -0.435627       -11.8540
 156   2.0000      -0.429527       -11.6880
 157   2.0000      -0.418858       -11.3977
 158   2.0000      -0.403609       -10.9828
 159   2.0000      -0.388130       -10.5615
 160   2.0000      -0.382019       -10.3953
 161   2.0000      -0.378302       -10.2941
 162   2.0000      -0.370099       -10.0709
 163   2.0000      -0.357145        -9.7184
 164   2.0000      -0.355200        -9.6655
 165   2.0000      -0.339947        -9.2504
 166   2.0000      -0.337381        -9.1806
 167   2.0000      -0.327014        -8.8985
 168   2.0000      -0.326010        -8.8712
 169   2.0000      -0.303420        -8.2565
 170   2.0000      -0.299800        -8.1580
 171   2.0000      -0.286307        -7.7908
 172   2.0000      -0.282687        -7.6923
 173   2.0000      -0.262232        -7.1357
 174   2.0000      -0.243430        -6.6241
 175   2.0000      -0.189768        -5.1639
 176   2.0000      -0.180100        -4.9008
 177   2.0000      -0.074780        -2.0349
 178   2.0000      -0.058063        -1.5800
 179   0.0000       0.028660         0.7799
 180   0.0000       0.066795         1.8176
 181   0.0000       0.091475         2.4892
 182   0.0000       0.108741         2.9590
 183   0.0000       0.111908         3.0452

MULLIKEN ATOMIC CHARGES
-----------------------
   0 C :    0.208939
   1 N :   -0.454381
   2 C :   -0.064518
   3 N :   -0.336785
   4 C :   -0.048217
   5 N :   -0.563915
   6 C :   -0.107509
   7 N :   -0.340006
   8 C :    0.205884
   9 N :   -0.562386
  10 C :    0.118426
  11 N :   -0.438288
  12 C :   -0.082997
  13 N :   -0.431481
  14 C :    0.235288
  15 N :   -0.441040
  16 C :    0.228049
  17 C :   -0.118558
  18 C :   -0.198017
  19 C :    0.227907
  20 C :    0.212499
  21 C :   -0.094336
  22 C :   -0.090948
  23 C :   -0.040986
  24 C :    0.195516
  25 C :    0.114500
  26 C :   -0.079605
  27 C :    0.213346
  28 C :   -0.060265
  29 C :   -0.180474
  30 C :    0.244343
  31 C :    0.226663
  32 C :   -0.062374
  33 C :   -0.064403
  34 C :   -0.050815
  35 C :    0.223640
  36 C :    0.109362
  37 C :   -0.064773
  38 C :    0.232337
  39 C :   -0.058424
  40 C :   -0.182672
  41 C :    0.225070
  42 C :    0.198212
  43 C :   -0.072471
  44 C :   -0.089677
  45 C :   -0.059840
  46 C :    0.210056
  47 C :    0.115435
  48 C :   -0.068202
  49 C :    0.236734
  50 C :   -0.047616
  51 C :   -0.191270
  52 H :    0.040675
  53 H :   -0.016351
  54 H :    0.053130
  55 H :    0.039600
  56 H :    0.050287
  57 H :    0.048897
  58 H :    0.048219
  59 H :    0.001139
  60 H :    0.048490
  61 H :    0.171364
  62 H :    0.175014
  63 H :    0.055395
  64 H :   -0.008197
  65 H :    0.047358
  66 H :    0.056049
  67 H :    0.062361
  68 H :    0.057410
  69 H :    0.056720
  70 H :   -0.028817
  71 H :    0.045094
  72 H :    0.068586
  73 H :   -0.008920
  74 H :    0.057858
  75 H :    0.067917
  76 H :    0.072508
  77 H :    0.066159
  78 H :    0.065441
  79 H :   -0.016024
  80 H :    0.058684
  81 H :    0.053991
  82 H :   -0.024533
  83 H :    0.042129
  84 H :    0.054008
  85 H :    0.060554
  86 H :    0.055650
  87 H :    0.057006
  88 H :   -0.015570
  89 H :    0.045764
Sum of atomic charges:   -0.0000000

LOEWDIN ATOMIC CHARGES
----------------------
   0 C :   -0.019744
   1 N :    0.117998
   2 C :   -0.101142
   3 N :    0.183258
   4 C :   -0.004845
   5 N :   -0.133013
   6 C :   -0.036595
   7 N :    0.175932
   8 C :   -0.021844
   9 N :   -0.140279
  10 C :    0.024268
  11 N :    0.142273
  12 C :   -0.113161
  13 N :    0.161549
  14 C :   -0.029699
  15 N :    0.138573
  16 C :   -0.058088
  17 C :   -0.043797
  18 C :   -0.103144
  19 C :   -0.082419
  20 C :    0.003806
  21 C :   -0.121034
  22 C :    0.037103
  23 C :   -0.015337
  24 C :   -0.010831
  25 C :    0.029892
  26 C :   -0.107237
  27 C :   -0.113545
  28 C :   -0.026630
  29 C :   -0.100905
  30 C :   -0.032536
  31 C :    0.020138
  32 C :   -0.095224
  33 C :    0.073932
  34 C :   -0.015893
  35 C :    0.017759
  36 C :    0.034191
  37 C :   -0.095472
  38 C :   -0.050154
  39 C :   -0.019013
  40 C :   -0.108300
  41 C :   -0.091750
  42 C :   -0.009830
  43 C :   -0.100110
  44 C :    0.033019
  45 C :   -0.027110
  46 C :    0.000556
  47 C :    0.029440
  48 C :   -0.096351
  49 C :   -0.072923
  50 C :   -0.019791
  51 C :   -0.108508
  52 H :    0.024109
  53 H :    0.003207
  54 H :    0.042015
  55 H :    0.023874
  56 H :    0.022125
  57 H :    0.026919
  58 H :    0.027414
  59 H :    0.010221
  60 H :    0.039944
  61 H :    0.060117
  62 H :    0.061618
  63 H :    0.030731
  64 H :    0.005556
  65 H :    0.045906
  66 H :    0.029485
  67 H :    0.028205
  68 H :    0.031705
  69 H :    0.030443
  70 H :   -0.004068
  71 H :    0.043661
  72 H :    0.036434
  73 H :    0.006678
  74 H :    0.049616
  75 H :    0.036011
  76 H :    0.033548
  77 H :    0.035319
  78 H :    0.035000
  79 H :    0.003240
  80 H :    0.049587
  81 H :    0.028947
  82 H :   -0.002548
  83 H :    0.042682
  84 H :    0.029754
  85 H :    0.027228
  86 H :    0.030218
  87 H :    0.031308
  88 H :    0.001866
  89 H :    0.044491

  Mayer bond orders larger than 0.100000
B(  0-C ,  1-N ) :   1.0952 B(  0-C , 17-C ) :   1.6964 B(  0-C , 52-H ) :   0.9675
B(  1-N ,  8-C ) :   1.0880 B(  1-N , 10-C ) :   0.9762 B(  2-C , 12-C ) :   1.5105
B(  2-C , 16-C ) :   1.3532 B(  2-C , 53-H ) :   0.9755 B(  3-N , 14-C ) :   1.2180
B(  3-N , 16-C ) :   1.1904 B(  3-N , 61-H ) :   0.8990 B(  4-C ,  6-C ) :   1.2152
B(  4-C , 17-C ) :   1.2166 B(  4-C , 18-C ) :   1.4233 B(  5-N , 19-C ) :   1.4494
B(  5-N , 27-C ) :   1.3812 B(  6-C ,  8-C ) :   1.7032 B(  6-C , 54-H ) :   0.9561
B(  7-N , 30-C ) :   1.1956 B(  7-N , 38-C ) :   1.1921 B(  7-N , 62-H ) :   0.8971
B(  8-C , 55-H ) :   0.9674 B(  9-N , 41-C ) :   1.3962 B(  9-N , 49-C ) :   1.4241
B( 10-C , 56-H ) :   0.9770 B( 10-C , 57-H ) :   0.9821 B( 10-C , 58-H ) :   0.9843
B( 11-N , 20-C ) :   1.1298 B( 11-N , 24-C ) :   1.1092 B( 11-N , 25-C ) :   0.9599
B( 12-C , 14-C ) :   1.3534 B( 12-C , 59-H ) :   0.9736 B( 13-N , 31-C ) :   1.1542
B( 13-N , 35-C ) :   1.1514 B( 13-N , 36-C ) :   0.9449 B( 14-C , 18-C ) :   1.1356
B( 15-N , 42-C ) :   1.1088 B( 15-N , 46-C ) :   1.1221 B( 15-N , 47-C ) :   0.9616
B( 16-C , 51-C ) :   1.1743 B( 17-C , 60-H ) :   0.9599 B( 18-C , 19-C ) :   1.1410
B( 19-C , 21-C ) :   1.2427 B( 20-C , 28-C ) :   1.6279 B( 20-C , 63-H ) :   0.9703
B( 21-C , 26-C ) :   1.6103 B( 21-C , 64-H ) :   0.9681 B( 22-C , 23-C ) :   1.2886
B( 22-C , 28-C ) :   1.2654 B( 22-C , 29-C ) :   1.2241 B( 23-C , 24-C ) :   1.6199
B( 23-C , 65-H ) :   0.9704 B( 24-C , 66-H ) :   0.9694 B( 25-C , 67-H ) :   0.9760
B( 25-C , 68-H ) :   0.9828 B( 25-C , 69-H ) :   0.9823 B( 26-C , 27-C ) :   1.2390
B( 26-C , 70-H ) :   0.9709 B( 27-C , 29-C ) :   1.2149 B( 28-C , 71-H ) :   0.9719
B( 29-C , 30-C ) :   1.2379 B( 30-C , 32-C ) :   1.2864 B( 31-C , 39-C ) :   1.5961
B( 31-C , 72-H ) :   0.9684 B( 32-C , 37-C ) :   1.5724 B( 32-C , 73-H ) :   0.9785
B( 33-C , 34-C ) :   1.3012 B( 33-C , 39-C ) :   1.2970 B( 33-C , 40-C ) :   1.1897
B( 34-C , 35-C ) :   1.5934 B( 34-C , 74-H ) :   0.9698 B( 35-C , 75-H ) :   0.9684
B( 36-C , 76-H ) :   0.9767 B( 36-C , 77-H ) :   0.9817 B( 36-C , 78-H ) :   0.9825
B( 37-C , 38-C ) :   1.2909 B( 37-C , 79-H ) :   0.9767 B( 38-C , 40-C ) :   1.2282
B( 39-C , 80-H ) :   0.9707 B( 40-C , 41-C ) :   1.2453 B( 41-C , 43-C ) :   1.1896
B( 42-C , 50-C ) :   1.6335 B( 42-C , 81-H ) :   0.9697 B( 43-C , 48-C ) :   1.6629
B( 43-C , 82-H ) :   0.9724 B( 44-C , 45-C ) :   1.2646 B( 44-C , 50-C ) :   1.2712
B( 44-C , 51-C ) :   1.2599 B( 45-C , 46-C ) :   1.6347 B( 45-C , 83-H ) :   0.9717
B( 46-C , 84-H ) :   0.9700 B( 47-C , 85-H ) :   0.9762 B( 47-C , 86-H ) :   0.9829
B( 47-C , 87-H ) :   0.9825 B( 48-C , 49-C ) :   1.1927 B( 48-C , 88-H ) :   0.9747
B( 49-C , 51-C ) :   1.2388 B( 50-C , 89-H ) :   0.9710

MP2 TOTAL ENERGY:    -2130.889437337 Eh
FINAL SINGLE POINT ENERGY     -2130.889437337079

DIPOLE MOMENT
-------------
                                X             Y             Z
Electronic contribution:      2.28796      -3.62983      -0.11565
Nuclear contribution   :     -0.05007       0.15257       0.13852
                        -----------------------------------------
Total Dipole Moment    :      2.23789      -3.47726       0.02287
                        -----------------------------------------
Magnitude (a.u.)       :      4.13522
Magnitude (Debye)      :     10.51088

Rotational constants in cm-1:     0.001502     0.001476     0.000761
Rotational constants in MHz :    45.018413    44.263653    22.804825

                             ****ORCA TERMINATED NORMALLY****
TOTAL RUN TIME: 0 days 1 hours 24 minutes 36 seconds 288 msec
