                         Program Version 5.0.4 -  RELEASE  -
|  1> ! PAL2
|  2> ! mp2 cc-pvdz TightSCF  NoKeepInts
|  3>
|  4> %scf
|  5>   MaxCore 2000
|  6> end
|  7> %mp2
|  8>   MaxCore 2000
|  9> end
| 10> * xyz 0 1
| 11>    C       -3.16400         6.41800        -0.48900
| 12>    C        1.47400         4.04100         0.05700
| 13>    C       -2.80200         4.09300         0.04900
| 14>    C       -4.06100         4.09300         0.66900
| 15>    C       -4.82500         5.24300         0.68700
| 16>    C       -5.23100         7.59000         0.12000
| 17>    C        0.13200         4.30700         0.06100
| 18>    C       -0.56900         3.05600         0.04700
| 19>    C        1.64900         2.61800         0.02300
| 20>    C       -2.36600         5.29100        -0.53800
| 21>    N       -4.37200         6.38400         0.11700
| 22>    N        0.38800         2.06700         0.02500
| 23>    N       -2.01000         0.39500        -0.07500
| 24>    N       -0.38800        -2.07400        -0.02700
| 25>    N        2.01000        -0.40100         0.06500
| 26>    C       -1.96000         2.86100         0.02400
| 27>    C       -2.62300         1.61500        -0.01800
| 28>    C       -5.57300        -4.32900         1.06600
| 29>    C       -4.07300         1.47100         0.05600
| 30>    C       -4.10600        -2.75600        -0.02600
| 31>    C       -4.99500        -2.75700        -1.11100
| 32>    C       -6.13200        -3.54200        -1.07600
| 33>    C       -7.65100        -5.11300         0.04000
| 34>    C       -4.32400         0.14100         0.03700
| 35>    C       -3.02500        -0.52000        -0.04800
| 36>    C       -4.42200        -3.56600         1.07500
| 37>    N       -6.40700        -4.31300         0.00100
| 38>    C       -2.86700        -1.92200        -0.04000
| 39>    C       -1.65000        -2.62400        -0.02700
| 40>    C        3.56800        -6.14200        -1.04000
| 41>    C       -1.47600        -4.04900        -0.03400
| 42>    C        2.80300        -4.09900        -0.00800
| 43>    C        3.65700        -4.38400         1.06900
| 44>    C        4.42700        -5.53000         1.05900
| 45>    C        5.24500        -7.58800         0.01400
| 46>    C       -0.13400        -4.31500        -0.02200
| 47>    C        0.56800        -3.06400        -0.02700
| 48>    C        2.77500        -5.01200        -1.07400
| 49>    N        4.37600        -6.39100         0.01700
| 50>    C        1.95900        -2.86900        -0.00900
| 51>    C        2.62100        -1.62200         0.00900
| 52>    C        5.54300         4.33900        -1.13000
| 53>    C        4.07000        -1.47900        -0.09400
| 54>    C        4.10400         2.75100        -0.02100
| 55>    C        5.02700         2.72900         1.03600
| 56>    C        6.16600         3.50900         0.97800
| 57>    C        7.61900         5.15300        -0.11500
| 58>    C        4.32100        -0.14800        -0.09200
| 59>    C        3.02500         0.51400         0.01500
| 60>    C        4.38700         3.58200        -1.11500
| 61>    C        2.86600         1.91600         0.01300
| 62>    N        6.41300         4.29600        -0.09500
| 63>    H       -2.86300         7.36600        -0.91700
| 64>    H        2.27400         4.76600         0.08100
| 65>    H       -4.45700         3.19700         1.13100
| 66>    H       -5.80500         5.29000         1.14500
| 67>    H       -5.90300         7.55000        -0.74000
| 68>    H       -5.80600         7.60800         1.04600
| 69>    H       -4.59600         8.47300         0.05800
| 70>    H       -0.33200         5.28200         0.06900
| 71>    H       -1.39700         5.35900        -1.01900
| 72>    H        0.18200         1.07200         0.00500
| 73>    H       -0.18300        -1.08000        -0.02100
| 74>    H       -5.86400        -4.96200         1.89500
| 75>    H       -4.79400         2.27200         0.13900
| 76>    H       -4.80000        -2.16000        -1.99400
| 77>    H       -6.84100        -3.58200        -1.89300
| 78>    H       -8.42800        -4.53600         0.54600
| 79>    H       -7.95600        -5.33700        -0.98100
| 80>    H       -7.45600        -6.03700         0.58400
| 81>    H       -5.28700        -0.34400         0.10000
| 82>    H       -3.78000        -3.60100         1.94700
| 83>    H        3.58700        -6.86800        -1.84300
| 84>    H       -2.27600        -4.77400        -0.05000
| 85>    H        3.71400        -3.72400         1.92600
| 86>    H        5.09200        -5.79500         1.87100
| 87>    H        6.20500        -7.32900        -0.43900
| 88>    H        5.39300        -7.91700         1.04200
| 89>    H        4.75900        -8.37300        -0.56400
| 90>    H        0.32900        -5.29000        -0.00800
| 91>    H        2.14600        -4.84200        -1.94000
| 92>    H        5.80800         4.98600        -1.95600
| 93>    H        4.78800        -2.28100        -0.18500
| 94>    H        4.86000         2.11400         1.91200
| 95>    H        6.90100         3.53100         1.77200
| 96>    H        7.38300         6.10900         0.35600
| 97>    H        8.41400         4.65200         0.43500
| 98>    H        7.92100         5.31000        -1.15000
| 99>    H        5.28300         0.33600        -0.17900
|100>    H        3.72000         3.63200        -1.96700
|101> *
|102>
|103>                          ****END OF INPUT****

CARTESIAN COORDINATES (ANGSTROEM)
---------------------------------
  C     -3.164000    6.418000   -0.489000
  C      1.474000    4.041000    0.057000
  C     -2.802000    4.093000    0.049000
  C     -4.061000    4.093000    0.669000
  C     -4.825000    5.243000    0.687000
  C     -5.231000    7.590000    0.120000
  C      0.132000    4.307000    0.061000
  C     -0.569000    3.056000    0.047000
  C      1.649000    2.618000    0.023000
  C     -2.366000    5.291000   -0.538000
  N     -4.372000    6.384000    0.117000
  N      0.388000    2.067000    0.025000
  N     -2.010000    0.395000   -0.075000
  N     -0.388000   -2.074000   -0.027000
  N      2.010000   -0.401000    0.065000
  C     -1.960000    2.861000    0.024000
  C     -2.623000    1.615000   -0.018000
  C     -5.573000   -4.329000    1.066000
  C     -4.073000    1.471000    0.056000
  C     -4.106000   -2.756000   -0.026000
  C     -4.995000   -2.757000   -1.111000
  C     -6.132000   -3.542000   -1.076000
  C     -7.651000   -5.113000    0.040000
  C     -4.324000    0.141000    0.037000
  C     -3.025000   -0.520000   -0.048000
  C     -4.422000   -3.566000    1.075000
  N     -6.407000   -4.313000    0.001000
  C     -2.867000   -1.922000   -0.040000
  C     -1.650000   -2.624000   -0.027000
  C      3.568000   -6.142000   -1.040000
  C     -1.476000   -4.049000   -0.034000
  C      2.803000   -4.099000   -0.008000
  C      3.657000   -4.384000    1.069000
  C      4.427000   -5.530000    1.059000
  C      5.245000   -7.588000    0.014000
  C     -0.134000   -4.315000   -0.022000
  C      0.568000   -3.064000   -0.027000
  C      2.775000   -5.012000   -1.074000
  N      4.376000   -6.391000    0.017000
  C      1.959000   -2.869000   -0.009000
  C      2.621000   -1.622000    0.009000
  C      5.543000    4.339000   -1.130000
  C      4.070000   -1.479000   -0.094000
  C      4.104000    2.751000   -0.021000
  C      5.027000    2.729000    1.036000
  C      6.166000    3.509000    0.978000
  C      7.619000    5.153000   -0.115000
  C      4.321000   -0.148000   -0.092000
  C      3.025000    0.514000    0.015000
  C      4.387000    3.582000   -1.115000
  C      2.866000    1.916000    0.013000
  N      6.413000    4.296000   -0.095000
  H     -2.863000    7.366000   -0.917000
  H      2.274000    4.766000    0.081000
  H     -4.457000    3.197000    1.131000
  H     -5.805000    5.290000    1.145000
  H     -5.903000    7.550000   -0.740000
  H     -5.806000    7.608000    1.046000
  H     -4.596000    8.473000    0.058000
  H     -0.332000    5.282000    0.069000
  H     -1.397000    5.359000   -1.019000
  H      0.182000    1.072000    0.005000
  H     -0.183000   -1.080000   -0.021000
  H     -5.864000   -4.962000    1.895000
  H     -4.794000    2.272000    0.139000
  H     -4.800000   -2.160000   -1.994000
  H     -6.841000   -3.582000   -1.893000
  H     -8.428000   -4.536000    0.546000
  H     -7.956000   -5.337000   -0.981000
  H     -7.456000   -6.037000    0.584000
  H     -5.287000   -0.344000    0.100000
  H     -3.780000   -3.601000    1.947000
  H      3.587000   -6.868000   -1.843000
  H     -2.276000   -4.774000   -0.050000
  H      3.714000   -3.724000    1.926000
  H      5.092000   -5.795000    1.871000
  H      6.205000   -7.329000   -0.439000
  H      5.393000   -7.917000    1.042000
  H      4.759000   -8.373000   -0.564000
  H      0.329000   -5.290000   -0.008000
  H      2.146000   -4.842000   -1.940000
  H      5.808000    4.986000   -1.956000
  H      4.788000   -2.281000   -0.185000
  H      4.860000    2.114000    1.912000
  H      6.901000    3.531000    1.772000
  H      7.383000    6.109000    0.356000
  H      8.414000    4.652000    0.435000
  H      7.921000    5.310000   -1.150000
  H      5.283000    0.336000   -0.179000
  H      3.720000    3.632000   -1.967000

 Total Charge           Charge          ....    0
 Multiplicity           Mult            ....    1
 Number of Electrons    NEL             ....  358
 Basis Dimension        Dim             ....  918

ORBITAL ENERGIES
----------------

  NO   OCC          E(Eh)            E(eV)
   0   2.0000     -15.672454      -426.4691
   1   2.0000     -15.634520      -425.4369
   2   2.0000     -15.631070      -425.3430
   3   2.0000     -15.592319      -424.2886
   4   2.0000     -15.524424      -422.4411
   5   2.0000     -15.516230      -422.2181
   6   2.0000     -15.452351      -420.4798
   7   2.0000     -15.441365      -420.1809
   8   2.0000     -11.323463      -308.1271
   9   2.0000     -11.323403      -308.1255
  10   2.0000     -11.322059      -308.0889
  11   2.0000     -11.299668      -307.4796
  12   2.0000     -11.297845      -307.4300
  13   2.0000     -11.293089      -307.3006
  14   2.0000     -11.290105      -307.2194
  15   2.0000     -11.287425      -307.1465
  16   2.0000     -11.286276      -307.1152
  17   2.0000     -11.275171      -306.8130
  18   2.0000     -11.273934      -306.7793
  19   2.0000     -11.258242      -306.3523
  20   2.0000     -11.257491      -306.3319
  21   2.0000     -11.257283      -306.3262
  22   2.0000     -11.255289      -306.2720
  23   2.0000     -11.238179      -305.8064
  24   2.0000     -11.235827      -305.7424
  25   2.0000     -11.231596      -305.6273
  26   2.0000     -11.230788      -305.6053
  27   2.0000     -11.229165      -305.5611
  28   2.0000     -11.229069      -305.5585
  29   2.0000     -11.209371      -305.0225
  30   2.0000     -11.208161      -304.9896
  31   2.0000     -11.201060      -304.7963
  32   2.0000     -11.193988      -304.6039
  33   2.0000     -11.191589      -304.5386
  34   2.0000     -11.190494      -304.5088
  35   2.0000     -11.189412      -304.4794
  36   2.0000     -11.188315      -304.4495
  37   2.0000     -11.185600      -304.3756
  38   2.0000     -11.184483      -304.3453
  39   2.0000     -11.172410      -304.0167
  40   2.0000     -11.172059      -304.0072
  41   2.0000     -11.170266      -303.9584
  42   2.0000     -11.166888      -303.8665
  43   2.0000     -11.161467      -303.7190
  44   2.0000     -11.159231      -303.6581
  45   2.0000     -11.158749      -303.6450
  46   2.0000     -11.157797      -303.6191
  47   2.0000     -11.154173      -303.5205
  48   2.0000     -11.148472      -303.3653
  49   2.0000     -11.140342      -303.1441
  50   2.0000     -11.132560      -302.9324
  51   2.0000     -11.123087      -302.6746
  52   2.0000      -1.354147       -36.8482
  53   2.0000      -1.321696       -35.9652
  54   2.0000      -1.318936       -35.8901
  55   2.0000      -1.285894       -34.9910
  56   2.0000      -1.224920       -33.3318
  57   2.0000      -1.210742       -32.9460
  58   2.0000      -1.171254       -31.8714
  59   2.0000      -1.152236       -31.3539
  60   2.0000      -1.138433       -30.9783
  61   2.0000      -1.110576       -30.2203
  62   2.0000      -1.108414       -30.1615
  63   2.0000      -1.081572       -29.4311
  64   2.0000      -1.076294       -29.2875
  65   2.0000      -1.045855       -28.4592
  66   2.0000      -1.043641       -28.3989
  67   2.0000      -1.037643       -28.2357
  68   2.0000      -1.014743       -27.6126
  69   2.0000      -1.014271       -27.5997
  70   2.0000      -1.009768       -27.4772
  71   2.0000      -0.992490       -27.0070
  72   2.0000      -0.987058       -26.8592
  73   2.0000      -0.979390       -26.6506
  74   2.0000      -0.972476       -26.4624
  75   2.0000      -0.960750       -26.1433
  76   2.0000      -0.952981       -25.9319
  77   2.0000      -0.946664       -25.7600
  78   2.0000      -0.935194       -25.4479
  79   2.0000      -0.919580       -25.0231
  80   2.0000      -0.905405       -24.6373
  81   2.0000      -0.893481       -24.3129
  82   2.0000      -0.874409       -23.7939
  83   2.0000      -0.871698       -23.7201
  84   2.0000      -0.868587       -23.6355
  85   2.0000      -0.856702       -23.3121
  86   2.0000      -0.841780       -22.9060
  87   2.0000      -0.836226       -22.7549
  88   2.0000      -0.823974       -22.4215
  89   2.0000      -0.797966       -21.7138
  90   2.0000      -0.792111       -21.5544
  91   2.0000      -0.749616       -20.3981
  92   2.0000      -0.741887       -20.1878
  93   2.0000      -0.732557       -19.9339
  94   2.0000      -0.723830       -19.6964
  95   2.0000      -0.721632       -19.6366
  96   2.0000      -0.715473       -19.4690
  97   2.0000      -0.710509       -19.3339
  98   2.0000      -0.706372       -19.2214
  99   2.0000      -0.696283       -18.9468
 100   2.0000      -0.696092       -18.9416
 101   2.0000      -0.684186       -18.6176
 102   2.0000      -0.679685       -18.4952
 103   2.0000      -0.679132       -18.4801
 104   2.0000      -0.678063       -18.4510
 105   2.0000      -0.673067       -18.3151
 106   2.0000      -0.668823       -18.1996
 107   2.0000      -0.660958       -17.9856
 108   2.0000      -0.655952       -17.8494
 109   2.0000      -0.653508       -17.7828
 110   2.0000      -0.650725       -17.7071
 111   2.0000      -0.643221       -17.5029
 112   2.0000      -0.641013       -17.4428
 113   2.0000      -0.640428       -17.4269
 114   2.0000      -0.637962       -17.3598
 115   2.0000      -0.627431       -17.0733
 116   2.0000      -0.625370       -17.0172
 117   2.0000      -0.618622       -16.8335
 118   2.0000      -0.612865       -16.6769
 119   2.0000      -0.612161       -16.6578
 120   2.0000      -0.610858       -16.6223
 121   2.0000      -0.606754       -16.5106
 122   2.0000      -0.600597       -16.3431
 123   2.0000      -0.586677       -15.9643
 124   2.0000      -0.582221       -15.8430
 125   2.0000      -0.580545       -15.7974
 126   2.0000      -0.579503       -15.7691
 127   2.0000      -0.576102       -15.6765
 128   2.0000      -0.566648       -15.4193
 129   2.0000      -0.559088       -15.2136
 130   2.0000      -0.551493       -15.0069
 131   2.0000      -0.547716       -14.9041
 132   2.0000      -0.542256       -14.7555
 133   2.0000      -0.540075       -14.6962
 134   2.0000      -0.538133       -14.6433
 135   2.0000      -0.535579       -14.5738
 136   2.0000      -0.527750       -14.3608
 137   2.0000      -0.523067       -14.2334
 138   2.0000      -0.516667       -14.0592
 139   2.0000      -0.513761       -13.9801
 140   2.0000      -0.512689       -13.9510
 141   2.0000      -0.511422       -13.9165
 142   2.0000      -0.508999       -13.8506
 143   2.0000      -0.503806       -13.7093
 144   2.0000      -0.501634       -13.6501
 145   2.0000      -0.497183       -13.5290
 146   2.0000      -0.493186       -13.4203
 147   2.0000      -0.484135       -13.1740
 148   2.0000      -0.480344       -13.0708
 149   2.0000      -0.466835       -12.7032
 150   2.0000      -0.465859       -12.6767
 151   2.0000      -0.457163       -12.4400
 152   2.0000      -0.450340       -12.2544
 153   2.0000      -0.445344       -12.1184
 154   2.0000      -0.441835       -12.0229
 155   2.0000      -0.433354       -11.7922
 156   2.0000      -0.429045       -11.6749
 157   2.0000      -0.416471       -11.3327
 158   2.0000      -0.404132       -10.9970
 159   2.0000      -0.388251       -10.5649
 160   2.0000      -0.382869       -10.4184
 161   2.0000      -0.378344       -10.2953
 162   2.0000      -0.370080       -10.0704
 163   2.0000      -0.356991        -9.7142
 164   2.0000      -0.355312        -9.6685
 165   2.0000      -0.340267        -9.2591
 166   2.0000      -0.337418        -9.1816
 167   2.0000      -0.326417        -8.8823
 168   2.0000      -0.325413        -8.8549
 169   2.0000      -0.303719        -8.2646
 170   2.0000      -0.299748        -8.1566
 171   2.0000      -0.286117        -7.7856
 172   2.0000      -0.282218        -7.6795
 173   2.0000      -0.262524        -7.1436
 174   2.0000      -0.243060        -6.6140
 175   2.0000      -0.189800        -5.1647
 176   2.0000      -0.180174        -4.9028
 177   2.0000      -0.075329        -2.0498
 178   2.0000      -0.058257        -1.5853
 179   0.0000       0.028588         0.7779
 180   0.0000       0.066565         1.8113
 181   0.0000       0.091345         2.4856
 182   0.0000       0.109501         2.9797
 183   0.0000       0.111052         3.0219

MULLIKEN ATOMIC CHARGES
-----------------------
   0 C :    0.209892
   1 N :   -0.454773
   2 C :   -0.065306
   3 N :   -0.337098
   4 C :   -0.048007
   5 N :   -0.564256
   6 C :   -0.108041
   7 N :   -0.340116
   8 C :    0.205562
   9 N :   -0.562339
  10 C :    0.118634
  11 N :   -0.438340
  12 C :   -0.082215
  13 N :   -0.431161
  14 C :    0.233950
  15 N :   -0.441032
  16 C :    0.228149
  17 C :   -0.120114
  18 C :   -0.196071
  19 C :    0.226552
  20 C :    0.212616
  21 C :   -0.093164
  22 C :   -0.091052
  23 C :   -0.040730
  24 C :    0.195149
  25 C :    0.114533
  26 C :   -0.080940
  27 C :    0.213287
  28 C :   -0.060528
  29 C :   -0.180471
  30 C :    0.244668
  31 C :    0.227209
  32 C :   -0.062271
  33 C :   -0.063759
  34 C :   -0.050880
  35 C :    0.224399
  36 C :    0.109187
  37 C :   -0.064684
  38 C :    0.232132
  39 C :   -0.058293
  40 C :   -0.182449
  41 C :    0.225233
  42 C :    0.198069
  43 C :   -0.072439
  44 C :   -0.089647
  45 C :   -0.060098
  46 C :    0.210316
  47 C :    0.115421
  48 C :   -0.067972
  49 C :    0.237114
  50 C :   -0.047420
  51 C :   -0.191470
  52 H :    0.040005
  53 H :   -0.016528
  54 H :    0.052954
  55 H :    0.039362
  56 H :    0.050150
  57 H :    0.048682
  58 H :    0.047889
  59 H :    0.001159
  60 H :    0.048284
  61 H :    0.171321
  62 H :    0.175091
  63 H :    0.055321
  64 H :   -0.008572
  65 H :    0.047323
  66 H :    0.055950
  67 H :    0.062326
  68 H :    0.057357
  69 H :    0.056625
  70 H :   -0.029082
  71 H :    0.044978
  72 H :    0.069027
  73 H :   -0.008740
  74 H :    0.058267
  75 H :    0.068375
  76 H :    0.072897
  77 H :    0.066455
  78 H :    0.065743
  79 H :   -0.016121
  80 H :    0.059113
  81 H :    0.054043
  82 H :   -0.024577
  83 H :    0.042110
  84 H :    0.054053
  85 H :    0.060622
  86 H :    0.055639
  87 H :    0.057039
  88 H :   -0.015363
  89 H :    0.045887
Sum of atomic charges:   -0.0000000

LOEWDIN ATOMIC CHARGES
----------------------
   0 C :   -0.019827
   1 N :    0.117852
   2 C :   -0.101224
   3 N :    0.183314
   4 C :   -0.006243
   5 N :   -0.133000
   6 C :   -0.036740
   7 N :    0.175827
   8 C :   -0.022328
   9 N :   -0.140314
  10 C :    0.024418
  11 N :    0.142141
  12 C :   -0.114187
  13 N :    0.162290
  14 C :   -0.028625
  15 N :    0.138614
  16 C :   -0.058465
  17 C :   -0.044499
  18 C :   -0.103487
  19 C :   -0.081889
  20 C :    0.003873
  21 C :   -0.121950
  22 C :    0.036920
  23 C :   -0.015199
  24 C :   -0.011193
  25 C :    0.029861
  26 C :   -0.107561
  27 C :   -0.114123
  28 C :   -0.026832
  29 C :   -0.100716
  30 C :   -0.032035
  31 C :    0.020794
  32 C :   -0.095085
  33 C :    0.075186
  34 C :   -0.015776
  35 C :    0.018610
  36 C :    0.034358
  37 C :   -0.095238
  38 C :   -0.050514
  39 C :   -0.018775
  40 C :   -0.108305
  41 C :   -0.091646
  42 C :   -0.009931
  43 C :   -0.099953
  44 C :    0.033085
  45 C :   -0.027271
  46 C :    0.000793
  47 C :    0.029453
  48 C :   -0.096066
  49 C :   -0.072332
  50 C :   -0.019637
  51 C :   -0.108506
  52 H :    0.023802
  53 H :    0.003125
  54 H :    0.041126
  55 H :    0.023825
  56 H :    0.022026
  57 H :    0.026823
  58 H :    0.027224
  59 H :    0.010568
  60 H :    0.039409
  61 H :    0.060108
  62 H :    0.061657
  63 H :    0.030705
  64 H :    0.005781
  65 H :    0.045907
  66 H :    0.029430
  67 H :    0.028184
  68 H :    0.031681
  69 H :    0.030401
  70 H :   -0.004192
  71 H :    0.043598
  72 H :    0.036640
  73 H :    0.006766
  74 H :    0.049786
  75 H :    0.036234
  76 H :    0.033750
  77 H :    0.035459
  78 H :    0.035141
  79 H :    0.003193
  80 H :    0.049777
  81 H :    0.028964
  82 H :   -0.002574
  83 H :    0.042659
  84 H :    0.029783
  85 H :    0.027261
  86 H :    0.030216
  87 H :    0.031323
  88 H :    0.001965
  89 H :    0.044551

  Mayer bond orders larger than 0.100000
B(  0-C ,  1-N ) :   1.0955 B(  0-C , 17-C ) :   1.6981 B(  0-C , 52-H ) :   0.9672
B(  1-N ,  8-C ) :   1.0875 B(  1-N , 10-C ) :   0.9763 B(  2-C , 12-C ) :   1.5087
B(  2-C , 16-C ) :   1.3547 B(  2-C , 53-H ) :   0.9753 B(  3-N , 14-C ) :   1.2184
B(  3-N , 16-C ) :   1.1898 B(  3-N , 61-H ) :   0.8990 B(  4-C ,  6-C ) :   1.2139
B(  4-C , 17-C ) :   1.2155 B(  4-C , 18-C ) :   1.4292 B(  5-N , 19-C ) :   1.4504
B(  5-N , 27-C ) :   1.3802 B(  6-C ,  8-C ) :   1.7054 B(  6-C , 54-H ) :   0.9530
B(  7-N , 30-C ) :   1.1957 B(  7-N , 38-C ) :   1.1916 B(  7-N , 62-H ) :   0.8970
B(  8-C , 55-H ) :   0.9672 B(  9-N , 41-C ) :   1.3958 B(  9-N , 49-C ) :   1.4243
B( 10-C , 56-H ) :   0.9771 B( 10-C , 57-H ) :   0.9822 B( 10-C , 58-H ) :   0.9843
B( 11-N , 20-C ) :   1.1299 B( 11-N , 24-C ) :   1.1087 B( 11-N , 25-C ) :   0.9600
B( 12-C , 14-C ) :   1.3543 B( 12-C , 59-H ) :   0.9729 B( 13-N , 31-C ) :   1.1553
B( 13-N , 35-C ) :   1.1528 B( 13-N , 36-C ) :   0.9443 B( 14-C , 18-C ) :   1.1334
B( 15-N , 42-C ) :   1.1086 B( 15-N , 46-C ) :   1.1225 B( 15-N , 47-C ) :   0.9615
B( 16-C , 51-C ) :   1.1734 B( 17-C , 60-H ) :   0.9578 B( 18-C , 19-C ) :   1.1383
B( 19-C , 21-C ) :   1.2442 B( 20-C , 28-C ) :   1.6282 B( 20-C , 63-H ) :   0.9703
B( 21-C , 26-C ) :   1.6074 B( 21-C , 64-H ) :   0.9668 B( 22-C , 23-C ) :   1.2886
B( 22-C , 28-C ) :   1.2651 B( 22-C , 29-C ) :   1.2243 B( 23-C , 24-C ) :   1.6201
B( 23-C , 65-H ) :   0.9704 B( 24-C , 66-H ) :   0.9695 B( 25-C , 67-H ) :   0.9760
B( 25-C , 68-H ) :   0.9828 B( 25-C , 69-H ) :   0.9823 B( 26-C , 27-C ) :   1.2411
B( 26-C , 70-H ) :   0.9707 B( 27-C , 29-C ) :   1.2137 B( 28-C , 71-H ) :   0.9719
B( 29-C , 30-C ) :   1.2391 B( 30-C , 32-C ) :   1.2853 B( 31-C , 39-C ) :   1.5948
B( 31-C , 72-H ) :   0.9684 B( 32-C , 37-C ) :   1.5735 B( 32-C , 73-H ) :   0.9785
B( 33-C , 34-C ) :   1.3021 B( 33-C , 39-C ) :   1.2981 B( 33-C , 40-C ) :   1.1875
B( 34-C , 35-C ) :   1.5921 B( 34-C , 74-H ) :   0.9698 B( 35-C , 75-H ) :   0.9684
B( 36-C , 76-H ) :   0.9767 B( 36-C , 77-H ) :   0.9816 B( 36-C , 78-H ) :   0.9824
B( 37-C , 38-C ) :   1.2900 B( 37-C , 79-H ) :   0.9767 B( 38-C , 40-C ) :   1.2291
B( 39-C , 80-H ) :   0.9707 B( 40-C , 41-C ) :   1.2462 B( 41-C , 43-C ) :   1.1887
B( 42-C , 50-C ) :   1.6334 B( 42-C , 81-H ) :   0.9697 B( 43-C , 48-C ) :   1.6638
B( 43-C , 82-H ) :   0.9724 B( 44-C , 45-C ) :   1.2644 B( 44-C , 50-C ) :   1.2714
B( 44-C , 51-C ) :   1.2600 B( 45-C , 46-C ) :   1.6347 B( 45-C , 83-H ) :   0.9717
B( 46-C , 84-H ) :   0.9700 B( 47-C , 85-H ) :   0.9762 B( 47-C , 86-H ) :   0.9829
B( 47-C , 87-H ) :   0.9825 B( 48-C , 49-C ) :   1.1919 B( 48-C , 88-H ) :   0.9747
B( 49-C , 51-C ) :   1.2397 B( 50-C , 89-H ) :   0.9710

MP2 TOTAL ENERGY:    -2130.883974542 Eh
FINAL SINGLE POINT ENERGY     -2130.883974541885

DIPOLE MOMENT
-------------
                                X             Y             Z
Electronic contribution:      2.38028      -3.72587      -0.11544
Nuclear contribution   :     -0.05032       0.15419       0.13738
                        -----------------------------------------
Total Dipole Moment    :      2.32996      -3.57169       0.02194
                        -----------------------------------------
Magnitude (a.u.)       :      4.26452
Magnitude (Debye)      :     10.83955

Rotational constants in cm-1:     0.001502     0.001477     0.000761
Rotational constants in MHz :    45.023401    44.268268    22.802365

                             ****ORCA TERMINATED NORMALLY****
TOTAL RUN TIME: 0 days 1 hours 9 minutes 53 seconds 673 msec
