                         Program Version 5.0.4 -  RELEASE  -
|  1> ! PAL2
|  2> ! mp2 cc-pvdz TightSCF  NoKeepInts
|  3>
|  4> %scf
|  5>   MaxCore 2000
|  6> end
|  7> %mp2
|  8>   MaxCore 2000
|  9> end
| 10> * xyz 0 1
| 11>    C       -3.08500         6.45200         0.47100
| 12>    C        1.47400         4.04100         0.05700
| 13>    C       -2.80200         4.09300         0.04900
| 14>    C       -4.15500         4.05000        -0.32300
| 15>    C       -4.92000         5.19800        -0.28900
| 16>    C       -5.22200         7.59600         0.09600
| 17>    C        0.13200         4.30700         0.06100
| 18>    C       -0.56900         3.05600         0.04700
| 19>    C        1.64900         2.61800         0.02300
| 20>    C       -2.27700         5.33200         0.44800
| 21>    N       -4.38500         6.37600         0.10700
| 22>    N        0.38800         2.06700         0.02500
| 23>    N       -2.01000         0.39500        -0.07500
| 24>    N       -0.38800        -2.07400        -0.02700
| 25>    N        2.01000        -0.40100         0.06500
| 26>    C       -1.96000         2.86100         0.02400
| 27>    C       -2.62300         1.61500        -0.01800
| 28>    C       -5.57300        -4.32900         1.06600
| 29>    C       -4.07300         1.47100         0.05600
| 30>    C       -4.10600        -2.75600        -0.02600
| 31>    C       -4.99500        -2.75700        -1.11100
| 32>    C       -6.13200        -3.54200        -1.07600
| 33>    C       -7.65100        -5.11300         0.04000
| 34>    C       -4.32400         0.14100         0.03700
| 35>    C       -3.02500        -0.52000        -0.04800
| 36>    C       -4.42200        -3.56600         1.07500
| 37>    N       -6.40700        -4.31300         0.00100
| 38>    C       -2.86700        -1.92200        -0.04000
| 39>    C       -1.65000        -2.62400        -0.02700
| 40>    C        3.56800        -6.14200        -1.04000
| 41>    C       -1.47600        -4.04900        -0.03400
| 42>    C        2.80300        -4.09900        -0.00800
| 43>    C        3.65700        -4.38400         1.06900
| 44>    C        4.42700        -5.53000         1.05900
| 45>    C        5.24500        -7.58800         0.01400
| 46>    C       -0.13400        -4.31500        -0.02200
| 47>    C        0.56800        -3.06400        -0.02700
| 48>    C        2.77500        -5.01200        -1.07400
| 49>    N        4.37600        -6.39100         0.01700
| 50>    C        1.95900        -2.86900        -0.00900
| 51>    C        2.62100        -1.62200         0.00900
| 52>    C        5.54300         4.33900        -1.13000
| 53>    C        4.07000        -1.47900        -0.09400
| 54>    C        4.10400         2.75100        -0.02100
| 55>    C        5.02700         2.72900         1.03600
| 56>    C        6.16600         3.50900         0.97800
| 57>    C        7.61900         5.15300        -0.11500
| 58>    C        4.32100        -0.14800        -0.09200
| 59>    C        3.02500         0.51400         0.01500
| 60>    C        4.38700         3.58200        -1.11500
| 61>    C        2.86600         1.91600         0.01300
| 62>    N        6.41300         4.29600        -0.09500
| 63>    H       -2.72500         7.42500         0.78300
| 64>    H        2.27400         4.76600         0.08100
| 65>    H       -4.61500         3.12500        -0.64900
| 66>    H       -5.96400         5.21500        -0.57400
| 67>    H       -5.19400         8.03800        -0.90300
| 68>    H       -6.24400         7.32300         0.35600
| 69>    H       -4.82600         8.30000         0.82800
| 70>    H       -0.33200         5.28200         0.06900
| 71>    H       -1.24300         5.42800         0.76000
| 72>    H        0.18200         1.07200         0.00500
| 73>    H       -0.18300        -1.08000        -0.02100
| 74>    H       -5.86400        -4.96200         1.89500
| 75>    H       -4.79400         2.27200         0.13900
| 76>    H       -4.80000        -2.16000        -1.99400
| 77>    H       -6.84100        -3.58200        -1.89300
| 78>    H       -8.42800        -4.53600         0.54600
| 79>    H       -7.95600        -5.33700        -0.98100
| 80>    H       -7.45600        -6.03700         0.58400
| 81>    H       -5.28700        -0.34400         0.10000
| 82>    H       -3.78000        -3.60100         1.94700
| 83>    H        3.58700        -6.86800        -1.84300
| 84>    H       -2.27600        -4.77400        -0.05000
| 85>    H        3.71400        -3.72400         1.92600
| 86>    H        5.09200        -5.79500         1.87100
| 87>    H        6.20500        -7.32900        -0.43900
| 88>    H        5.39300        -7.91700         1.04200
| 89>    H        4.75900        -8.37300        -0.56400
| 90>    H        0.32900        -5.29000        -0.00800
| 91>    H        2.14600        -4.84200        -1.94000
| 92>    H        5.80800         4.98600        -1.95600
| 93>    H        4.78800        -2.28100        -0.18500
| 94>    H        4.86000         2.11400         1.91200
| 95>    H        6.90100         3.53100         1.77200
| 96>    H        7.38300         6.10900         0.35600
| 97>    H        8.41400         4.65200         0.43500
| 98>    H        7.92100         5.31000        -1.15000
| 99>    H        5.28300         0.33600        -0.17900
|100>    H        3.72000         3.63200        -1.96700
|101> *
|102>
|103>                          ****END OF INPUT****

CARTESIAN COORDINATES (ANGSTROEM)
---------------------------------
  C     -3.085000    6.452000    0.471000
  C      1.474000    4.041000    0.057000
  C     -2.802000    4.093000    0.049000
  C     -4.155000    4.050000   -0.323000
  C     -4.920000    5.198000   -0.289000
  C     -5.222000    7.596000    0.096000
  C      0.132000    4.307000    0.061000
  C     -0.569000    3.056000    0.047000
  C      1.649000    2.618000    0.023000
  C     -2.277000    5.332000    0.448000
  N     -4.385000    6.376000    0.107000
  N      0.388000    2.067000    0.025000
  N     -2.010000    0.395000   -0.075000
  N     -0.388000   -2.074000   -0.027000
  N      2.010000   -0.401000    0.065000
  C     -1.960000    2.861000    0.024000
  C     -2.623000    1.615000   -0.018000
  C     -5.573000   -4.329000    1.066000
  C     -4.073000    1.471000    0.056000
  C     -4.106000   -2.756000   -0.026000
  C     -4.995000   -2.757000   -1.111000
  C     -6.132000   -3.542000   -1.076000
  C     -7.651000   -5.113000    0.040000
  C     -4.324000    0.141000    0.037000
  C     -3.025000   -0.520000   -0.048000
  C     -4.422000   -3.566000    1.075000
  N     -6.407000   -4.313000    0.001000
  C     -2.867000   -1.922000   -0.040000
  C     -1.650000   -2.624000   -0.027000
  C      3.568000   -6.142000   -1.040000
  C     -1.476000   -4.049000   -0.034000
  C      2.803000   -4.099000   -0.008000
  C      3.657000   -4.384000    1.069000
  C      4.427000   -5.530000    1.059000
  C      5.245000   -7.588000    0.014000
  C     -0.134000   -4.315000   -0.022000
  C      0.568000   -3.064000   -0.027000
  C      2.775000   -5.012000   -1.074000
  N      4.376000   -6.391000    0.017000
  C      1.959000   -2.869000   -0.009000
  C      2.621000   -1.622000    0.009000
  C      5.543000    4.339000   -1.130000
  C      4.070000   -1.479000   -0.094000
  C      4.104000    2.751000   -0.021000
  C      5.027000    2.729000    1.036000
  C      6.166000    3.509000    0.978000
  C      7.619000    5.153000   -0.115000
  C      4.321000   -0.148000   -0.092000
  C      3.025000    0.514000    0.015000
  C      4.387000    3.582000   -1.115000
  C      2.866000    1.916000    0.013000
  N      6.413000    4.296000   -0.095000
  H     -2.725000    7.425000    0.783000
  H      2.274000    4.766000    0.081000
  H     -4.615000    3.125000   -0.649000
  H     -5.964000    5.215000   -0.574000
  H     -5.194000    8.038000   -0.903000
  H     -6.244000    7.323000    0.356000
  H     -4.826000    8.300000    0.828000
  H     -0.332000    5.282000    0.069000
  H     -1.243000    5.428000    0.760000
  H      0.182000    1.072000    0.005000
  H     -0.183000   -1.080000   -0.021000
  H     -5.864000   -4.962000    1.895000
  H     -4.794000    2.272000    0.139000
  H     -4.800000   -2.160000   -1.994000
  H     -6.841000   -3.582000   -1.893000
  H     -8.428000   -4.536000    0.546000
  H     -7.956000   -5.337000   -0.981000
  H     -7.456000   -6.037000    0.584000
  H     -5.287000   -0.344000    0.100000
  H     -3.780000   -3.601000    1.947000
  H      3.587000   -6.868000   -1.843000
  H     -2.276000   -4.774000   -0.050000
  H      3.714000   -3.724000    1.926000
  H      5.092000   -5.795000    1.871000
  H      6.205000   -7.329000   -0.439000
  H      5.393000   -7.917000    1.042000
  H      4.759000   -8.373000   -0.564000
  H      0.329000   -5.290000   -0.008000
  H      2.146000   -4.842000   -1.940000
  H      5.808000    4.986000   -1.956000
  H      4.788000   -2.281000   -0.185000
  H      4.860000    2.114000    1.912000
  H      6.901000    3.531000    1.772000
  H      7.383000    6.109000    0.356000
  H      8.414000    4.652000    0.435000
  H      7.921000    5.310000   -1.150000
  H      5.283000    0.336000   -0.179000
  H      3.720000    3.632000   -1.967000

 Total Charge           Charge          ....    0
 Multiplicity           Mult            ....    1
 Number of Electrons    NEL             ....  358
 Basis Dimension        Dim             ....  918

ORBITAL ENERGIES
----------------

  NO   OCC          E(Eh)            E(eV)
   0   2.0000     -15.679079      -426.6494
   1   2.0000     -15.635545      -425.4648
   2   2.0000     -15.630350      -425.3235
   3   2.0000     -15.587358      -424.1536
   4   2.0000     -15.525590      -422.4728
   5   2.0000     -15.515442      -422.1967
   6   2.0000     -15.453349      -420.5070
   7   2.0000     -15.440998      -420.1709
   8   2.0000     -11.329048      -308.2791
   9   2.0000     -11.327530      -308.2378
  10   2.0000     -11.327487      -308.2366
  11   2.0000     -11.300311      -307.4971
  12   2.0000     -11.297425      -307.4186
  13   2.0000     -11.294269      -307.3327
  14   2.0000     -11.289905      -307.2139
  15   2.0000     -11.288056      -307.1636
  16   2.0000     -11.285312      -307.0889
  17   2.0000     -11.281400      -306.9825
  18   2.0000     -11.270075      -306.6743
  19   2.0000     -11.262900      -306.4791
  20   2.0000     -11.261922      -306.4525
  21   2.0000     -11.252581      -306.1983
  22   2.0000     -11.248929      -306.0989
  23   2.0000     -11.239284      -305.8365
  24   2.0000     -11.235179      -305.7248
  25   2.0000     -11.232368      -305.6483
  26   2.0000     -11.231739      -305.6312
  27   2.0000     -11.228644      -305.5469
  28   2.0000     -11.228322      -305.5382
  29   2.0000     -11.211681      -305.0853
  30   2.0000     -11.210214      -305.0454
  31   2.0000     -11.194565      -304.6196
  32   2.0000     -11.191327      -304.5315
  33   2.0000     -11.189996      -304.4953
  34   2.0000     -11.188103      -304.4437
  35   2.0000     -11.187485      -304.4269
  36   2.0000     -11.186173      -304.3912
  37   2.0000     -11.180821      -304.2456
  38   2.0000     -11.179157      -304.2003
  39   2.0000     -11.175083      -304.0895
  40   2.0000     -11.173492      -304.0462
  41   2.0000     -11.169605      -303.9404
  42   2.0000     -11.169243      -303.9306
  43   2.0000     -11.161057      -303.7078
  44   2.0000     -11.160419      -303.6904
  45   2.0000     -11.157644      -303.6149
  46   2.0000     -11.155606      -303.5595
  47   2.0000     -11.154427      -303.5274
  48   2.0000     -11.146139      -303.3019
  49   2.0000     -11.135549      -303.0137
  50   2.0000     -11.130669      -302.8809
  51   2.0000     -11.118670      -302.5544
  52   2.0000      -1.359773       -37.0013
  53   2.0000      -1.322589       -35.9895
  54   2.0000      -1.318339       -35.8738
  55   2.0000      -1.280970       -34.8570
  56   2.0000      -1.226702       -33.3803
  57   2.0000      -1.209864       -32.9221
  58   2.0000      -1.172806       -31.9137
  59   2.0000      -1.151444       -31.3324
  60   2.0000      -1.143143       -31.1065
  61   2.0000      -1.111321       -30.2406
  62   2.0000      -1.107980       -30.1497
  63   2.0000      -1.081519       -29.4296
  64   2.0000      -1.077256       -29.3136
  65   2.0000      -1.046733       -28.4831
  66   2.0000      -1.043049       -28.3828
  67   2.0000      -1.040873       -28.3236
  68   2.0000      -1.015234       -27.6259
  69   2.0000      -1.012051       -27.5393
  70   2.0000      -1.008718       -27.4486
  71   2.0000      -0.994063       -27.0498
  72   2.0000      -0.985678       -26.8217
  73   2.0000      -0.981685       -26.7130
  74   2.0000      -0.972115       -26.4526
  75   2.0000      -0.961421       -26.1616
  76   2.0000      -0.954090       -25.9621
  77   2.0000      -0.945585       -25.7307
  78   2.0000      -0.935700       -25.4617
  79   2.0000      -0.917468       -24.9656
  80   2.0000      -0.909997       -24.7623
  81   2.0000      -0.895873       -24.3780
  82   2.0000      -0.876160       -23.8415
  83   2.0000      -0.873341       -23.7648
  84   2.0000      -0.869352       -23.6563
  85   2.0000      -0.858156       -23.3516
  86   2.0000      -0.839815       -22.8525
  87   2.0000      -0.836333       -22.7578
  88   2.0000      -0.825800       -22.4712
  89   2.0000      -0.796945       -21.6860
  90   2.0000      -0.789430       -21.4815
  91   2.0000      -0.754734       -20.5373
  92   2.0000      -0.750638       -20.4259
  93   2.0000      -0.733885       -19.9700
  94   2.0000      -0.725794       -19.7499
  95   2.0000      -0.723177       -19.6787
  96   2.0000      -0.717707       -19.5298
  97   2.0000      -0.715042       -19.4573
  98   2.0000      -0.709844       -19.3158
  99   2.0000      -0.698245       -19.0002
 100   2.0000      -0.696546       -18.9540
 101   2.0000      -0.686543       -18.6818
 102   2.0000      -0.683937       -18.6109
 103   2.0000      -0.683623       -18.6023
 104   2.0000      -0.679199       -18.4820
 105   2.0000      -0.673626       -18.3303
 106   2.0000      -0.671574       -18.2744
 107   2.0000      -0.660409       -17.9706
 108   2.0000      -0.656659       -17.8686
 109   2.0000      -0.653928       -17.7943
 110   2.0000      -0.650696       -17.7063
 111   2.0000      -0.645627       -17.5684
 112   2.0000      -0.644684       -17.5427
 113   2.0000      -0.637701       -17.3527
 114   2.0000      -0.636669       -17.3246
 115   2.0000      -0.627390       -17.0722
 116   2.0000      -0.621333       -16.9073
 117   2.0000      -0.620783       -16.8924
 118   2.0000      -0.613787       -16.7020
 119   2.0000      -0.613184       -16.6856
 120   2.0000      -0.610956       -16.6250
 121   2.0000      -0.610256       -16.6059
 122   2.0000      -0.599859       -16.3230
 123   2.0000      -0.587004       -15.9732
 124   2.0000      -0.582530       -15.8515
 125   2.0000      -0.580551       -15.7976
 126   2.0000      -0.579340       -15.7646
 127   2.0000      -0.572059       -15.5665
 128   2.0000      -0.569269       -15.4906
 129   2.0000      -0.559464       -15.2238
 130   2.0000      -0.552375       -15.0309
 131   2.0000      -0.547917       -14.9096
 132   2.0000      -0.542916       -14.7735
 133   2.0000      -0.542264       -14.7557
 134   2.0000      -0.539281       -14.6746
 135   2.0000      -0.535123       -14.5614
 136   2.0000      -0.529747       -14.4151
 137   2.0000      -0.519402       -14.1336
 138   2.0000      -0.518232       -14.1018
 139   2.0000      -0.514421       -13.9981
 140   2.0000      -0.511991       -13.9320
 141   2.0000      -0.510625       -13.8948
 142   2.0000      -0.509597       -13.8668
 143   2.0000      -0.503996       -13.7144
 144   2.0000      -0.501204       -13.6385
 145   2.0000      -0.495460       -13.4822
 146   2.0000      -0.491257       -13.3678
 147   2.0000      -0.481843       -13.1116
 148   2.0000      -0.477598       -12.9961
 149   2.0000      -0.467522       -12.7219
 150   2.0000      -0.465985       -12.6801
 151   2.0000      -0.456962       -12.4346
 152   2.0000      -0.451014       -12.2727
 153   2.0000      -0.445558       -12.1242
 154   2.0000      -0.439674       -11.9641
 155   2.0000      -0.427630       -11.6364
 156   2.0000      -0.411798       -11.2056
 157   2.0000      -0.408188       -11.1074
 158   2.0000      -0.402033       -10.9399
 159   2.0000      -0.387245       -10.5375
 160   2.0000      -0.386747       -10.5239
 161   2.0000      -0.377757       -10.2793
 162   2.0000      -0.371323       -10.1042
 163   2.0000      -0.357765        -9.7353
 164   2.0000      -0.354840        -9.6557
 165   2.0000      -0.341332        -9.2881
 166   2.0000      -0.337889        -9.1944
 167   2.0000      -0.325765        -8.8645
 168   2.0000      -0.320784        -8.7290
 169   2.0000      -0.305909        -8.3242
 170   2.0000      -0.299286        -8.1440
 171   2.0000      -0.285008        -7.7555
 172   2.0000      -0.279337        -7.6011
 173   2.0000      -0.263104        -7.1594
 174   2.0000      -0.241841        -6.5808
 175   2.0000      -0.190122        -5.1735
 176   2.0000      -0.180853        -4.9213
 177   2.0000      -0.079001        -2.1497
 178   2.0000      -0.059407        -1.6165
 179   0.0000       0.028173         0.7666
 180   0.0000       0.065253         1.7756
 181   0.0000       0.090509         2.4629
 182   0.0000       0.106673         2.9027
 183   0.0000       0.113981         3.1016

MULLIKEN ATOMIC CHARGES
-----------------------
   0 C :    0.218410
   1 N :   -0.456359
   2 C :   -0.075161
   3 N :   -0.339960
   4 C :   -0.060897
   5 N :   -0.565664
   6 C :   -0.115644
   7 N :   -0.340867
   8 C :    0.209315
   9 N :   -0.562465
  10 C :    0.119087
  11 N :   -0.438159
  12 C :   -0.065666
  13 N :   -0.429504
  14 C :    0.214164
  15 N :   -0.441253
  16 C :    0.232318
  17 C :   -0.128429
  18 C :   -0.155213
  19 C :    0.201711
  20 C :    0.214320
  21 C :   -0.079290
  22 C :   -0.089347
  23 C :   -0.039864
  24 C :    0.194383
  25 C :    0.114396
  26 C :   -0.087524
  27 C :    0.213234
  28 C :   -0.061441
  29 C :   -0.182638
  30 C :    0.246059
  31 C :    0.230637
  32 C :   -0.061365
  33 C :   -0.060625
  34 C :   -0.050462
  35 C :    0.227464
  36 C :    0.108313
  37 C :   -0.064241
  38 C :    0.231724
  39 C :   -0.058302
  40 C :   -0.180903
  41 C :    0.225055
  42 C :    0.197119
  43 C :   -0.072593
  44 C :   -0.090475
  45 C :   -0.061539
  46 C :    0.210819
  47 C :    0.115523
  48 C :   -0.067134
  49 C :    0.238304
  50 C :   -0.046263
  51 C :   -0.194917
  52 H :    0.037257
  53 H :   -0.017818
  54 H :    0.051777
  55 H :    0.034948
  56 H :    0.048666
  57 H :    0.048068
  58 H :    0.046283
  59 H :   -0.003585
  60 H :    0.048164
  61 H :    0.170942
  62 H :    0.175685
  63 H :    0.055869
  64 H :   -0.008803
  65 H :    0.046973
  66 H :    0.056000
  67 H :    0.062955
  68 H :    0.057454
  69 H :    0.056716
  70 H :   -0.029626
  71 H :    0.045413
  72 H :    0.071255
  73 H :   -0.007908
  74 H :    0.060374
  75 H :    0.070620
  76 H :    0.074908
  77 H :    0.067946
  78 H :    0.067172
  79 H :   -0.016285
  80 H :    0.061147
  81 H :    0.054136
  82 H :   -0.025184
  83 H :    0.041346
  84 H :    0.053678
  85 H :    0.060496
  86 H :    0.055237
  87 H :    0.057024
  88 H :   -0.014493
  89 H :    0.047006
Sum of atomic charges:   -0.0000000

LOEWDIN ATOMIC CHARGES
----------------------
   0 C :   -0.018083
   1 N :    0.118266
   2 C :   -0.102410
   3 N :    0.183064
   4 C :   -0.013599
   5 N :   -0.132080
   6 C :   -0.037246
   7 N :    0.175160
   8 C :   -0.025812
   9 N :   -0.140632
  10 C :    0.023139
  11 N :    0.142675
  12 C :   -0.113887
  13 N :    0.166059
  14 C :   -0.022666
  15 N :    0.138131
  16 C :   -0.059266
  17 C :   -0.045464
  18 C :   -0.106192
  19 C :   -0.078442
  20 C :    0.005531
  21 C :   -0.122151
  22 C :    0.038281
  23 C :   -0.014593
  24 C :   -0.011792
  25 C :    0.029995
  26 C :   -0.109245
  27 C :   -0.117165
  28 C :   -0.027138
  29 C :   -0.098842
  30 C :   -0.030442
  31 C :    0.024673
  32 C :   -0.093685
  33 C :    0.081571
  34 C :   -0.014735
  35 C :    0.022200
  36 C :    0.035195
  37 C :   -0.094021
  38 C :   -0.051065
  39 C :   -0.018011
  40 C :   -0.108278
  41 C :   -0.092598
  42 C :   -0.010755
  43 C :   -0.099499
  44 C :    0.032479
  45 C :   -0.028504
  46 C :    0.001088
  47 C :    0.029354
  48 C :   -0.095439
  49 C :   -0.069161
  50 C :   -0.018804
  51 C :   -0.109830
  52 H :    0.022955
  53 H :    0.002498
  54 H :    0.030665
  55 H :    0.022348
  56 H :    0.021534
  57 H :    0.026394
  58 H :    0.026623
  59 H :    0.010184
  60 H :    0.027398
  61 H :    0.060023
  62 H :    0.061955
  63 H :    0.031006
  64 H :    0.008651
  65 H :    0.045840
  66 H :    0.029416
  67 H :    0.028481
  68 H :    0.031730
  69 H :    0.030463
  70 H :   -0.004629
  71 H :    0.043750
  72 H :    0.037708
  73 H :    0.007174
  74 H :    0.050709
  75 H :    0.037300
  76 H :    0.034790
  77 H :    0.036161
  78 H :    0.035816
  79 H :    0.003108
  80 H :    0.050646
  81 H :    0.028975
  82 H :   -0.002893
  83 H :    0.042253
  84 H :    0.029644
  85 H :    0.027197
  86 H :    0.030035
  87 H :    0.031318
  88 H :    0.002385
  89 H :    0.045058

  Mayer bond orders larger than 0.100000
B(  0-C ,  1-N ) :   1.0984 B(  0-C , 17-C ) :   1.7134 B(  0-C , 52-H ) :   0.9636
B(  1-N ,  8-C ) :   1.0851 B(  1-N , 10-C ) :   0.9785 B(  2-C , 12-C ) :   1.4936
B(  2-C , 16-C ) :   1.3673 B(  2-C , 53-H ) :   0.9743 B(  3-N , 14-C ) :   1.2199
B(  3-N , 16-C ) :   1.1857 B(  3-N , 61-H ) :   0.8991 B(  4-C ,  6-C ) :   1.2131
B(  4-C , 17-C ) :   1.2126 B(  4-C , 18-C ) :   1.4648 B(  5-N , 19-C ) :   1.4563
B(  5-N , 27-C ) :   1.3741 B(  6-C ,  8-C ) :   1.7194 B(  6-C , 54-H ) :   0.9250
B(  7-N , 30-C ) :   1.1947 B(  7-N , 38-C ) :   1.1903 B(  7-N , 62-H ) :   0.8966
B(  8-C , 55-H ) :   0.9651 B(  9-N , 41-C ) :   1.3926 B(  9-N , 49-C ) :   1.4273
B( 10-C , 56-H ) :   0.9773 B( 10-C , 57-H ) :   0.9831 B( 10-C , 58-H ) :   0.9835
B( 11-N , 20-C ) :   1.1320 B( 11-N , 24-C ) :   1.1082 B( 11-N , 25-C ) :   0.9596
B( 12-C , 14-C ) :   1.3584 B( 12-C , 59-H ) :   0.9570 B( 13-N , 31-C ) :   1.1619
B( 13-N , 35-C ) :   1.1589 B( 13-N , 36-C ) :   0.9415 B( 14-C , 18-C ) :   1.1200
B( 15-N , 42-C ) :   1.1069 B( 15-N , 46-C ) :   1.1233 B( 15-N , 47-C ) :   0.9618
B( 16-C , 51-C ) :   1.1677 B( 17-C , 60-H ) :   0.9254 B( 18-C , 19-C ) :   1.1188
B( 19-C , 21-C ) :   1.2510 B( 20-C , 28-C ) :   1.6273 B( 20-C , 63-H ) :   0.9702
B( 21-C , 26-C ) :   1.5921 B( 21-C , 64-H ) :   0.9561 B( 22-C , 23-C ) :   1.2905
B( 22-C , 28-C ) :   1.2652 B( 22-C , 29-C ) :   1.2237 B( 23-C , 24-C ) :   1.6188
B( 23-C , 65-H ) :   0.9704 B( 24-C , 66-H ) :   0.9695 B( 25-C , 67-H ) :   0.9760
B( 25-C , 68-H ) :   0.9828 B( 25-C , 69-H ) :   0.9823 B( 26-C , 27-C ) :   1.2526
B( 26-C , 70-H ) :   0.9683 B( 27-C , 29-C ) :   1.2078 B( 28-C , 71-H ) :   0.9720
B( 29-C , 30-C ) :   1.2471 B( 30-C , 32-C ) :   1.2781 B( 31-C , 39-C ) :   1.5883
B( 31-C , 72-H ) :   0.9681 B( 32-C , 37-C ) :   1.5811 B( 32-C , 73-H ) :   0.9786
B( 33-C , 34-C ) :   1.3076 B( 33-C , 39-C ) :   1.3031 B( 33-C , 40-C ) :   1.1758
B( 34-C , 35-C ) :   1.5854 B( 34-C , 74-H ) :   0.9696 B( 35-C , 75-H ) :   0.9681
B( 36-C , 76-H ) :   0.9767 B( 36-C , 77-H ) :   0.9816 B( 36-C , 78-H ) :   0.9823
B( 37-C , 38-C ) :   1.2836 B( 37-C , 79-H ) :   0.9765 B( 38-C , 40-C ) :   1.2349
B( 39-C , 80-H ) :   0.9705 B( 40-C , 41-C ) :   1.2503 B( 41-C , 43-C ) :   1.1859
B( 42-C , 50-C ) :   1.6347 B( 42-C , 81-H ) :   0.9696 B( 43-C , 48-C ) :   1.6666
B( 43-C , 82-H ) :   0.9721 B( 44-C , 45-C ) :   1.2624 B( 44-C , 50-C ) :   1.2709
B( 44-C , 51-C ) :   1.2635 B( 45-C , 46-C ) :   1.6359 B( 45-C , 83-H ) :   0.9719
B( 46-C , 84-H ) :   0.9701 B( 47-C , 85-H ) :   0.9762 B( 47-C , 86-H ) :   0.9829
B( 47-C , 87-H ) :   0.9825 B( 48-C , 49-C ) :   1.1894 B( 48-C , 88-H ) :   0.9749
B( 49-C , 51-C ) :   1.2424 B( 50-C , 89-H ) :   0.9708

MP2 TOTAL ENERGY:    -2130.842879178 Eh
FINAL SINGLE POINT ENERGY     -2130.842879177663

DIPOLE MOMENT
-------------
                                X             Y             Z
Electronic contribution:      2.66061      -4.37131      -0.07161
Nuclear contribution   :     -0.01908       0.17420       0.08257
                        -----------------------------------------
Total Dipole Moment    :      2.64154      -4.19712       0.01096
                        -----------------------------------------
Magnitude (a.u.)       :      4.95920
Magnitude (Debye)      :     12.60527

Rotational constants in cm-1:     0.001503     0.001477     0.000760
Rotational constants in MHz :    45.060183    44.281153    22.789327

                             ****ORCA TERMINATED NORMALLY****
TOTAL RUN TIME: 0 days 1 hours 4 minutes 22 seconds 278 msec
