                         Program Version 5.0.4 -  RELEASE  -
|  1> ! PAL2
|  2> ! mp2 cc-pvdz TightSCF  NoKeepInts
|  3>
|  4> %scf
|  5>   MaxCore 2000
|  6> end
|  7> %mp2
|  8>   MaxCore 2000
|  9> end
| 10> * xyz 0 1
| 11>    C       -4.93200         5.19300         0.33000
| 12>    C        1.47400         4.04100         0.05700
| 13>    C       -2.80200         4.09300         0.04900
| 14>    C       -2.24300         5.35400        -0.21000
| 15>    C       -3.03700         6.48300        -0.18700
| 16>    C       -5.17900         7.62500         0.13000
| 17>    C        0.13200         4.30700         0.06100
| 18>    C       -0.56900         3.05600         0.04700
| 19>    C        1.64900         2.61800         0.02300
| 20>    C       -4.17700         4.03600         0.32500
| 21>    N       -4.36200         6.39300         0.07600
| 22>    N        0.38800         2.06700         0.02500
| 23>    N       -2.01000         0.39500        -0.07500
| 24>    N       -0.38800        -2.07400        -0.02700
| 25>    N        2.01000        -0.40100         0.06500
| 26>    C       -1.96000         2.86100         0.02400
| 27>    C       -2.62300         1.61500        -0.01800
| 28>    C       -5.57300        -4.32900         1.06600
| 29>    C       -4.07300         1.47100         0.05600
| 30>    C       -4.10600        -2.75600        -0.02600
| 31>    C       -4.99500        -2.75700        -1.11100
| 32>    C       -6.13200        -3.54200        -1.07600
| 33>    C       -7.65100        -5.11300         0.04000
| 34>    C       -4.32400         0.14100         0.03700
| 35>    C       -3.02500        -0.52000        -0.04800
| 36>    C       -4.42200        -3.56600         1.07500
| 37>    N       -6.40700        -4.31300         0.00100
| 38>    C       -2.86700        -1.92200        -0.04000
| 39>    C       -1.65000        -2.62400        -0.02700
| 40>    C        3.56800        -6.14200        -1.04000
| 41>    C       -1.47600        -4.04900        -0.03400
| 42>    C        2.80300        -4.09900        -0.00800
| 43>    C        3.65700        -4.38400         1.06900
| 44>    C        4.42700        -5.53000         1.05900
| 45>    C        5.24500        -7.58800         0.01400
| 46>    C       -0.13400        -4.31500        -0.02200
| 47>    C        0.56800        -3.06400        -0.02700
| 48>    C        2.77500        -5.01200        -1.07400
| 49>    N        4.37600        -6.39100         0.01700
| 50>    C        1.95900        -2.86900        -0.00900
| 51>    C        2.62100        -1.62200         0.00900
| 52>    C        5.54300         4.33900        -1.13000
| 53>    C        4.07000        -1.47900        -0.09400
| 54>    C        4.10400         2.75100        -0.02100
| 55>    C        5.02700         2.72900         1.03600
| 56>    C        6.16600         3.50900         0.97800
| 57>    C        7.61900         5.15300        -0.11500
| 58>    C        4.32100        -0.14800        -0.09200
| 59>    C        3.02500         0.51400         0.01500
| 60>    C        4.38700         3.58200        -1.11500
| 61>    C        2.86600         1.91600         0.01300
| 62>    N        6.41300         4.29600        -0.09500
| 63>    H       -5.99700         5.19500         0.52600
| 64>    H        2.27400         4.76600         0.08100
| 65>    H       -1.18600         5.46400        -0.42000
| 66>    H       -2.65000         7.47600        -0.37200
| 67>    H       -5.11400         8.05100         1.13400
| 68>    H       -4.79400         8.33400        -0.60300
| 69>    H       -6.21200         7.37100        -0.10300
| 70>    H       -0.33200         5.28200         0.06900
| 71>    H       -4.67000         3.09000         0.51900
| 72>    H        0.18200         1.07200         0.00500
| 73>    H       -0.18300        -1.08000        -0.02100
| 74>    H       -5.86400        -4.96200         1.89500
| 75>    H       -4.79400         2.27200         0.13900
| 76>    H       -4.80000        -2.16000        -1.99400
| 77>    H       -6.84100        -3.58200        -1.89300
| 78>    H       -8.42800        -4.53600         0.54600
| 79>    H       -7.95600        -5.33700        -0.98100
| 80>    H       -7.45600        -6.03700         0.58400
| 81>    H       -5.28700        -0.34400         0.10000
| 82>    H       -3.78000        -3.60100         1.94700
| 83>    H        3.58700        -6.86800        -1.84300
| 84>    H       -2.27600        -4.77400        -0.05000
| 85>    H        3.71400        -3.72400         1.92600
| 86>    H        5.09200        -5.79500         1.87100
| 87>    H        6.20500        -7.32900        -0.43900
| 88>    H        5.39300        -7.91700         1.04200
| 89>    H        4.75900        -8.37300        -0.56400
| 90>    H        0.32900        -5.29000        -0.00800
| 91>    H        2.14600        -4.84200        -1.94000
| 92>    H        5.80800         4.98600        -1.95600
| 93>    H        4.78800        -2.28100        -0.18500
| 94>    H        4.86000         2.11400         1.91200
| 95>    H        6.90100         3.53100         1.77200
| 96>    H        7.38300         6.10900         0.35600
| 97>    H        8.41400         4.65200         0.43500
| 98>    H        7.92100         5.31000        -1.15000
| 99>    H        5.28300         0.33600        -0.17900
|100>    H        3.72000         3.63200        -1.96700
|101> *
|102>
|103>                          ****END OF INPUT****

CARTESIAN COORDINATES (ANGSTROEM)
---------------------------------
  C     -4.932000    5.193000    0.330000
  C      1.474000    4.041000    0.057000
  C     -2.802000    4.093000    0.049000
  C     -2.243000    5.354000   -0.210000
  C     -3.037000    6.483000   -0.187000
  C     -5.179000    7.625000    0.130000
  C      0.132000    4.307000    0.061000
  C     -0.569000    3.056000    0.047000
  C      1.649000    2.618000    0.023000
  C     -4.177000    4.036000    0.325000
  N     -4.362000    6.393000    0.076000
  N      0.388000    2.067000    0.025000
  N     -2.010000    0.395000   -0.075000
  N     -0.388000   -2.074000   -0.027000
  N      2.010000   -0.401000    0.065000
  C     -1.960000    2.861000    0.024000
  C     -2.623000    1.615000   -0.018000
  C     -5.573000   -4.329000    1.066000
  C     -4.073000    1.471000    0.056000
  C     -4.106000   -2.756000   -0.026000
  C     -4.995000   -2.757000   -1.111000
  C     -6.132000   -3.542000   -1.076000
  C     -7.651000   -5.113000    0.040000
  C     -4.324000    0.141000    0.037000
  C     -3.025000   -0.520000   -0.048000
  C     -4.422000   -3.566000    1.075000
  N     -6.407000   -4.313000    0.001000
  C     -2.867000   -1.922000   -0.040000
  C     -1.650000   -2.624000   -0.027000
  C      3.568000   -6.142000   -1.040000
  C     -1.476000   -4.049000   -0.034000
  C      2.803000   -4.099000   -0.008000
  C      3.657000   -4.384000    1.069000
  C      4.427000   -5.530000    1.059000
  C      5.245000   -7.588000    0.014000
  C     -0.134000   -4.315000   -0.022000
  C      0.568000   -3.064000   -0.027000
  C      2.775000   -5.012000   -1.074000
  N      4.376000   -6.391000    0.017000
  C      1.959000   -2.869000   -0.009000
  C      2.621000   -1.622000    0.009000
  C      5.543000    4.339000   -1.130000
  C      4.070000   -1.479000   -0.094000
  C      4.104000    2.751000   -0.021000
  C      5.027000    2.729000    1.036000
  C      6.166000    3.509000    0.978000
  C      7.619000    5.153000   -0.115000
  C      4.321000   -0.148000   -0.092000
  C      3.025000    0.514000    0.015000
  C      4.387000    3.582000   -1.115000
  C      2.866000    1.916000    0.013000
  N      6.413000    4.296000   -0.095000
  H     -5.997000    5.195000    0.526000
  H      2.274000    4.766000    0.081000
  H     -1.186000    5.464000   -0.420000
  H     -2.650000    7.476000   -0.372000
  H     -5.114000    8.051000    1.134000
  H     -4.794000    8.334000   -0.603000
  H     -6.212000    7.371000   -0.103000
  H     -0.332000    5.282000    0.069000
  H     -4.670000    3.090000    0.519000
  H      0.182000    1.072000    0.005000
  H     -0.183000   -1.080000   -0.021000
  H     -5.864000   -4.962000    1.895000
  H     -4.794000    2.272000    0.139000
  H     -4.800000   -2.160000   -1.994000
  H     -6.841000   -3.582000   -1.893000
  H     -8.428000   -4.536000    0.546000
  H     -7.956000   -5.337000   -0.981000
  H     -7.456000   -6.037000    0.584000
  H     -5.287000   -0.344000    0.100000
  H     -3.780000   -3.601000    1.947000
  H      3.587000   -6.868000   -1.843000
  H     -2.276000   -4.774000   -0.050000
  H      3.714000   -3.724000    1.926000
  H      5.092000   -5.795000    1.871000
  H      6.205000   -7.329000   -0.439000
  H      5.393000   -7.917000    1.042000
  H      4.759000   -8.373000   -0.564000
  H      0.329000   -5.290000   -0.008000
  H      2.146000   -4.842000   -1.940000
  H      5.808000    4.986000   -1.956000
  H      4.788000   -2.281000   -0.185000
  H      4.860000    2.114000    1.912000
  H      6.901000    3.531000    1.772000
  H      7.383000    6.109000    0.356000
  H      8.414000    4.652000    0.435000
  H      7.921000    5.310000   -1.150000
  H      5.283000    0.336000   -0.179000
  H      3.720000    3.632000   -1.967000

 Total Charge           Charge          ....    0
 Multiplicity           Mult            ....    1
 Number of Electrons    NEL             ....  358
 Basis Dimension        Dim             ....  918

ORBITAL ENERGIES
----------------

  NO   OCC          E(Eh)            E(eV)
   0   2.0000     -15.679624      -426.6643
   1   2.0000     -15.633575      -425.4112
   2   2.0000     -15.632230      -425.3746
   3   2.0000     -15.588289      -424.1789
   4   2.0000     -15.525028      -422.4575
   5   2.0000     -15.515665      -422.2027
   6   2.0000     -15.453871      -420.5212
   7   2.0000     -15.439587      -420.1325
   8   2.0000     -11.329240      -308.2843
   9   2.0000     -11.328260      -308.2576
  10   2.0000     -11.327826      -308.2458
  11   2.0000     -11.299073      -307.4634
  12   2.0000     -11.298616      -307.4510
  13   2.0000     -11.292677      -307.2894
  14   2.0000     -11.291528      -307.2581
  15   2.0000     -11.286915      -307.1326
  16   2.0000     -11.286177      -307.1125
  17   2.0000     -11.281881      -306.9956
  18   2.0000     -11.269929      -306.6703
  19   2.0000     -11.263243      -306.4884
  20   2.0000     -11.262248      -306.4613
  21   2.0000     -11.251174      -306.1600
  22   2.0000     -11.249818      -306.1231
  23   2.0000     -11.237344      -305.7837
  24   2.0000     -11.236992      -305.7741
  25   2.0000     -11.230832      -305.6065
  26   2.0000     -11.230065      -305.5856
  27   2.0000     -11.230036      -305.5848
  28   2.0000     -11.229881      -305.5806
  29   2.0000     -11.210896      -305.0640
  30   2.0000     -11.209527      -305.0267
  31   2.0000     -11.194471      -304.6170
  32   2.0000     -11.191550      -304.5376
  33   2.0000     -11.191403      -304.5336
  34   2.0000     -11.188504      -304.4547
  35   2.0000     -11.188342      -304.4503
  36   2.0000     -11.187114      -304.4168
  37   2.0000     -11.176794      -304.1360
  38   2.0000     -11.174564      -304.0753
  39   2.0000     -11.172274      -304.0130
  40   2.0000     -11.171939      -304.0039
  41   2.0000     -11.170923      -303.9763
  42   2.0000     -11.168194      -303.9020
  43   2.0000     -11.161960      -303.7324
  44   2.0000     -11.160473      -303.6919
  45   2.0000     -11.156782      -303.5915
  46   2.0000     -11.156556      -303.5853
  47   2.0000     -11.152458      -303.4738
  48   2.0000     -11.147003      -303.3254
  49   2.0000     -11.135323      -303.0075
  50   2.0000     -11.129461      -302.8480
  51   2.0000     -11.117263      -302.5161
  52   2.0000      -1.360236       -37.0139
  53   2.0000      -1.320872       -35.9427
  54   2.0000      -1.319962       -35.9180
  55   2.0000      -1.280709       -34.8499
  56   2.0000      -1.226084       -33.3634
  57   2.0000      -1.210414       -32.9370
  58   2.0000      -1.173530       -31.9334
  59   2.0000      -1.150608       -31.3096
  60   2.0000      -1.143535       -31.1172
  61   2.0000      -1.110228       -30.2108
  62   2.0000      -1.108977       -30.1768
  63   2.0000      -1.081937       -29.4410
  64   2.0000      -1.077563       -29.3220
  65   2.0000      -1.045064       -28.4376
  66   2.0000      -1.044602       -28.4251
  67   2.0000      -1.041051       -28.3284
  68   2.0000      -1.014926       -27.6175
  69   2.0000      -1.013632       -27.5823
  70   2.0000      -1.009095       -27.4589
  71   2.0000      -0.993470       -27.0337
  72   2.0000      -0.985718       -26.8228
  73   2.0000      -0.981682       -26.7129
  74   2.0000      -0.973274       -26.4841
  75   2.0000      -0.962172       -26.1820
  76   2.0000      -0.954697       -25.9786
  77   2.0000      -0.946029       -25.7428
  78   2.0000      -0.937758       -25.5177
  79   2.0000      -0.917076       -24.9549
  80   2.0000      -0.910414       -24.7736
  81   2.0000      -0.897087       -24.4110
  82   2.0000      -0.876702       -23.8563
  83   2.0000      -0.872014       -23.7287
  84   2.0000      -0.870789       -23.6954
  85   2.0000      -0.860089       -23.4042
  86   2.0000      -0.843632       -22.9564
  87   2.0000      -0.836451       -22.7610
  88   2.0000      -0.827876       -22.5276
  89   2.0000      -0.796635       -21.6775
  90   2.0000      -0.789245       -21.4764
  91   2.0000      -0.765423       -20.8282
  92   2.0000      -0.752814       -20.4851
  93   2.0000      -0.733673       -19.9643
  94   2.0000      -0.727118       -19.7859
  95   2.0000      -0.724267       -19.7083
  96   2.0000      -0.719321       -19.5737
  97   2.0000      -0.717067       -19.5124
  98   2.0000      -0.713028       -19.4025
  99   2.0000      -0.698283       -19.0012
 100   2.0000      -0.697869       -18.9900
 101   2.0000      -0.693300       -18.8656
 102   2.0000      -0.685247       -18.6465
 103   2.0000      -0.684206       -18.6182
 104   2.0000      -0.678766       -18.4702
 105   2.0000      -0.674464       -18.3531
 106   2.0000      -0.672568       -18.3015
 107   2.0000      -0.660639       -17.9769
 108   2.0000      -0.658130       -17.9086
 109   2.0000      -0.652747       -17.7622
 110   2.0000      -0.652130       -17.7454
 111   2.0000      -0.646050       -17.5799
 112   2.0000      -0.645461       -17.5639
 113   2.0000      -0.637780       -17.3549
 114   2.0000      -0.636298       -17.3146
 115   2.0000      -0.628371       -17.0988
 116   2.0000      -0.622859       -16.9489
 117   2.0000      -0.621109       -16.9012
 118   2.0000      -0.613075       -16.6826
 119   2.0000      -0.612044       -16.6546
 120   2.0000      -0.611830       -16.6487
 121   2.0000      -0.611220       -16.6321
 122   2.0000      -0.601310       -16.3625
 123   2.0000      -0.588370       -16.0104
 124   2.0000      -0.581421       -15.8213
 125   2.0000      -0.580949       -15.8084
 126   2.0000      -0.580198       -15.7880
 127   2.0000      -0.571159       -15.5420
 128   2.0000      -0.567678       -15.4473
 129   2.0000      -0.559879       -15.2351
 130   2.0000      -0.554570       -15.0906
 131   2.0000      -0.547897       -14.9090
 132   2.0000      -0.542694       -14.7675
 133   2.0000      -0.540920       -14.7192
 134   2.0000      -0.538590       -14.6558
 135   2.0000      -0.536216       -14.5912
 136   2.0000      -0.531484       -14.4624
 137   2.0000      -0.519119       -14.1259
 138   2.0000      -0.516757       -14.0617
 139   2.0000      -0.514819       -14.0089
 140   2.0000      -0.512121       -13.9355
 141   2.0000      -0.510218       -13.8837
 142   2.0000      -0.508313       -13.8319
 143   2.0000      -0.504724       -13.7342
 144   2.0000      -0.502594       -13.6763
 145   2.0000      -0.495954       -13.4956
 146   2.0000      -0.488835       -13.3019
 147   2.0000      -0.481673       -13.1070
 148   2.0000      -0.477436       -12.9917
 149   2.0000      -0.467645       -12.7253
 150   2.0000      -0.466386       -12.6910
 151   2.0000      -0.456712       -12.4278
 152   2.0000      -0.451594       -12.2885
 153   2.0000      -0.444836       -12.1046
 154   2.0000      -0.438595       -11.9348
 155   2.0000      -0.427561       -11.6345
 156   2.0000      -0.409697       -11.1484
 157   2.0000      -0.399198       -10.8627
 158   2.0000      -0.390572       -10.6280
 159   2.0000      -0.387548       -10.5457
 160   2.0000      -0.378593       -10.3020
 161   2.0000      -0.376778       -10.2527
 162   2.0000      -0.368319       -10.0225
 163   2.0000      -0.356496        -9.7008
 164   2.0000      -0.356019        -9.6878
 165   2.0000      -0.341924        -9.3042
 166   2.0000      -0.337676        -9.1886
 167   2.0000      -0.324598        -8.8328
 168   2.0000      -0.321438        -8.7468
 169   2.0000      -0.305258        -8.3065
 170   2.0000      -0.299435        -8.1481
 171   2.0000      -0.285610        -7.7718
 172   2.0000      -0.278872        -7.5885
 173   2.0000      -0.263693        -7.1755
 174   2.0000      -0.241653        -6.5757
 175   2.0000      -0.189999        -5.1701
 176   2.0000      -0.181060        -4.9269
 177   2.0000      -0.079448        -2.1619
 178   2.0000      -0.059628        -1.6226
 179   0.0000       0.028328         0.7709
 180   0.0000       0.065340         1.7780
 181   0.0000       0.090250         2.4558
 182   0.0000       0.106359         2.8942
 183   0.0000       0.115245         3.1360

MULLIKEN ATOMIC CHARGES
-----------------------
   0 C :    0.214195
   1 N :   -0.455888
   2 C :   -0.073255
   3 N :   -0.341126
   4 C :   -0.067837
   5 N :   -0.567955
   6 C :   -0.115398
   7 N :   -0.340900
   8 C :    0.216916
   9 N :   -0.562268
  10 C :    0.119475
  11 N :   -0.438520
  12 C :   -0.056440
  13 N :   -0.429388
  14 C :    0.220524
  15 N :   -0.440854
  16 C :    0.231392
  17 C :   -0.107647
  18 C :   -0.181603
  19 C :    0.215486
  20 C :    0.213541
  21 C :   -0.061713
  22 C :   -0.090985
  23 C :   -0.039472
  24 C :    0.193414
  25 C :    0.114653
  26 C :   -0.089157
  27 C :    0.216291
  28 C :   -0.061827
  29 C :   -0.181690
  30 C :    0.245925
  31 C :    0.230118
  32 C :   -0.061685
  33 C :   -0.060160
  34 C :   -0.051335
  35 C :    0.228667
  36 C :    0.108228
  37 C :   -0.064331
  38 C :    0.230969
  39 C :   -0.057531
  40 C :   -0.181511
  41 C :    0.226136
  42 C :    0.197486
  43 C :   -0.072396
  44 C :   -0.089195
  45 C :   -0.061520
  46 C :    0.211974
  47 C :    0.115285
  48 C :   -0.066710
  49 C :    0.238873
  50 C :   -0.046269
  51 C :   -0.193096
  52 H :    0.035568
  53 H :   -0.017872
  54 H :    0.042771
  55 H :    0.034102
  56 H :    0.049390
  57 H :    0.046746
  58 H :    0.047320
  59 H :   -0.010935
  60 H :    0.046064
  61 H :    0.171239
  62 H :    0.175472
  63 H :    0.055092
  64 H :   -0.029888
  65 H :    0.047133
  66 H :    0.055482
  67 H :    0.062285
  68 H :    0.057137
  69 H :    0.056228
  70 H :   -0.030628
  71 H :    0.044569
  72 H :    0.071404
  73 H :   -0.007948
  74 H :    0.060484
  75 H :    0.070863
  76 H :    0.075023
  77 H :    0.068068
  78 H :    0.067385
  79 H :   -0.016727
  80 H :    0.061439
  81 H :    0.054529
  82 H :   -0.024864
  83 H :    0.042145
  84 H :    0.054434
  85 H :    0.061101
  86 H :    0.055680
  87 H :    0.057343
  88 H :   -0.014399
  89 H :    0.046880
Sum of atomic charges:   -0.0000000

LOEWDIN ATOMIC CHARGES
----------------------
   0 C :   -0.020741
   1 N :    0.120824
   2 C :   -0.101014
   3 N :    0.182671
   4 C :   -0.011592
   5 N :   -0.134391
   6 C :   -0.033088
   7 N :    0.175097
   8 C :   -0.019196
   9 N :   -0.140645
  10 C :    0.022961
  11 N :    0.141676
  12 C :   -0.107339
  13 N :    0.166366
  14 C :   -0.017555
  15 N :    0.139116
  16 C :   -0.060573
  17 C :   -0.023582
  18 C :   -0.111033
  19 C :   -0.074707
  20 C :    0.004582
  21 C :   -0.105747
  22 C :    0.036832
  23 C :   -0.014476
  24 C :   -0.012964
  25 C :    0.029747
  26 C :   -0.108329
  27 C :   -0.116895
  28 C :   -0.027828
  29 C :   -0.099778
  30 C :   -0.029557
  31 C :    0.024299
  32 C :   -0.094464
  33 C :    0.082180
  34 C :   -0.015222
  35 C :    0.023358
  36 C :    0.035267
  37 C :   -0.094030
  38 C :   -0.052522
  39 C :   -0.017468
  40 C :   -0.108676
  41 C :   -0.090980
  42 C :   -0.010208
  43 C :   -0.099150
  44 C :    0.034219
  45 C :   -0.028126
  46 C :    0.002377
  47 C :    0.029584
  48 C :   -0.094648
  49 C :   -0.069275
  50 C :   -0.018630
  51 C :   -0.108651
  52 H :    0.022376
  53 H :    0.002547
  54 H :    0.010162
  55 H :    0.021995
  56 H :    0.021927
  57 H :    0.025971
  58 H :    0.026924
  59 H :    0.006760
  60 H :   -0.000090
  61 H :    0.060201
  62 H :    0.061874
  63 H :    0.030648
  64 H :   -0.002256
  65 H :    0.045913
  66 H :    0.029163
  67 H :    0.028151
  68 H :    0.031582
  69 H :    0.030229
  70 H :   -0.004981
  71 H :    0.043366
  72 H :    0.037749
  73 H :    0.007162
  74 H :    0.050709
  75 H :    0.037453
  76 H :    0.034858
  77 H :    0.036219
  78 H :    0.035911
  79 H :    0.002902
  80 H :    0.050814
  81 H :    0.029149
  82 H :   -0.002738
  83 H :    0.042599
  84 H :    0.030006
  85 H :    0.027498
  86 H :    0.030247
  87 H :    0.031466
  88 H :    0.002431
  89 H :    0.045027

  Mayer bond orders larger than 0.100000
B(  0-C ,  1-N ) :   1.0931 B(  0-C , 17-C ) :   1.7204 B(  0-C , 52-H ) :   0.9621
B(  1-N ,  8-C ) :   1.0964 B(  1-N , 10-C ) :   0.9774 B(  2-C , 12-C ) :   1.4897
B(  2-C , 16-C ) :   1.3713 B(  2-C , 53-H ) :   0.9724 B(  3-N , 14-C ) :   1.2217
B(  3-N , 16-C ) :   1.1808 B(  3-N , 61-H ) :   0.8986 B(  4-C ,  6-C ) :   1.2181
B(  4-C , 17-C ) :   1.2165 B(  4-C , 18-C ) :   1.4718 B(  5-N , 19-C ) :   1.4593
B(  5-N , 27-C ) :   1.3711 B(  6-C ,  8-C ) :   1.7146 B(  6-C , 54-H ) :   0.9017
B(  7-N , 30-C ) :   1.1956 B(  7-N , 38-C ) :   1.1894 B(  7-N , 62-H ) :   0.8968
B(  8-C , 55-H ) :   0.9634 B(  9-N , 41-C ) :   1.3945 B(  9-N , 49-C ) :   1.4249
B( 10-C , 56-H ) :   0.9776 B( 10-C , 57-H ) :   0.9823 B( 10-C , 58-H ) :   0.9841
B( 11-N , 20-C ) :   1.1310 B( 11-N , 24-C ) :   1.1065 B( 11-N , 25-C ) :   0.9604
B( 12-C , 14-C ) :   1.3578 B( 12-C , 59-H ) :   0.9368 B( 13-N , 31-C ) :   1.1614
B( 13-N , 35-C ) :   1.1606 B( 13-N , 36-C ) :   0.9413 B( 14-C , 18-C ) :   1.1195
B( 15-N , 42-C ) :   1.1081 B( 15-N , 46-C ) :   1.1249 B( 15-N , 47-C ) :   0.9610
B( 16-C , 51-C ) :   1.1678 B( 17-C , 60-H ) :   0.8834 B( 18-C , 19-C ) :   1.1185
B( 19-C , 21-C ) :   1.2531 B( 20-C , 28-C ) :   1.6291 B( 20-C , 63-H ) :   0.9703
B( 21-C , 26-C ) :   1.5812 B( 21-C , 64-H ) :   0.9164 B( 22-C , 23-C ) :   1.2891
B( 22-C , 28-C ) :   1.2633 B( 22-C , 29-C ) :   1.2261 B( 23-C , 24-C ) :   1.6206
B( 23-C , 65-H ) :   0.9703 B( 24-C , 66-H ) :   0.9695 B( 25-C , 67-H ) :   0.9761
B( 25-C , 68-H ) :   0.9828 B( 25-C , 69-H ) :   0.9823 B( 26-C , 27-C ) :   1.2612
B( 26-C , 70-H ) :   0.9676 B( 27-C , 29-C ) :   1.2060 B( 28-C , 71-H ) :   0.9720
B( 29-C , 30-C ) :   1.2468 B( 30-C , 32-C ) :   1.2789 B( 31-C , 39-C ) :   1.5876
B( 31-C , 72-H ) :   0.9681 B( 32-C , 37-C ) :   1.5797 B( 32-C , 73-H ) :   0.9786
B( 33-C , 34-C ) :   1.3069 B( 33-C , 39-C ) :   1.3043 B( 33-C , 40-C ) :   1.1761
B( 34-C , 35-C ) :   1.5853 B( 34-C , 74-H ) :   0.9696 B( 35-C , 75-H ) :   0.9681
B( 36-C , 76-H ) :   0.9768 B( 36-C , 77-H ) :   0.9816 B( 36-C , 78-H ) :   0.9823
B( 37-C , 38-C ) :   1.2851 B( 37-C , 79-H ) :   0.9764 B( 38-C , 40-C ) :   1.2339
B( 39-C , 80-H ) :   0.9705 B( 40-C , 41-C ) :   1.2507 B( 41-C , 43-C ) :   1.1840
B( 42-C , 50-C ) :   1.6325 B( 42-C , 81-H ) :   0.9696 B( 43-C , 48-C ) :   1.6689
B( 43-C , 82-H ) :   0.9721 B( 44-C , 45-C ) :   1.2639 B( 44-C , 50-C ) :   1.2730
B( 44-C , 51-C ) :   1.2600 B( 45-C , 46-C ) :   1.6341 B( 45-C , 83-H ) :   0.9718
B( 46-C , 84-H ) :   0.9700 B( 47-C , 85-H ) :   0.9762 B( 47-C , 86-H ) :   0.9829
B( 47-C , 87-H ) :   0.9824 B( 48-C , 49-C ) :   1.1875 B( 48-C , 88-H ) :   0.9748
B( 49-C , 51-C ) :   1.2451 B( 50-C , 89-H ) :   0.9708

MP2 TOTAL ENERGY:    -2130.789231734 Eh
FINAL SINGLE POINT ENERGY     -2130.789231734336

DIPOLE MOMENT
-------------
                                X             Y             Z
Electronic contribution:      2.76995      -4.33331      -0.18791
Nuclear contribution   :      0.07305       0.23440       0.18552
                        -----------------------------------------
Total Dipole Moment    :      2.84300      -4.09892      -0.00239
                        -----------------------------------------
Magnitude (a.u.)       :      4.98837
Magnitude (Debye)      :     12.67942

Rotational constants in cm-1:     0.001501     0.001479     0.000760
Rotational constants in MHz :    45.007009    44.350531    22.784070

                             ****ORCA TERMINATED NORMALLY****
TOTAL RUN TIME: 0 days 1 hours 19 minutes 30 seconds 459 msec
