                         Program Version 5.0.4 -  RELEASE  -
|  1> ! PAL2
|  2> ! mp2 cc-pvdz TightSCF  NoKeepInts
|  3>
|  4> %scf
|  5>   MaxCore 2000
|  6> end
|  7> %mp2
|  8>   MaxCore 2000
|  9> end
| 10> * xyz 0 1
| 11>    C       -4.13100         5.72200         1.23500
| 12>    C        1.47400         4.04100         0.05700
| 13>    C       -2.80200         4.09300         0.04900
| 14>    C       -3.08200         4.79900        -1.13100
| 15>    C       -3.86600         5.93400        -1.09000
| 16>    C       -5.18800         7.62000         0.09500
| 17>    C        0.13200         4.30700         0.06100
| 18>    C       -0.56900         3.05600         0.04700
| 19>    C        1.64900         2.61800         0.02300
| 20>    C       -3.34600         4.58500         1.24500
| 21>    N       -4.38200         6.37900         0.07900
| 22>    N        0.38800         2.06700         0.02500
| 23>    N       -2.01000         0.39500        -0.07500
| 24>    N       -0.38800        -2.07400        -0.02700
| 25>    N        2.01000        -0.40100         0.06500
| 26>    C       -1.96000         2.86100         0.02400
| 27>    C       -2.62300         1.61500        -0.01800
| 28>    C       -5.57300        -4.32900         1.06600
| 29>    C       -4.07300         1.47100         0.05600
| 30>    C       -4.10600        -2.75600        -0.02600
| 31>    C       -4.99500        -2.75700        -1.11100
| 32>    C       -6.13200        -3.54200        -1.07600
| 33>    C       -7.65100        -5.11300         0.04000
| 34>    C       -4.32400         0.14100         0.03700
| 35>    C       -3.02500        -0.52000        -0.04800
| 36>    C       -4.42200        -3.56600         1.07500
| 37>    N       -6.40700        -4.31300         0.00100
| 38>    C       -2.86700        -1.92200        -0.04000
| 39>    C       -1.65000        -2.62400        -0.02700
| 40>    C        3.56800        -6.14200        -1.04000
| 41>    C       -1.47600        -4.04900        -0.03400
| 42>    C        2.80300        -4.09900        -0.00800
| 43>    C        3.65700        -4.38400         1.06900
| 44>    C        4.42700        -5.53000         1.05900
| 45>    C        5.24500        -7.58800         0.01400
| 46>    C       -0.13400        -4.31500        -0.02200
| 47>    C        0.56800        -3.06400        -0.02700
| 48>    C        2.77500        -5.01200        -1.07400
| 49>    N        4.37600        -6.39100         0.01700
| 50>    C        1.95900        -2.86900        -0.00900
| 51>    C        2.62100        -1.62200         0.00900
| 52>    C        5.54300         4.33900        -1.13000
| 53>    C        4.07000        -1.47900        -0.09400
| 54>    C        4.10400         2.75100        -0.02100
| 55>    C        5.02700         2.72900         1.03600
| 56>    C        6.16600         3.50900         0.97800
| 57>    C        7.61900         5.15300        -0.11500
| 58>    C        4.32100        -0.14800        -0.09200
| 59>    C        3.02500         0.51400         0.01500
| 60>    C        4.38700         3.58200        -1.11500
| 61>    C        2.86600         1.91600         0.01300
| 62>    N        6.41300         4.29600        -0.09500
| 63>    H       -4.58100         6.12900         2.13100
| 64>    H        2.27400         4.76600         0.08100
| 65>    H       -2.68200         4.47500        -2.08400
| 66>    H       -4.10200         6.51700        -1.97200
| 67>    H       -4.51800         8.47800         0.18400
| 68>    H       -5.75500         7.68100        -0.83400
| 69>    H       -5.86800         7.58500         0.94600
| 70>    H       -0.33200         5.28200         0.06900
| 71>    H       -3.17900         4.07600         2.18800
| 72>    H        0.18200         1.07200         0.00500
| 73>    H       -0.18300        -1.08000        -0.02100
| 74>    H       -5.86400        -4.96200         1.89500
| 75>    H       -4.79400         2.27200         0.13900
| 76>    H       -4.80000        -2.16000        -1.99400
| 77>    H       -6.84100        -3.58200        -1.89300
| 78>    H       -8.42800        -4.53600         0.54600
| 79>    H       -7.95600        -5.33700        -0.98100
| 80>    H       -7.45600        -6.03700         0.58400
| 81>    H       -5.28700        -0.34400         0.10000
| 82>    H       -3.78000        -3.60100         1.94700
| 83>    H        3.58700        -6.86800        -1.84300
| 84>    H       -2.27600        -4.77400        -0.05000
| 85>    H        3.71400        -3.72400         1.92600
| 86>    H        5.09200        -5.79500         1.87100
| 87>    H        6.20500        -7.32900        -0.43900
| 88>    H        5.39300        -7.91700         1.04200
| 89>    H        4.75900        -8.37300        -0.56400
| 90>    H        0.32900        -5.29000        -0.00800
| 91>    H        2.14600        -4.84200        -1.94000
| 92>    H        5.80800         4.98600        -1.95600
| 93>    H        4.78800        -2.28100        -0.18500
| 94>    H        4.86000         2.11400         1.91200
| 95>    H        6.90100         3.53100         1.77200
| 96>    H        7.38300         6.10900         0.35600
| 97>    H        8.41400         4.65200         0.43500
| 98>    H        7.92100         5.31000        -1.15000
| 99>    H        5.28300         0.33600        -0.17900
|100>    H        3.72000         3.63200        -1.96700
|101> *
|102>
|103>                          ****END OF INPUT****

CARTESIAN COORDINATES (ANGSTROEM)
---------------------------------
  C     -4.131000    5.722000    1.235000
  C      1.474000    4.041000    0.057000
  C     -2.802000    4.093000    0.049000
  C     -3.082000    4.799000   -1.131000
  C     -3.866000    5.934000   -1.090000
  C     -5.188000    7.620000    0.095000
  C      0.132000    4.307000    0.061000
  C     -0.569000    3.056000    0.047000
  C      1.649000    2.618000    0.023000
  C     -3.346000    4.585000    1.245000
  N     -4.382000    6.379000    0.079000
  N      0.388000    2.067000    0.025000
  N     -2.010000    0.395000   -0.075000
  N     -0.388000   -2.074000   -0.027000
  N      2.010000   -0.401000    0.065000
  C     -1.960000    2.861000    0.024000
  C     -2.623000    1.615000   -0.018000
  C     -5.573000   -4.329000    1.066000
  C     -4.073000    1.471000    0.056000
  C     -4.106000   -2.756000   -0.026000
  C     -4.995000   -2.757000   -1.111000
  C     -6.132000   -3.542000   -1.076000
  C     -7.651000   -5.113000    0.040000
  C     -4.324000    0.141000    0.037000
  C     -3.025000   -0.520000   -0.048000
  C     -4.422000   -3.566000    1.075000
  N     -6.407000   -4.313000    0.001000
  C     -2.867000   -1.922000   -0.040000
  C     -1.650000   -2.624000   -0.027000
  C      3.568000   -6.142000   -1.040000
  C     -1.476000   -4.049000   -0.034000
  C      2.803000   -4.099000   -0.008000
  C      3.657000   -4.384000    1.069000
  C      4.427000   -5.530000    1.059000
  C      5.245000   -7.588000    0.014000
  C     -0.134000   -4.315000   -0.022000
  C      0.568000   -3.064000   -0.027000
  C      2.775000   -5.012000   -1.074000
  N      4.376000   -6.391000    0.017000
  C      1.959000   -2.869000   -0.009000
  C      2.621000   -1.622000    0.009000
  C      5.543000    4.339000   -1.130000
  C      4.070000   -1.479000   -0.094000
  C      4.104000    2.751000   -0.021000
  C      5.027000    2.729000    1.036000
  C      6.166000    3.509000    0.978000
  C      7.619000    5.153000   -0.115000
  C      4.321000   -0.148000   -0.092000
  C      3.025000    0.514000    0.015000
  C      4.387000    3.582000   -1.115000
  C      2.866000    1.916000    0.013000
  N      6.413000    4.296000   -0.095000
  H     -4.581000    6.129000    2.131000
  H      2.274000    4.766000    0.081000
  H     -2.682000    4.475000   -2.084000
  H     -4.102000    6.517000   -1.972000
  H     -4.518000    8.478000    0.184000
  H     -5.755000    7.681000   -0.834000
  H     -5.868000    7.585000    0.946000
  H     -0.332000    5.282000    0.069000
  H     -3.179000    4.076000    2.188000
  H      0.182000    1.072000    0.005000
  H     -0.183000   -1.080000   -0.021000
  H     -5.864000   -4.962000    1.895000
  H     -4.794000    2.272000    0.139000
  H     -4.800000   -2.160000   -1.994000
  H     -6.841000   -3.582000   -1.893000
  H     -8.428000   -4.536000    0.546000
  H     -7.956000   -5.337000   -0.981000
  H     -7.456000   -6.037000    0.584000
  H     -5.287000   -0.344000    0.100000
  H     -3.780000   -3.601000    1.947000
  H      3.587000   -6.868000   -1.843000
  H     -2.276000   -4.774000   -0.050000
  H      3.714000   -3.724000    1.926000
  H      5.092000   -5.795000    1.871000
  H      6.205000   -7.329000   -0.439000
  H      5.393000   -7.917000    1.042000
  H      4.759000   -8.373000   -0.564000
  H      0.329000   -5.290000   -0.008000
  H      2.146000   -4.842000   -1.940000
  H      5.808000    4.986000   -1.956000
  H      4.788000   -2.281000   -0.185000
  H      4.860000    2.114000    1.912000
  H      6.901000    3.531000    1.772000
  H      7.383000    6.109000    0.356000
  H      8.414000    4.652000    0.435000
  H      7.921000    5.310000   -1.150000
  H      5.283000    0.336000   -0.179000
  H      3.720000    3.632000   -1.967000

 Total Charge           Charge          ....    0
 Multiplicity           Mult            ....    1
 Number of Electrons    NEL             ....  358
 Basis Dimension        Dim             ....  918

ORBITAL ENERGIES
----------------

  NO   OCC          E(Eh)            E(eV)
   0   2.0000     -15.714613      -427.6164
   1   2.0000     -15.629678      -425.3052
   2   2.0000     -15.618768      -425.0083
   3   2.0000     -15.579169      -423.9307
   4   2.0000     -15.520588      -422.3367
   5   2.0000     -15.504776      -421.9064
   6   2.0000     -15.450913      -420.4407
   7   2.0000     -15.427512      -419.8040
   8   2.0000     -11.353611      -308.9475
   9   2.0000     -11.353217      -308.9367
  10   2.0000     -11.347351      -308.7771
  11   2.0000     -11.309206      -307.7391
  12   2.0000     -11.297078      -307.4091
  13   2.0000     -11.291329      -307.2527
  14   2.0000     -11.289735      -307.2093
  15   2.0000     -11.283672      -307.0443
  16   2.0000     -11.283539      -307.0407
  17   2.0000     -11.281690      -306.9904
  18   2.0000     -11.281468      -306.9844
  19   2.0000     -11.271699      -306.7185
  20   2.0000     -11.264819      -306.5313
  21   2.0000     -11.245269      -305.9993
  22   2.0000     -11.241716      -305.9026
  23   2.0000     -11.233347      -305.6749
  24   2.0000     -11.227541      -305.5169
  25   2.0000     -11.226645      -305.4925
  26   2.0000     -11.223097      -305.3960
  27   2.0000     -11.219139      -305.2883
  28   2.0000     -11.218813      -305.2794
  29   2.0000     -11.210178      -305.0444
  30   2.0000     -11.208597      -305.0014
  31   2.0000     -11.194154      -304.6084
  32   2.0000     -11.193067      -304.5788
  33   2.0000     -11.191961      -304.5487
  34   2.0000     -11.190182      -304.5003
  35   2.0000     -11.189410      -304.4793
  36   2.0000     -11.185656      -304.3772
  37   2.0000     -11.180593      -304.2394
  38   2.0000     -11.180525      -304.2375
  39   2.0000     -11.176474      -304.1273
  40   2.0000     -11.168738      -303.9168
  41   2.0000     -11.164870      -303.8116
  42   2.0000     -11.164455      -303.8003
  43   2.0000     -11.160980      -303.7057
  44   2.0000     -11.160832      -303.7017
  45   2.0000     -11.145830      -303.2935
  46   2.0000     -11.145349      -303.2804
  47   2.0000     -11.141303      -303.1703
  48   2.0000     -11.138739      -303.1005
  49   2.0000     -11.131887      -302.9140
  50   2.0000     -11.117901      -302.5335
  51   2.0000     -11.112476      -302.3858
  52   2.0000      -1.387417       -37.7535
  53   2.0000      -1.317719       -35.8570
  54   2.0000      -1.307766       -35.5861
  55   2.0000      -1.274092       -34.6698
  56   2.0000      -1.223844       -33.3025
  57   2.0000      -1.200809       -32.6757
  58   2.0000      -1.176883       -32.0246
  59   2.0000      -1.162539       -31.6343
  60   2.0000      -1.137852       -30.9625
  61   2.0000      -1.106799       -30.1175
  62   2.0000      -1.105848       -30.0917
  63   2.0000      -1.097572       -29.8664
  64   2.0000      -1.067974       -29.0610
  65   2.0000      -1.054899       -28.7053
  66   2.0000      -1.042076       -28.3563
  67   2.0000      -1.032720       -28.1017
  68   2.0000      -1.014768       -27.6132
  69   2.0000      -1.004157       -27.3245
  70   2.0000      -1.001159       -27.2429
  71   2.0000      -0.993979       -27.0475
  72   2.0000      -0.984993       -26.8030
  73   2.0000      -0.977054       -26.5870
  74   2.0000      -0.963934       -26.2300
  75   2.0000      -0.961884       -26.1742
  76   2.0000      -0.951009       -25.8783
  77   2.0000      -0.940853       -25.6019
  78   2.0000      -0.931790       -25.3553
  79   2.0000      -0.920630       -25.0516
  80   2.0000      -0.913098       -24.8467
  81   2.0000      -0.890286       -24.2259
  82   2.0000      -0.885678       -24.1005
  83   2.0000      -0.869056       -23.6482
  84   2.0000      -0.860217       -23.4077
  85   2.0000      -0.847085       -23.0504
  86   2.0000      -0.829828       -22.5808
  87   2.0000      -0.827584       -22.5197
  88   2.0000      -0.820692       -22.3322
  89   2.0000      -0.794565       -21.6212
  90   2.0000      -0.786336       -21.3973
  91   2.0000      -0.769907       -20.9502
  92   2.0000      -0.736877       -20.0514
  93   2.0000      -0.733589       -19.9620
  94   2.0000      -0.728481       -19.8230
  95   2.0000      -0.722920       -19.6717
  96   2.0000      -0.716378       -19.4936
  97   2.0000      -0.708558       -19.2809
  98   2.0000      -0.705402       -19.1950
  99   2.0000      -0.703912       -19.1544
 100   2.0000      -0.695734       -18.9319
 101   2.0000      -0.688542       -18.7362
 102   2.0000      -0.684191       -18.6178
 103   2.0000      -0.675134       -18.3713
 104   2.0000      -0.673130       -18.3168
 105   2.0000      -0.667971       -18.1764
 106   2.0000      -0.667282       -18.1577
 107   2.0000      -0.662435       -18.0258
 108   2.0000      -0.652440       -17.7538
 109   2.0000      -0.649560       -17.6754
 110   2.0000      -0.648422       -17.6445
 111   2.0000      -0.642274       -17.4772
 112   2.0000      -0.640433       -17.4271
 113   2.0000      -0.635106       -17.2821
 114   2.0000      -0.631752       -17.1909
 115   2.0000      -0.630022       -17.1438
 116   2.0000      -0.626730       -17.0542
 117   2.0000      -0.616350       -16.7717
 118   2.0000      -0.611268       -16.6334
 119   2.0000      -0.609766       -16.5926
 120   2.0000      -0.609027       -16.5725
 121   2.0000      -0.600882       -16.3508
 122   2.0000      -0.589953       -16.0534
 123   2.0000      -0.589649       -16.0452
 124   2.0000      -0.584809       -15.9135
 125   2.0000      -0.578792       -15.7497
 126   2.0000      -0.575294       -15.6545
 127   2.0000      -0.571752       -15.5582
 128   2.0000      -0.570936       -15.5360
 129   2.0000      -0.567714       -15.4483
 130   2.0000      -0.556376       -15.1398
 131   2.0000      -0.544645       -14.8205
 132   2.0000      -0.541727       -14.7411
 133   2.0000      -0.539237       -14.6734
 134   2.0000      -0.533729       -14.5235
 135   2.0000      -0.529503       -14.4085
 136   2.0000      -0.518920       -14.1205
 137   2.0000      -0.516033       -14.0420
 138   2.0000      -0.513222       -13.9655
 139   2.0000      -0.512720       -13.9518
 140   2.0000      -0.510211       -13.8835
 141   2.0000      -0.503142       -13.6912
 142   2.0000      -0.501150       -13.6370
 143   2.0000      -0.498314       -13.5598
 144   2.0000      -0.495301       -13.4778
 145   2.0000      -0.493460       -13.4277
 146   2.0000      -0.489055       -13.3079
 147   2.0000      -0.474182       -12.9032
 148   2.0000      -0.471425       -12.8281
 149   2.0000      -0.466148       -12.6845
 150   2.0000      -0.461986       -12.5713
 151   2.0000      -0.460228       -12.5234
 152   2.0000      -0.451867       -12.2959
 153   2.0000      -0.440968       -11.9993
 154   2.0000      -0.433665       -11.8006
 155   2.0000      -0.431891       -11.7524
 156   2.0000      -0.418574       -11.3900
 157   2.0000      -0.416075       -11.3220
 158   2.0000      -0.412266       -11.2183
 159   2.0000      -0.407009       -11.0753
 160   2.0000      -0.381637       -10.3849
 161   2.0000      -0.369748       -10.0613
 162   2.0000      -0.353977        -9.6322
 163   2.0000      -0.352367        -9.5884
 164   2.0000      -0.345857        -9.4112
 165   2.0000      -0.341005        -9.2792
 166   2.0000      -0.338413        -9.2087
 167   2.0000      -0.318756        -8.6738
 168   2.0000      -0.312730        -8.5098
 169   2.0000      -0.304090        -8.2747
 170   2.0000      -0.298193        -8.1143
 171   2.0000      -0.282827        -7.6961
 172   2.0000      -0.276049        -7.5117
 173   2.0000      -0.266111        -7.2413
 174   2.0000      -0.230024        -6.2593
 175   2.0000      -0.183249        -4.9865
 176   2.0000      -0.173435        -4.7194
 177   2.0000      -0.062621        -1.7040
 178   2.0000      -0.050721        -1.3802
 179   0.0000       0.035475         0.9653
 180   0.0000       0.055385         1.5071
 181   0.0000       0.077109         2.0982
 182   0.0000       0.098314         2.6753
 183   0.0000       0.102103         2.7784

MULLIKEN ATOMIC CHARGES
-----------------------
   0 C :    0.236709
   1 N :   -0.413216
   2 C :   -0.066242
   3 N :   -0.343556
   4 C :   -0.066022
   5 N :   -0.566143
   6 C :   -0.028033
   7 N :   -0.336742
   8 C :    0.234833
   9 N :   -0.566450
  10 C :    0.103366
  11 N :   -0.439869
  12 C :   -0.058939
  13 N :   -0.451429
  14 C :    0.220994
  15 N :   -0.441845
  16 C :    0.256640
  17 C :   -0.032509
  18 C :   -0.179510
  19 C :    0.232597
  20 C :    0.187446
  21 C :   -0.069134
  22 C :   -0.091425
  23 C :   -0.068017
  24 C :    0.217442
  25 C :    0.115010
  26 C :   -0.065199
  27 C :    0.248640
  28 C :   -0.039417
  29 C :   -0.197410
  30 C :    0.220185
  31 C :    0.186931
  32 C :   -0.064865
  33 C :   -0.103345
  34 C :   -0.050654
  35 C :    0.177606
  36 C :    0.121286
  37 C :   -0.070849
  38 C :    0.244598
  39 C :   -0.065377
  40 C :   -0.205128
  41 C :    0.216426
  42 C :    0.212129
  43 C :   -0.077439
  44 C :   -0.092841
  45 C :   -0.037709
  46 C :    0.182858
  47 C :    0.116896
  48 C :   -0.082004
  49 C :    0.207213
  50 C :   -0.068212
  51 C :   -0.188631
  52 H :    0.082632
  53 H :   -0.006545
  54 H :    0.067464
  55 H :    0.081380
  56 H :    0.085680
  57 H :    0.076693
  58 H :    0.075288
  59 H :   -0.029491
  60 H :    0.068636
  61 H :    0.177383
  62 H :    0.167532
  63 H :    0.052325
  64 H :   -0.034526
  65 H :    0.040394
  66 H :    0.054579
  67 H :    0.057769
  68 H :    0.055768
  69 H :    0.058817
  70 H :   -0.012993
  71 H :    0.046342
  72 H :    0.036632
  73 H :   -0.019668
  74 H :    0.028633
  75 H :    0.035332
  76 H :    0.045518
  77 H :    0.045541
  78 H :    0.044791
  79 H :   -0.011730
  80 H :    0.028386
  81 H :    0.049815
  82 H :   -0.022897
  83 H :    0.042444
  84 H :    0.048827
  85 H :    0.053784
  86 H :    0.056197
  87 H :    0.054117
  88 H :   -0.030590
  89 H :    0.038099
Sum of atomic charges:    0.0000000

LOEWDIN ATOMIC CHARGES
----------------------
   0 C :    0.039911
   1 N :    0.193473
   2 C :   -0.098480
   3 N :    0.171217
   4 C :    0.120095
   5 N :   -0.148398
   6 C :   -0.009881
   7 N :    0.177567
   8 C :    0.039019
   9 N :   -0.138671
  10 C :    0.040458
  11 N :    0.138843
  12 C :   -0.096687
  13 N :    0.112314
  14 C :   -0.062298
  15 N :    0.134009
  16 C :   -0.015917
  17 C :   -0.010691
  18 C :   -0.121050
  19 C :   -0.089278
  20 C :   -0.019195
  21 C :   -0.099109
  22 C :    0.032478
  23 C :   -0.034477
  24 C :    0.007446
  25 C :    0.029147
  26 C :   -0.091295
  27 C :   -0.053230
  28 C :   -0.014801
  29 C :   -0.118891
  30 C :   -0.065939
  31 C :   -0.027715
  32 C :   -0.101262
  33 C :   -0.008123
  34 C :   -0.027197
  35 C :   -0.036044
  36 C :    0.022836
  37 C :   -0.110726
  38 C :   -0.028821
  39 C :   -0.034819
  40 C :   -0.113844
  41 C :   -0.093189
  42 C :    0.000498
  43 C :   -0.114436
  44 C :    0.025786
  45 C :   -0.014006
  46 C :   -0.024935
  47 C :    0.028030
  48 C :   -0.114710
  49 C :   -0.118544
  50 C :   -0.034337
  51 C :   -0.107935
  52 H :    0.042270
  53 H :    0.007945
  54 H :    0.055873
  55 H :    0.042341
  56 H :    0.040344
  57 H :    0.040038
  58 H :    0.039937
  59 H :   -0.000925
  60 H :    0.056318
  61 H :    0.062763
  62 H :    0.057571
  63 H :    0.028474
  64 H :   -0.005540
  65 H :    0.041512
  66 H :    0.029778
  67 H :    0.026134
  68 H :    0.030915
  69 H :    0.031177
  70 H :    0.003374
  71 H :    0.045331
  72 H :    0.021653
  73 H :    0.001575
  74 H :    0.037413
  75 H :    0.020675
  76 H :    0.019666
  77 H :    0.025665
  78 H :    0.025360
  79 H :    0.005569
  80 H :    0.036504
  81 H :    0.027747
  82 H :   -0.001287
  83 H :    0.044046
  84 H :    0.026508
  85 H :    0.024039
  86 H :    0.030258
  87 H :    0.029922
  88 H :   -0.005304
  89 H :    0.040167

  Mayer bond orders larger than 0.100000
B(  0-C ,  1-N ) :   1.2043 B(  0-C , 17-C ) :   1.5167 B(  0-C , 52-H ) :   0.9668
B(  1-N ,  8-C ) :   1.2026 B(  1-N , 10-C ) :   0.9257 B(  2-C , 12-C ) :   1.5792
B(  2-C , 16-C ) :   1.2745 B(  2-C , 53-H ) :   0.9793 B(  3-N , 14-C ) :   1.1754
B(  3-N , 16-C ) :   1.2025 B(  3-N , 61-H ) :   0.8952 B(  4-C ,  6-C ) :   1.3537
B(  4-C , 17-C ) :   1.3616 B(  4-C , 18-C ) :   1.0587 B(  5-N , 19-C ) :   1.3656
B(  5-N , 27-C ) :   1.4475 B(  6-C ,  8-C ) :   1.5218 B(  6-C , 54-H ) :   0.9707
B(  7-N , 30-C ) :   1.1844 B(  7-N , 38-C ) :   1.2154 B(  7-N , 62-H ) :   0.9014
B(  8-C , 55-H ) :   0.9675 B(  9-N , 41-C ) :   1.4351 B(  9-N , 49-C ) :   1.3923
B( 10-C , 56-H ) :   0.9767 B( 10-C , 57-H ) :   0.9807 B( 10-C , 58-H ) :   0.9816
B( 11-N , 20-C ) :   1.0974 B( 11-N , 24-C ) :   1.1345 B( 11-N , 25-C ) :   0.9622
B( 12-C , 14-C ) :   1.2747 B( 12-C , 59-H ) :   0.9767 B( 13-N , 31-C ) :   1.0823
B( 13-N , 35-C ) :   1.0722 B( 13-N , 36-C ) :   0.9823 B( 14-C , 18-C ) :   1.2601
B( 15-N , 42-C ) :   1.1258 B( 15-N , 46-C ) :   1.0888 B( 15-N , 47-C ) :   0.9666
B( 16-C , 51-C ) :   1.2458 B( 17-C , 60-H ) :   0.9706 B( 18-C , 19-C ) :   1.3101
B( 19-C , 21-C ) :   1.1620 B( 20-C , 28-C ) :   1.6288 B( 20-C , 63-H ) :   0.9709
B( 21-C , 26-C ) :   1.6831 B( 21-C , 64-H ) :   0.9716 B( 22-C , 23-C ) :   1.2561
B( 22-C , 28-C ) :   1.2798 B( 22-C , 29-C ) :   1.2564 B( 23-C , 24-C ) :   1.6344
B( 23-C , 65-H ) :   0.9722 B( 24-C , 66-H ) :   0.9690 B( 25-C , 67-H ) :   0.9762
B( 25-C , 68-H ) :   0.9834 B( 25-C , 69-H ) :   0.9819 B( 26-C , 27-C ) :   1.1718
B( 26-C , 70-H ) :   0.9757 B( 27-C , 29-C ) :   1.2437 B( 28-C , 71-H ) :   0.9709
B( 29-C , 30-C ) :   1.1741 B( 30-C , 32-C ) :   1.3519 B( 31-C , 39-C ) :   1.6845
B( 31-C , 72-H ) :   0.9709 B( 32-C , 37-C ) :   1.5080 B( 32-C , 73-H ) :   0.9771
B( 33-C , 34-C ) :   1.2326 B( 33-C , 39-C ) :   1.2251 B( 33-C , 40-C ) :   1.3576
B( 34-C , 35-C ) :   1.6831 B( 34-C , 74-H ) :   0.9710 B( 35-C , 75-H ) :   0.9709
B( 36-C , 76-H ) :   0.9755 B( 36-C , 77-H ) :   0.9826 B( 36-C , 78-H ) :   0.9838
B( 37-C , 38-C ) :   1.3458 B( 37-C , 79-H ) :   0.9793 B( 38-C , 40-C ) :   1.1777
B( 39-C , 80-H ) :   0.9721 B( 40-C , 41-C ) :   1.1692 B( 41-C , 43-C ) :   1.2551
B( 42-C , 50-C ) :   1.6426 B( 42-C , 81-H ) :   0.9697 B( 43-C , 48-C ) :   1.5959
B( 43-C , 82-H ) :   0.9756 B( 44-C , 45-C ) :   1.2807 B( 44-C , 50-C ) :   1.2486
B( 44-C , 51-C ) :   1.2474 B( 45-C , 46-C ) :   1.6334 B( 45-C , 83-H ) :   0.9702
B( 46-C , 84-H ) :   0.9709 B( 47-C , 85-H ) :   0.9759 B( 47-C , 86-H ) :   0.9826
B( 47-C , 87-H ) :   0.9830 B( 48-C , 49-C ) :   1.2496 B( 48-C , 88-H ) :   0.9726
B( 49-C , 51-C ) :   1.1912 B( 50-C , 89-H ) :   0.9722

MP2 TOTAL ENERGY:    -2130.873047617 Eh
FINAL SINGLE POINT ENERGY     -2130.873047617432

DIPOLE MOMENT
-------------
                                X             Y             Z
Electronic contribution:     -4.58836       5.15260      -0.07140
Nuclear contribution   :      0.06121       0.22880       0.09681
                        -----------------------------------------
Total Dipole Moment    :     -4.52715       5.38140       0.02540
                        -----------------------------------------
Magnitude (a.u.)       :      7.03244
Magnitude (Debye)      :     17.87504

Rotational constants in cm-1:     0.001498     0.001472     0.000763
Rotational constants in MHz :    44.911345    44.134702    22.866446

                             ****ORCA TERMINATED NORMALLY****
TOTAL RUN TIME: 0 days 1 hours 25 minutes 50 seconds 674 msec
