                         Program Version 5.0.4 -  RELEASE  -
|  1> ! PAL2
|  2> ! mp2 cc-pvdz TightSCF  NoKeepInts
|  3>
|  4> %scf
|  5>   MaxCore 2000
|  6> end
|  7> %mp2
|  8>   MaxCore 2000
|  9> end
| 10> * xyz 0 1
| 11>    C       -3.07100         6.47600        -0.22300
| 12>    C        1.47400         4.04100         0.05700
| 13>    C       -2.80200         4.09300         0.04900
| 14>    C       -4.16100         4.03100         0.39600
| 15>    C       -4.92400         5.18100         0.41800
| 16>    C       -5.23000         7.59000         0.11200
| 17>    C        0.13200         4.30700         0.06100
| 18>    C       -0.56900         3.05600         0.04700
| 19>    C        1.64900         2.61800         0.02300
| 20>    C       -2.26800         5.35200        -0.26600
| 21>    N       -4.37700         6.38200         0.11500
| 22>    N        0.38800         2.06700         0.02500
| 23>    N       -2.01000         0.39500        -0.07500
| 24>    N       -0.38800        -2.07400        -0.02700
| 25>    N        2.01000        -0.40100         0.06500
| 26>    C       -1.96000         2.86100         0.02400
| 27>    C       -2.62300         1.61500        -0.01800
| 28>    C       -5.57300        -4.32900         1.06600
| 29>    C       -4.07300         1.47100         0.05600
| 30>    C       -4.10600        -2.75600        -0.02600
| 31>    C       -4.99500        -2.75700        -1.11100
| 32>    C       -6.13200        -3.54200        -1.07600
| 33>    C       -7.65100        -5.11300         0.04000
| 34>    C       -4.32400         0.14100         0.03700
| 35>    C       -3.02500        -0.52000        -0.04800
| 36>    C       -4.42200        -3.56600         1.07500
| 37>    N       -6.40700        -4.31300         0.00100
| 38>    C       -2.86700        -1.92200        -0.04000
| 39>    C       -1.65000        -2.62400        -0.02700
| 40>    C        3.56800        -6.14200        -1.04000
| 41>    C       -1.47600        -4.04900        -0.03400
| 42>    C        2.80300        -4.09900        -0.00800
| 43>    C        3.65700        -4.38400         1.06900
| 44>    C        4.42700        -5.53000         1.05900
| 45>    C        5.24500        -7.58800         0.01400
| 46>    C       -0.13400        -4.31500        -0.02200
| 47>    C        0.56800        -3.06400        -0.02700
| 48>    C        2.77500        -5.01200        -1.07400
| 49>    N        4.37600        -6.39100         0.01700
| 50>    C        1.95900        -2.86900        -0.00900
| 51>    C        2.62100        -1.62200         0.00900
| 52>    C        5.54300         4.33900        -1.13000
| 53>    C        4.07000        -1.47900        -0.09400
| 54>    C        4.10400         2.75100        -0.02100
| 55>    C        5.02700         2.72900         1.03600
| 56>    C        6.16600         3.50900         0.97800
| 57>    C        7.61900         5.15300        -0.11500
| 58>    C        4.32100        -0.14800        -0.09200
| 59>    C        3.02500         0.51400         0.01500
| 60>    C        4.38700         3.58200        -1.11500
| 61>    C        2.86600         1.91600         0.01300
| 62>    N        6.41300         4.29600        -0.09500
| 63>    H       -2.69900         7.46800        -0.44600
| 64>    H        2.27400         4.76600         0.08100
| 65>    H       -4.63300         3.08700         0.64000
| 66>    H       -5.97600         5.18200         0.67100
| 67>    H       -5.71400         7.68200        -0.86300
| 68>    H       -5.98100         7.49200         0.89600
| 69>    H       -4.60400         8.46200         0.30300
| 70>    H       -0.33200         5.28200         0.06900
| 71>    H       -1.22300         5.46800        -0.52800
| 72>    H        0.18200         1.07200         0.00500
| 73>    H       -0.18300        -1.08000        -0.02100
| 74>    H       -5.86400        -4.96200         1.89500
| 75>    H       -4.79400         2.27200         0.13900
| 76>    H       -4.80000        -2.16000        -1.99400
| 77>    H       -6.84100        -3.58200        -1.89300
| 78>    H       -8.42800        -4.53600         0.54600
| 79>    H       -7.95600        -5.33700        -0.98100
| 80>    H       -7.45600        -6.03700         0.58400
| 81>    H       -5.28700        -0.34400         0.10000
| 82>    H       -3.78000        -3.60100         1.94700
| 83>    H        3.58700        -6.86800        -1.84300
| 84>    H       -2.27600        -4.77400        -0.05000
| 85>    H        3.71400        -3.72400         1.92600
| 86>    H        5.09200        -5.79500         1.87100
| 87>    H        6.20500        -7.32900        -0.43900
| 88>    H        5.39300        -7.91700         1.04200
| 89>    H        4.75900        -8.37300        -0.56400
| 90>    H        0.32900        -5.29000        -0.00800
| 91>    H        2.14600        -4.84200        -1.94000
| 92>    H        5.80800         4.98600        -1.95600
| 93>    H        4.78800        -2.28100        -0.18500
| 94>    H        4.86000         2.11400         1.91200
| 95>    H        6.90100         3.53100         1.77200
| 96>    H        7.38300         6.10900         0.35600
| 97>    H        8.41400         4.65200         0.43500
| 98>    H        7.92100         5.31000        -1.15000
| 99>    H        5.28300         0.33600        -0.17900
|100>    H        3.72000         3.63200        -1.96700
|101> *
|102>
|103>                          ****END OF INPUT****

CARTESIAN COORDINATES (ANGSTROEM)
---------------------------------
  C     -3.071000    6.476000   -0.223000
  C      1.474000    4.041000    0.057000
  C     -2.802000    4.093000    0.049000
  C     -4.161000    4.031000    0.396000
  C     -4.924000    5.181000    0.418000
  C     -5.230000    7.590000    0.112000
  C      0.132000    4.307000    0.061000
  C     -0.569000    3.056000    0.047000
  C      1.649000    2.618000    0.023000
  C     -2.268000    5.352000   -0.266000
  N     -4.377000    6.382000    0.115000
  N      0.388000    2.067000    0.025000
  N     -2.010000    0.395000   -0.075000
  N     -0.388000   -2.074000   -0.027000
  N      2.010000   -0.401000    0.065000
  C     -1.960000    2.861000    0.024000
  C     -2.623000    1.615000   -0.018000
  C     -5.573000   -4.329000    1.066000
  C     -4.073000    1.471000    0.056000
  C     -4.106000   -2.756000   -0.026000
  C     -4.995000   -2.757000   -1.111000
  C     -6.132000   -3.542000   -1.076000
  C     -7.651000   -5.113000    0.040000
  C     -4.324000    0.141000    0.037000
  C     -3.025000   -0.520000   -0.048000
  C     -4.422000   -3.566000    1.075000
  N     -6.407000   -4.313000    0.001000
  C     -2.867000   -1.922000   -0.040000
  C     -1.650000   -2.624000   -0.027000
  C      3.568000   -6.142000   -1.040000
  C     -1.476000   -4.049000   -0.034000
  C      2.803000   -4.099000   -0.008000
  C      3.657000   -4.384000    1.069000
  C      4.427000   -5.530000    1.059000
  C      5.245000   -7.588000    0.014000
  C     -0.134000   -4.315000   -0.022000
  C      0.568000   -3.064000   -0.027000
  C      2.775000   -5.012000   -1.074000
  N      4.376000   -6.391000    0.017000
  C      1.959000   -2.869000   -0.009000
  C      2.621000   -1.622000    0.009000
  C      5.543000    4.339000   -1.130000
  C      4.070000   -1.479000   -0.094000
  C      4.104000    2.751000   -0.021000
  C      5.027000    2.729000    1.036000
  C      6.166000    3.509000    0.978000
  C      7.619000    5.153000   -0.115000
  C      4.321000   -0.148000   -0.092000
  C      3.025000    0.514000    0.015000
  C      4.387000    3.582000   -1.115000
  C      2.866000    1.916000    0.013000
  N      6.413000    4.296000   -0.095000
  H     -2.699000    7.468000   -0.446000
  H      2.274000    4.766000    0.081000
  H     -4.633000    3.087000    0.640000
  H     -5.976000    5.182000    0.671000
  H     -5.714000    7.682000   -0.863000
  H     -5.981000    7.492000    0.896000
  H     -4.604000    8.462000    0.303000
  H     -0.332000    5.282000    0.069000
  H     -1.223000    5.468000   -0.528000
  H      0.182000    1.072000    0.005000
  H     -0.183000   -1.080000   -0.021000
  H     -5.864000   -4.962000    1.895000
  H     -4.794000    2.272000    0.139000
  H     -4.800000   -2.160000   -1.994000
  H     -6.841000   -3.582000   -1.893000
  H     -8.428000   -4.536000    0.546000
  H     -7.956000   -5.337000   -0.981000
  H     -7.456000   -6.037000    0.584000
  H     -5.287000   -0.344000    0.100000
  H     -3.780000   -3.601000    1.947000
  H      3.587000   -6.868000   -1.843000
  H     -2.276000   -4.774000   -0.050000
  H      3.714000   -3.724000    1.926000
  H      5.092000   -5.795000    1.871000
  H      6.205000   -7.329000   -0.439000
  H      5.393000   -7.917000    1.042000
  H      4.759000   -8.373000   -0.564000
  H      0.329000   -5.290000   -0.008000
  H      2.146000   -4.842000   -1.940000
  H      5.808000    4.986000   -1.956000
  H      4.788000   -2.281000   -0.185000
  H      4.860000    2.114000    1.912000
  H      6.901000    3.531000    1.772000
  H      7.383000    6.109000    0.356000
  H      8.414000    4.652000    0.435000
  H      7.921000    5.310000   -1.150000
  H      5.283000    0.336000   -0.179000
  H      3.720000    3.632000   -1.967000

 Total Charge           Charge          ....    0
 Multiplicity           Mult            ....    1
 Number of Electrons    NEL             ....  358
 Basis Dimension        Dim             ....  918

ORBITAL ENERGIES
----------------

  NO   OCC          E(Eh)            E(eV)
   0   2.0000     -15.679231      -426.6536
   1   2.0000     -15.633009      -425.3958
   2   2.0000     -15.632695      -425.3873
   3   2.0000     -15.588401      -424.1820
   4   2.0000     -15.524896      -422.4539
   5   2.0000     -15.515743      -422.2048
   6   2.0000     -15.453996      -420.5246
   7   2.0000     -15.439681      -420.1351
   8   2.0000     -11.328857      -308.2739
   9   2.0000     -11.328007      -308.2507
  10   2.0000     -11.327590      -308.2394
  11   2.0000     -11.298900      -307.4587
  12   2.0000     -11.298724      -307.4539
  13   2.0000     -11.292178      -307.2758
  14   2.0000     -11.291910      -307.2685
  15   2.0000     -11.287315      -307.1434
  16   2.0000     -11.285741      -307.1006
  17   2.0000     -11.281518      -306.9857
  18   2.0000     -11.270304      -306.6806
  19   2.0000     -11.262994      -306.4816
  20   2.0000     -11.261995      -306.4545
  21   2.0000     -11.252731      -306.2024
  22   2.0000     -11.249375      -306.1111
  23   2.0000     -11.237431      -305.7860
  24   2.0000     -11.236801      -305.7689
  25   2.0000     -11.230422      -305.5953
  26   2.0000     -11.230390      -305.5944
  27   2.0000     -11.230243      -305.5904
  28   2.0000     -11.229635      -305.5739
  29   2.0000     -11.210599      -305.0559
  30   2.0000     -11.209334      -305.0215
  31   2.0000     -11.194952      -304.6301
  32   2.0000     -11.191337      -304.5318
  33   2.0000     -11.191126      -304.5260
  34   2.0000     -11.188647      -304.4586
  35   2.0000     -11.188506      -304.4547
  36   2.0000     -11.187272      -304.4212
  37   2.0000     -11.180005      -304.2234
  38   2.0000     -11.175020      -304.0878
  39   2.0000     -11.174318      -304.0686
  40   2.0000     -11.171529      -303.9927
  41   2.0000     -11.171272      -303.9858
  42   2.0000     -11.167831      -303.8921
  43   2.0000     -11.162055      -303.7350
  44   2.0000     -11.160170      -303.6837
  45   2.0000     -11.156984      -303.5970
  46   2.0000     -11.156512      -303.5841
  47   2.0000     -11.153263      -303.4957
  48   2.0000     -11.147288      -303.3331
  49   2.0000     -11.135742      -303.0190
  50   2.0000     -11.129294      -302.8435
  51   2.0000     -11.117067      -302.5108
  52   2.0000      -1.359909       -37.0050
  53   2.0000      -1.320392       -35.9297
  54   2.0000      -1.320359       -35.9288
  55   2.0000      -1.281195       -34.8631
  56   2.0000      -1.225892       -33.3582
  57   2.0000      -1.210394       -32.9365
  58   2.0000      -1.173633       -31.9362
  59   2.0000      -1.150544       -31.3079
  60   2.0000      -1.143289       -31.1105
  61   2.0000      -1.110286       -30.2124
  62   2.0000      -1.108856       -30.1735
  63   2.0000      -1.081640       -29.4329
  64   2.0000      -1.077692       -29.3255
  65   2.0000      -1.044979       -28.4353
  66   2.0000      -1.044614       -28.4254
  67   2.0000      -1.040882       -28.3238
  68   2.0000      -1.014910       -27.6171
  69   2.0000      -1.013146       -27.5691
  70   2.0000      -1.009080       -27.4585
  71   2.0000      -0.993265       -27.0281
  72   2.0000      -0.985834       -26.8259
  73   2.0000      -0.981469       -26.7071
  74   2.0000      -0.972809       -26.4715
  75   2.0000      -0.962207       -26.1830
  76   2.0000      -0.954695       -25.9786
  77   2.0000      -0.945724       -25.7345
  78   2.0000      -0.937062       -25.4987
  79   2.0000      -0.917310       -24.9613
  80   2.0000      -0.910110       -24.7654
  81   2.0000      -0.896393       -24.3921
  82   2.0000      -0.876394       -23.8479
  83   2.0000      -0.871640       -23.7185
  84   2.0000      -0.870827       -23.6964
  85   2.0000      -0.859347       -23.3840
  86   2.0000      -0.843069       -22.9411
  87   2.0000      -0.835560       -22.7367
  88   2.0000      -0.827049       -22.5051
  89   2.0000      -0.796822       -21.6826
  90   2.0000      -0.789454       -21.4821
  91   2.0000      -0.760019       -20.6812
  92   2.0000      -0.752325       -20.4718
  93   2.0000      -0.733413       -19.9572
  94   2.0000      -0.726592       -19.7716
  95   2.0000      -0.723226       -19.6800
  96   2.0000      -0.718628       -19.5549
  97   2.0000      -0.716141       -19.4872
  98   2.0000      -0.712281       -19.3821
  99   2.0000      -0.698050       -18.9949
 100   2.0000      -0.697138       -18.9701
 101   2.0000      -0.691887       -18.8272
 102   2.0000      -0.684963       -18.6388
 103   2.0000      -0.683974       -18.6119
 104   2.0000      -0.678533       -18.4638
 105   2.0000      -0.674464       -18.3531
 106   2.0000      -0.672289       -18.2939
 107   2.0000      -0.660392       -17.9702
 108   2.0000      -0.658038       -17.9061
 109   2.0000      -0.652657       -17.7597
 110   2.0000      -0.652087       -17.7442
 111   2.0000      -0.645760       -17.5720
 112   2.0000      -0.645157       -17.5556
 113   2.0000      -0.637482       -17.3468
 114   2.0000      -0.636698       -17.3254
 115   2.0000      -0.628340       -17.0980
 116   2.0000      -0.622830       -16.9481
 117   2.0000      -0.621254       -16.9052
 118   2.0000      -0.612921       -16.6784
 119   2.0000      -0.612144       -16.6573
 120   2.0000      -0.611642       -16.6436
 121   2.0000      -0.610882       -16.6229
 122   2.0000      -0.601282       -16.3617
 123   2.0000      -0.587741       -15.9933
 124   2.0000      -0.581325       -15.8186
 125   2.0000      -0.580922       -15.8077
 126   2.0000      -0.579931       -15.7807
 127   2.0000      -0.571190       -15.5429
 128   2.0000      -0.568282       -15.4638
 129   2.0000      -0.559854       -15.2344
 130   2.0000      -0.553458       -15.0604
 131   2.0000      -0.547797       -14.9063
 132   2.0000      -0.542573       -14.7642
 133   2.0000      -0.541140       -14.7252
 134   2.0000      -0.538209       -14.6454
 135   2.0000      -0.536375       -14.5955
 136   2.0000      -0.530852       -14.4452
 137   2.0000      -0.519468       -14.1355
 138   2.0000      -0.516557       -14.0562
 139   2.0000      -0.514903       -14.0112
 140   2.0000      -0.512480       -13.9453
 141   2.0000      -0.510452       -13.8901
 142   2.0000      -0.508367       -13.8334
 143   2.0000      -0.504788       -13.7360
 144   2.0000      -0.502443       -13.6722
 145   2.0000      -0.495943       -13.4953
 146   2.0000      -0.489265       -13.3136
 147   2.0000      -0.481804       -13.1106
 148   2.0000      -0.478051       -13.0084
 149   2.0000      -0.467577       -12.7234
 150   2.0000      -0.466420       -12.6919
 151   2.0000      -0.457051       -12.4370
 152   2.0000      -0.451740       -12.2925
 153   2.0000      -0.444735       -12.1018
 154   2.0000      -0.438886       -11.9427
 155   2.0000      -0.427513       -11.6332
 156   2.0000      -0.410884       -11.1807
 157   2.0000      -0.405477       -11.0336
 158   2.0000      -0.390967       -10.6387
 159   2.0000      -0.387320       -10.5395
 160   2.0000      -0.381715       -10.3870
 161   2.0000      -0.378468       -10.2986
 162   2.0000      -0.369380       -10.0513
 163   2.0000      -0.356598        -9.7035
 164   2.0000      -0.355856        -9.6833
 165   2.0000      -0.342040        -9.3074
 166   2.0000      -0.337676        -9.1886
 167   2.0000      -0.324622        -8.8334
 168   2.0000      -0.321482        -8.7480
 169   2.0000      -0.305020        -8.3000
 170   2.0000      -0.299545        -8.1510
 171   2.0000      -0.285473        -7.7681
 172   2.0000      -0.279283        -7.5997
 173   2.0000      -0.263884        -7.1807
 174   2.0000      -0.241453        -6.5703
 175   2.0000      -0.189962        -5.1691
 176   2.0000      -0.180864        -4.9216
 177   2.0000      -0.078884        -2.1465
 178   2.0000      -0.059552        -1.6205
 179   0.0000       0.028305         0.7702
 180   0.0000       0.065386         1.7793
 181   0.0000       0.090316         2.4576
 182   0.0000       0.106607         2.9009
 183   0.0000       0.114463         3.1147

MULLIKEN ATOMIC CHARGES
-----------------------
   0 C :    0.216265
   1 N :   -0.455755
   2 C :   -0.071745
   3 N :   -0.340335
   4 C :   -0.058432
   5 N :   -0.567480
   6 C :   -0.106410
   7 N :   -0.340839
   8 C :    0.210255
   9 N :   -0.562109
  10 C :    0.118884
  11 N :   -0.438665
  12 C :   -0.065287
  13 N :   -0.429500
  14 C :    0.223968
  15 N :   -0.440745
  16 C :    0.230140
  17 C :   -0.121179
  18 C :   -0.184198
  19 C :    0.216887
  20 C :    0.213170
  21 C :   -0.067673
  22 C :   -0.091231
  23 C :   -0.039577
  24 C :    0.193283
  25 C :    0.114726
  26 C :   -0.090110
  27 C :    0.215192
  28 C :   -0.061809
  29 C :   -0.181697
  30 C :    0.246246
  31 C :    0.229704
  32 C :   -0.061940
  33 C :   -0.060402
  34 C :   -0.051555
  35 C :    0.228667
  36 C :    0.108281
  37 C :   -0.064208
  38 C :    0.230697
  39 C :   -0.057355
  40 C :   -0.181480
  41 C :    0.226344
  42 C :    0.197715
  43 C :   -0.072248
  44 C :   -0.089010
  45 C :   -0.061453
  46 C :    0.212171
  47 C :    0.115225
  48 C :   -0.066707
  49 C :    0.238941
  50 C :   -0.046251
  51 C :   -0.192651
  52 H :    0.036258
  53 H :   -0.017816
  54 H :    0.045996
  55 H :    0.034972
  56 H :    0.049346
  57 H :    0.047591
  58 H :    0.046831
  59 H :   -0.006078
  60 H :    0.043900
  61 H :    0.171209
  62 H :    0.175402
  63 H :    0.054872
  64 H :   -0.023686
  65 H :    0.046968
  66 H :    0.055317
  67 H :    0.062103
  68 H :    0.057022
  69 H :    0.056102
  70 H :   -0.030465
  71 H :    0.044351
  72 H :    0.071261
  73 H :   -0.007975
  74 H :    0.060334
  75 H :    0.070738
  76 H :    0.074884
  77 H :    0.067974
  78 H :    0.067317
  79 H :   -0.016747
  80 H :    0.061333
  81 H :    0.054684
  82 H :   -0.024695
  83 H :    0.042315
  84 H :    0.054606
  85 H :    0.061243
  86 H :    0.055790
  87 H :    0.057440
  88 H :   -0.014400
  89 H :    0.046983
Sum of atomic charges:    0.0000000

LOEWDIN ATOMIC CHARGES
----------------------
   0 C :   -0.018140
   1 N :    0.119943
   2 C :   -0.101053
   3 N :    0.182850
   4 C :   -0.011779
   5 N :   -0.134042
   6 C :   -0.024754
   7 N :    0.175130
   8 C :   -0.022749
   9 N :   -0.140536
  10 C :    0.022782
  11 N :    0.141350
  12 C :   -0.112065
  13 N :    0.166121
  14 C :   -0.019312
  15 N :    0.139379
  16 C :   -0.060673
  17 C :   -0.041324
  18 C :   -0.109134
  19 C :   -0.076288
  20 C :    0.004169
  21 C :   -0.112001
  22 C :    0.036287
  23 C :   -0.014629
  24 C :   -0.013123
  25 C :    0.029676
  26 C :   -0.108762
  27 C :   -0.116652
  28 C :   -0.027893
  29 C :   -0.100270
  30 C :   -0.029314
  31 C :    0.023879
  32 C :   -0.094775
  33 C :    0.081703
  34 C :   -0.015404
  35 C :    0.023303
  36 C :    0.035216
  37 C :   -0.093974
  38 C :   -0.052896
  39 C :   -0.017401
  40 C :   -0.108518
  41 C :   -0.090598
  42 C :   -0.009945
  43 C :   -0.099029
  44 C :    0.034526
  45 C :   -0.028007
  46 C :    0.002617
  47 C :    0.029644
  48 C :   -0.094535
  49 C :   -0.069381
  50 C :   -0.018572
  51 C :   -0.108399
  52 H :    0.022560
  53 H :    0.002565
  54 H :    0.010007
  55 H :    0.022238
  56 H :    0.021803
  57 H :    0.026328
  58 H :    0.026872
  59 H :    0.008340
  60 H :    0.020985
  61 H :    0.060149
  62 H :    0.061828
  63 H :    0.030541
  64 H :    0.000526
  65 H :    0.045838
  66 H :    0.029091
  67 H :    0.028058
  68 H :    0.031529
  69 H :    0.030168
  70 H :   -0.004911
  71 H :    0.043277
  72 H :    0.037673
  73 H :    0.007146
  74 H :    0.050630
  75 H :    0.037402
  76 H :    0.034787
  77 H :    0.036175
  78 H :    0.035877
  79 H :    0.002895
  80 H :    0.050776
  81 H :    0.029222
  82 H :   -0.002656
  83 H :    0.042671
  84 H :    0.030085
  85 H :    0.027570
  86 H :    0.030299
  87 H :    0.031511
  88 H :    0.002427
  89 H :    0.045070

  Mayer bond orders larger than 0.100000
B(  0-C ,  1-N ) :   1.0996 B(  0-C , 17-C ) :   1.7088 B(  0-C , 52-H ) :   0.9641
B(  1-N ,  8-C ) :   1.0877 B(  1-N , 10-C ) :   0.9778 B(  2-C , 12-C ) :   1.4945
B(  2-C , 16-C ) :   1.3674 B(  2-C , 53-H ) :   0.9732 B(  3-N , 14-C ) :   1.2212
B(  3-N , 16-C ) :   1.1828 B(  3-N , 61-H ) :   0.8988 B(  4-C ,  6-C ) :   1.2133
B(  4-C , 17-C ) :   1.2156 B(  4-C , 18-C ) :   1.4662 B(  5-N , 19-C ) :   1.4571
B(  5-N , 27-C ) :   1.3729 B(  6-C ,  8-C ) :   1.7207 B(  6-C , 54-H ) :   0.8977
B(  7-N , 30-C ) :   1.1961 B(  7-N , 38-C ) :   1.1891 B(  7-N , 62-H ) :   0.8968
B(  8-C , 55-H ) :   0.9636 B(  9-N , 41-C ) :   1.3949 B(  9-N , 49-C ) :   1.4246
B( 10-C , 56-H ) :   0.9774 B( 10-C , 57-H ) :   0.9822 B( 10-C , 58-H ) :   0.9842
B( 11-N , 20-C ) :   1.1303 B( 11-N , 24-C ) :   1.1061 B( 11-N , 25-C ) :   0.9606
B( 12-C , 14-C ) :   1.3568 B( 12-C , 59-H ) :   0.9498 B( 13-N , 31-C ) :   1.1607
B( 13-N , 35-C ) :   1.1604 B( 13-N , 36-C ) :   0.9415 B( 14-C , 18-C ) :   1.1217
B( 15-N , 42-C ) :   1.1085 B( 15-N , 46-C ) :   1.1252 B( 15-N , 47-C ) :   0.9609
B( 16-C , 51-C ) :   1.1687 B( 17-C , 60-H ) :   0.9197 B( 18-C , 19-C ) :   1.1209
B( 19-C , 21-C ) :   1.2528 B( 20-C , 28-C ) :   1.6296 B( 20-C , 63-H ) :   0.9703
B( 21-C , 26-C ) :   1.5830 B( 21-C , 64-H ) :   0.9290 B( 22-C , 23-C ) :   1.2884
B( 22-C , 28-C ) :   1.2629 B( 22-C , 29-C ) :   1.2274 B( 23-C , 24-C ) :   1.6213
B( 23-C , 65-H ) :   0.9703 B( 24-C , 66-H ) :   0.9695 B( 25-C , 67-H ) :   0.9761
B( 25-C , 68-H ) :   0.9828 B( 25-C , 69-H ) :   0.9823 B( 26-C , 27-C ) :   1.2594
B( 26-C , 70-H ) :   0.9682 B( 27-C , 29-C ) :   1.2054 B( 28-C , 71-H ) :   0.9720
B( 29-C , 30-C ) :   1.2460 B( 30-C , 32-C ) :   1.2796 B( 31-C , 39-C ) :   1.5879
B( 31-C , 72-H ) :   0.9681 B( 32-C , 37-C ) :   1.5789 B( 32-C , 73-H ) :   0.9786
B( 33-C , 34-C ) :   1.3064 B( 33-C , 39-C ) :   1.3042 B( 33-C , 40-C ) :   1.1769
B( 34-C , 35-C ) :   1.5858 B( 34-C , 74-H ) :   0.9697 B( 35-C , 75-H ) :   0.9681
B( 36-C , 76-H ) :   0.9768 B( 36-C , 77-H ) :   0.9816 B( 36-C , 78-H ) :   0.9823
B( 37-C , 38-C ) :   1.2859 B( 37-C , 79-H ) :   0.9764 B( 38-C , 40-C ) :   1.2333
B( 39-C , 80-H ) :   0.9705 B( 40-C , 41-C ) :   1.2507 B( 41-C , 43-C ) :   1.1838
B( 42-C , 50-C ) :   1.6320 B( 42-C , 81-H ) :   0.9696 B( 43-C , 48-C ) :   1.6692
B( 43-C , 82-H ) :   0.9722 B( 44-C , 45-C ) :   1.2643 B( 44-C , 50-C ) :   1.2734
B( 44-C , 51-C ) :   1.2587 B( 45-C , 46-C ) :   1.6336 B( 45-C , 83-H ) :   0.9718
B( 46-C , 84-H ) :   0.9700 B( 47-C , 85-H ) :   0.9762 B( 47-C , 86-H ) :   0.9829
B( 47-C , 87-H ) :   0.9824 B( 48-C , 49-C ) :   1.1872 B( 48-C , 88-H ) :   0.9748
B( 49-C , 51-C ) :   1.2453 B( 50-C , 89-H ) :   0.9708

MP2 TOTAL ENERGY:    -2130.811324054 Eh
FINAL SINGLE POINT ENERGY     -2130.811324053795

DIPOLE MOMENT
-------------
                                X             Y             Z
Electronic contribution:      2.91120      -4.19574      -0.10295
Nuclear contribution   :     -0.04490       0.15704       0.11898
                        -----------------------------------------
Total Dipole Moment    :      2.86630      -4.03870       0.01603
                        -----------------------------------------
Magnitude (a.u.)       :      4.95248
Magnitude (Debye)      :     12.58820

Rotational constants in cm-1:     0.001503     0.001477     0.000760
Rotational constants in MHz :    45.057916    44.292755    22.786735

                             ****ORCA TERMINATED NORMALLY****
TOTAL RUN TIME: 0 days 1 hours 9 minutes 30 seconds 87 msec
