                         Program Version 5.0.4 -  RELEASE  -
|  1> ! PAL2
|  2> ! mp2 cc-pvdz TightSCF  NoKeepInts
|  3>
|  4> %scf
|  5>   MaxCore 2000
|  6> end
|  7> %mp2
|  8>   MaxCore 2000
|  9> end
| 10> * xyz 0 1
| 11>    C       -4.34500         5.57700         1.16300
| 12>    C        1.47400         4.04100         0.05700
| 13>    C       -2.80200         4.09300         0.04900
| 14>    C       -2.85900         4.95000        -1.06100
| 15>    C       -3.64800         6.08300        -1.02300
| 16>    C       -5.18300         7.62300         0.10000
| 17>    C        0.13200         4.30700         0.06100
| 18>    C       -0.56900         3.05600         0.04700
| 19>    C        1.64900         2.61800         0.02300
| 20>    C       -3.56700         4.43500         1.17500
| 21>    N       -4.37800         6.38100         0.07700
| 22>    N        0.38800         2.06700         0.02500
| 23>    N       -2.01000         0.39500        -0.07500
| 24>    N       -0.38800        -2.07400        -0.02700
| 25>    N        2.01000        -0.40100         0.06500
| 26>    C       -1.96000         2.86100         0.02400
| 27>    C       -2.62300         1.61500        -0.01800
| 28>    C       -5.57300        -4.32900         1.06600
| 29>    C       -4.07300         1.47100         0.05600
| 30>    C       -4.10600        -2.75600        -0.02600
| 31>    C       -4.99500        -2.75700        -1.11100
| 32>    C       -6.13200        -3.54200        -1.07600
| 33>    C       -7.65100        -5.11300         0.04000
| 34>    C       -4.32400         0.14100         0.03700
| 35>    C       -3.02500        -0.52000        -0.04800
| 36>    C       -4.42200        -3.56600         1.07500
| 37>    N       -6.40700        -4.31300         0.00100
| 38>    C       -2.86700        -1.92200        -0.04000
| 39>    C       -1.65000        -2.62400        -0.02700
| 40>    C        3.56800        -6.14200        -1.04000
| 41>    C       -1.47600        -4.04900        -0.03400
| 42>    C        2.80300        -4.09900        -0.00800
| 43>    C        3.65700        -4.38400         1.06900
| 44>    C        4.42700        -5.53000         1.05900
| 45>    C        5.24500        -7.58800         0.01400
| 46>    C       -0.13400        -4.31500        -0.02200
| 47>    C        0.56800        -3.06400        -0.02700
| 48>    C        2.77500        -5.01200        -1.07400
| 49>    N        4.37600        -6.39100         0.01700
| 50>    C        1.95900        -2.86900        -0.00900
| 51>    C        2.62100        -1.62200         0.00900
| 52>    C        5.54300         4.33900        -1.13000
| 53>    C        4.07000        -1.47900        -0.09400
| 54>    C        4.10400         2.75100        -0.02100
| 55>    C        5.02700         2.72900         1.03600
| 56>    C        6.16600         3.50900         0.97800
| 57>    C        7.61900         5.15300        -0.11500
| 58>    C        4.32100        -0.14800        -0.09200
| 59>    C        3.02500         0.51400         0.01500
| 60>    C        4.38700         3.58200        -1.11500
| 61>    C        2.86600         1.91600         0.01300
| 62>    N        6.41300         4.29600        -0.09500
| 63>    H       -4.96000         5.87300         2.00400
| 64>    H        2.27400         4.76600         0.08100
| 65>    H       -2.28400         4.74500        -1.95600
| 66>    H       -3.71700         6.77700        -1.85000
| 67>    H       -4.55000         8.45100         0.42500
| 68>    H       -5.56500         7.81200        -0.90300
| 69>    H       -6.01100         7.49000         0.79600
| 70>    H       -0.33200         5.28200         0.06900
| 71>    H       -3.57600         3.80700         2.05800
| 72>    H        0.18200         1.07200         0.00500
| 73>    H       -0.18300        -1.08000        -0.02100
| 74>    H       -5.86400        -4.96200         1.89500
| 75>    H       -4.79400         2.27200         0.13900
| 76>    H       -4.80000        -2.16000        -1.99400
| 77>    H       -6.84100        -3.58200        -1.89300
| 78>    H       -8.42800        -4.53600         0.54600
| 79>    H       -7.95600        -5.33700        -0.98100
| 80>    H       -7.45600        -6.03700         0.58400
| 81>    H       -5.28700        -0.34400         0.10000
| 82>    H       -3.78000        -3.60100         1.94700
| 83>    H        3.58700        -6.86800        -1.84300
| 84>    H       -2.27600        -4.77400        -0.05000
| 85>    H        3.71400        -3.72400         1.92600
| 86>    H        5.09200        -5.79500         1.87100
| 87>    H        6.20500        -7.32900        -0.43900
| 88>    H        5.39300        -7.91700         1.04200
| 89>    H        4.75900        -8.37300        -0.56400
| 90>    H        0.32900        -5.29000        -0.00800
| 91>    H        2.14600        -4.84200        -1.94000
| 92>    H        5.80800         4.98600        -1.95600
| 93>    H        4.78800        -2.28100        -0.18500
| 94>    H        4.86000         2.11400         1.91200
| 95>    H        6.90100         3.53100         1.77200
| 96>    H        7.38300         6.10900         0.35600
| 97>    H        8.41400         4.65200         0.43500
| 98>    H        7.92100         5.31000        -1.15000
| 99>    H        5.28300         0.33600        -0.17900
|100>    H        3.72000         3.63200        -1.96700
|101> *
|102>
|103>                          ****END OF INPUT****

CARTESIAN COORDINATES (ANGSTROEM)
---------------------------------
  C     -4.345000    5.577000    1.163000
  C      1.474000    4.041000    0.057000
  C     -2.802000    4.093000    0.049000
  C     -2.859000    4.950000   -1.061000
  C     -3.648000    6.083000   -1.023000
  C     -5.183000    7.623000    0.100000
  C      0.132000    4.307000    0.061000
  C     -0.569000    3.056000    0.047000
  C      1.649000    2.618000    0.023000
  C     -3.567000    4.435000    1.175000
  N     -4.378000    6.381000    0.077000
  N      0.388000    2.067000    0.025000
  N     -2.010000    0.395000   -0.075000
  N     -0.388000   -2.074000   -0.027000
  N      2.010000   -0.401000    0.065000
  C     -1.960000    2.861000    0.024000
  C     -2.623000    1.615000   -0.018000
  C     -5.573000   -4.329000    1.066000
  C     -4.073000    1.471000    0.056000
  C     -4.106000   -2.756000   -0.026000
  C     -4.995000   -2.757000   -1.111000
  C     -6.132000   -3.542000   -1.076000
  C     -7.651000   -5.113000    0.040000
  C     -4.324000    0.141000    0.037000
  C     -3.025000   -0.520000   -0.048000
  C     -4.422000   -3.566000    1.075000
  N     -6.407000   -4.313000    0.001000
  C     -2.867000   -1.922000   -0.040000
  C     -1.650000   -2.624000   -0.027000
  C      3.568000   -6.142000   -1.040000
  C     -1.476000   -4.049000   -0.034000
  C      2.803000   -4.099000   -0.008000
  C      3.657000   -4.384000    1.069000
  C      4.427000   -5.530000    1.059000
  C      5.245000   -7.588000    0.014000
  C     -0.134000   -4.315000   -0.022000
  C      0.568000   -3.064000   -0.027000
  C      2.775000   -5.012000   -1.074000
  N      4.376000   -6.391000    0.017000
  C      1.959000   -2.869000   -0.009000
  C      2.621000   -1.622000    0.009000
  C      5.543000    4.339000   -1.130000
  C      4.070000   -1.479000   -0.094000
  C      4.104000    2.751000   -0.021000
  C      5.027000    2.729000    1.036000
  C      6.166000    3.509000    0.978000
  C      7.619000    5.153000   -0.115000
  C      4.321000   -0.148000   -0.092000
  C      3.025000    0.514000    0.015000
  C      4.387000    3.582000   -1.115000
  C      2.866000    1.916000    0.013000
  N      6.413000    4.296000   -0.095000
  H     -4.960000    5.873000    2.004000
  H      2.274000    4.766000    0.081000
  H     -2.284000    4.745000   -1.956000
  H     -3.717000    6.777000   -1.850000
  H     -4.550000    8.451000    0.425000
  H     -5.565000    7.812000   -0.903000
  H     -6.011000    7.490000    0.796000
  H     -0.332000    5.282000    0.069000
  H     -3.576000    3.807000    2.058000
  H      0.182000    1.072000    0.005000
  H     -0.183000   -1.080000   -0.021000
  H     -5.864000   -4.962000    1.895000
  H     -4.794000    2.272000    0.139000
  H     -4.800000   -2.160000   -1.994000
  H     -6.841000   -3.582000   -1.893000
  H     -8.428000   -4.536000    0.546000
  H     -7.956000   -5.337000   -0.981000
  H     -7.456000   -6.037000    0.584000
  H     -5.287000   -0.344000    0.100000
  H     -3.780000   -3.601000    1.947000
  H      3.587000   -6.868000   -1.843000
  H     -2.276000   -4.774000   -0.050000
  H      3.714000   -3.724000    1.926000
  H      5.092000   -5.795000    1.871000
  H      6.205000   -7.329000   -0.439000
  H      5.393000   -7.917000    1.042000
  H      4.759000   -8.373000   -0.564000
  H      0.329000   -5.290000   -0.008000
  H      2.146000   -4.842000   -1.940000
  H      5.808000    4.986000   -1.956000
  H      4.788000   -2.281000   -0.185000
  H      4.860000    2.114000    1.912000
  H      6.901000    3.531000    1.772000
  H      7.383000    6.109000    0.356000
  H      8.414000    4.652000    0.435000
  H      7.921000    5.310000   -1.150000
  H      5.283000    0.336000   -0.179000
  H      3.720000    3.632000   -1.967000

 Total Charge           Charge          ....    0
 Multiplicity           Mult            ....    1
 Number of Electrons    NEL             ....  358
 Basis Dimension        Dim             ....  918

ORBITAL ENERGIES
----------------

  NO   OCC          E(Eh)            E(eV)
   0   2.0000     -15.664102      -426.2419
   1   2.0000     -15.637958      -425.5305
   2   2.0000     -15.625555      -425.1930
   3   2.0000     -15.608761      -424.7360
   4   2.0000     -15.517925      -422.2642
   5   2.0000     -15.512100      -422.1057
   6   2.0000     -15.446962      -420.3332
   7   2.0000     -15.435975      -420.0342
   8   2.0000     -11.317643      -307.9687
   9   2.0000     -11.314933      -307.8950
  10   2.0000     -11.313890      -307.8666
  11   2.0000     -11.301836      -307.5386
  12   2.0000     -11.295225      -307.3587
  13   2.0000     -11.293905      -307.3228
  14   2.0000     -11.291280      -307.2513
  15   2.0000     -11.284896      -307.0776
  16   2.0000     -11.283612      -307.0427
  17   2.0000     -11.280366      -306.9544
  18   2.0000     -11.270244      -306.6789
  19   2.0000     -11.267346      -306.6001
  20   2.0000     -11.264887      -306.5332
  21   2.0000     -11.251680      -306.1738
  22   2.0000     -11.250788      -306.1495
  23   2.0000     -11.241188      -305.8883
  24   2.0000     -11.233194      -305.6707
  25   2.0000     -11.232352      -305.6478
  26   2.0000     -11.229789      -305.5781
  27   2.0000     -11.224114      -305.4237
  28   2.0000     -11.223865      -305.4169
  29   2.0000     -11.214582      -305.1643
  30   2.0000     -11.212040      -305.0951
  31   2.0000     -11.211211      -305.0726
  32   2.0000     -11.200915      -304.7924
  33   2.0000     -11.200743      -304.7877
  34   2.0000     -11.190540      -304.5101
  35   2.0000     -11.190285      -304.5031
  36   2.0000     -11.181211      -304.2562
  37   2.0000     -11.180590      -304.2393
  38   2.0000     -11.178722      -304.1885
  39   2.0000     -11.168708      -303.9160
  40   2.0000     -11.164202      -303.7934
  41   2.0000     -11.162999      -303.7606
  42   2.0000     -11.159168      -303.6564
  43   2.0000     -11.159055      -303.6533
  44   2.0000     -11.157577      -303.6131
  45   2.0000     -11.155348      -303.5525
  46   2.0000     -11.153778      -303.5097
  47   2.0000     -11.151047      -303.4354
  48   2.0000     -11.150420      -303.4184
  49   2.0000     -11.145410      -303.2820
  50   2.0000     -11.130674      -302.8810
  51   2.0000     -11.128175      -302.8130
  52   2.0000      -1.346453       -36.6389
  53   2.0000      -1.324604       -36.0443
  54   2.0000      -1.313684       -35.7472
  55   2.0000      -1.299597       -35.3638
  56   2.0000      -1.217714       -33.1357
  57   2.0000      -1.208969       -32.8977
  58   2.0000      -1.166727       -31.7483
  59   2.0000      -1.148833       -31.2613
  60   2.0000      -1.130572       -30.7644
  61   2.0000      -1.112259       -30.2661
  62   2.0000      -1.103142       -30.0180
  63   2.0000      -1.090277       -29.6679
  64   2.0000      -1.068680       -29.0803
  65   2.0000      -1.048391       -28.5282
  66   2.0000      -1.038330       -28.2544
  67   2.0000      -1.031407       -28.0660
  68   2.0000      -1.025253       -27.8986
  69   2.0000      -1.013105       -27.5680
  70   2.0000      -1.006344       -27.3840
  71   2.0000      -0.992694       -27.0126
  72   2.0000      -0.982504       -26.7353
  73   2.0000      -0.974192       -26.5091
  74   2.0000      -0.971489       -26.4356
  75   2.0000      -0.960096       -26.1255
  76   2.0000      -0.949511       -25.8375
  77   2.0000      -0.947807       -25.7911
  78   2.0000      -0.931213       -25.3396
  79   2.0000      -0.921117       -25.0649
  80   2.0000      -0.897275       -24.4161
  81   2.0000      -0.888044       -24.1649
  82   2.0000      -0.875369       -23.8200
  83   2.0000      -0.865716       -23.5573
  84   2.0000      -0.863417       -23.4948
  85   2.0000      -0.855038       -23.2668
  86   2.0000      -0.849902       -23.1270
  87   2.0000      -0.835338       -22.7307
  88   2.0000      -0.822364       -22.3777
  89   2.0000      -0.796976       -21.6868
  90   2.0000      -0.794997       -21.6330
  91   2.0000      -0.743545       -20.2329
  92   2.0000      -0.733651       -19.9637
  93   2.0000      -0.726946       -19.7812
  94   2.0000      -0.722516       -19.6606
  95   2.0000      -0.716238       -19.4898
  96   2.0000      -0.710229       -19.3263
  97   2.0000      -0.704310       -19.1652
  98   2.0000      -0.701397       -19.0860
  99   2.0000      -0.693627       -18.8745
 100   2.0000      -0.691590       -18.8191
 101   2.0000      -0.682130       -18.5617
 102   2.0000      -0.679099       -18.4792
 103   2.0000      -0.674543       -18.3553
 104   2.0000      -0.670966       -18.2579
 105   2.0000      -0.669026       -18.2051
 106   2.0000      -0.664319       -18.0770
 107   2.0000      -0.659168       -17.9369
 108   2.0000      -0.656190       -17.8558
 109   2.0000      -0.655552       -17.8385
 110   2.0000      -0.650109       -17.6904
 111   2.0000      -0.647337       -17.6149
 112   2.0000      -0.642618       -17.4865
 113   2.0000      -0.636367       -17.3164
 114   2.0000      -0.633900       -17.2493
 115   2.0000      -0.632773       -17.2186
 116   2.0000      -0.622955       -16.9515
 117   2.0000      -0.615798       -16.7567
 118   2.0000      -0.613718       -16.7001
 119   2.0000      -0.608750       -16.5649
 120   2.0000      -0.606016       -16.4905
 121   2.0000      -0.600430       -16.3385
 122   2.0000      -0.598314       -16.2809
 123   2.0000      -0.593704       -16.1555
 124   2.0000      -0.591666       -16.1000
 125   2.0000      -0.583975       -15.8908
 126   2.0000      -0.576184       -15.6788
 127   2.0000      -0.571788       -15.5591
 128   2.0000      -0.565708       -15.3937
 129   2.0000      -0.562677       -15.3112
 130   2.0000      -0.556994       -15.1566
 131   2.0000      -0.548396       -14.9226
 132   2.0000      -0.539802       -14.6888
 133   2.0000      -0.535568       -14.5735
 134   2.0000      -0.533624       -14.5207
 135   2.0000      -0.531645       -14.4668
 136   2.0000      -0.523800       -14.2533
 137   2.0000      -0.520992       -14.1769
 138   2.0000      -0.517411       -14.0795
 139   2.0000      -0.514278       -13.9942
 140   2.0000      -0.509631       -13.8678
 141   2.0000      -0.506454       -13.7813
 142   2.0000      -0.503083       -13.6896
 143   2.0000      -0.499336       -13.5876
 144   2.0000      -0.498213       -13.5571
 145   2.0000      -0.496112       -13.4999
 146   2.0000      -0.493509       -13.4291
 147   2.0000      -0.490489       -13.3469
 148   2.0000      -0.485645       -13.2151
 149   2.0000      -0.465998       -12.6804
 150   2.0000      -0.461676       -12.5629
 151   2.0000      -0.453654       -12.3446
 152   2.0000      -0.448419       -12.2021
 153   2.0000      -0.443202       -12.0601
 154   2.0000      -0.441019       -12.0007
 155   2.0000      -0.440146       -11.9770
 156   2.0000      -0.430940       -11.7265
 157   2.0000      -0.424344       -11.5470
 158   2.0000      -0.396500       -10.7893
 159   2.0000      -0.382543       -10.4095
 160   2.0000      -0.375963       -10.2305
 161   2.0000      -0.374040       -10.1781
 162   2.0000      -0.365896        -9.9565
 163   2.0000      -0.358901        -9.7662
 164   2.0000      -0.350358        -9.5337
 165   2.0000      -0.339478        -9.2377
 166   2.0000      -0.338290        -9.2053
 167   2.0000      -0.335366        -9.1258
 168   2.0000      -0.322005        -8.7622
 169   2.0000      -0.299791        -8.1577
 170   2.0000      -0.295730        -8.0472
 171   2.0000      -0.286607        -7.7990
 172   2.0000      -0.284945        -7.7537
 173   2.0000      -0.259564        -7.0631
 174   2.0000      -0.241035        -6.5589
 175   2.0000      -0.186044        -5.0625
 176   2.0000      -0.175855        -4.7853
 177   2.0000      -0.063324        -1.7231
 178   2.0000      -0.051995        -1.4148
 179   0.0000       0.033227         0.9042
 180   0.0000       0.066301         1.8041
 181   0.0000       0.092233         2.5098
 182   0.0000       0.095994         2.6121
 183   0.0000       0.117478         3.1967

MULLIKEN ATOMIC CHARGES
-----------------------
   0 C :    0.219861
   1 N :   -0.430384
   2 C :   -0.066055
   3 N :   -0.339913
   4 C :   -0.073034
   5 N :   -0.564766
   6 C :   -0.042638
   7 N :   -0.337108
   8 C :    0.215390
   9 N :   -0.564784
  10 C :    0.110228
  11 N :   -0.437724
  12 C :   -0.064178
  13 N :   -0.445406
  14 C :    0.233058
  15 N :   -0.440912
  16 C :    0.244196
  17 C :   -0.049407
  18 C :   -0.199717
  19 C :    0.238239
  20 C :    0.200601
  21 C :   -0.075813
  22 C :   -0.086351
  23 C :   -0.056964
  24 C :    0.212937
  25 C :    0.113883
  26 C :   -0.069837
  27 C :    0.234934
  28 C :   -0.046119
  29 C :   -0.191272
  30 C :    0.228342
  31 C :    0.199068
  32 C :   -0.066342
  33 C :   -0.092136
  34 C :   -0.050701
  35 C :    0.191701
  36 C :    0.117527
  37 C :   -0.068670
  38 C :    0.240207
  39 C :   -0.062989
  40 C :   -0.196840
  41 C :    0.219307
  42 C :    0.208055
  43 C :   -0.074938
  44 C :   -0.089546
  45 C :   -0.045536
  46 C :    0.194891
  47 C :    0.115983
  48 C :   -0.078001
  49 C :    0.217830
  50 C :   -0.059516
  51 C :   -0.189169
  52 H :    0.066829
  53 H :   -0.011171
  54 H :    0.054058
  55 H :    0.064635
  56 H :    0.070134
  57 H :    0.065210
  58 H :    0.063838
  59 H :   -0.020337
  60 H :    0.055083
  61 H :    0.174870
  62 H :    0.170463
  63 H :    0.055916
  64 H :   -0.025869
  65 H :    0.045542
  66 H :    0.057606
  67 H :    0.061590
  68 H :    0.057914
  69 H :    0.059656
  70 H :   -0.020194
  71 H :    0.048358
  72 H :    0.047021
  73 H :   -0.017698
  74 H :    0.038127
  75 H :    0.045965
  76 H :    0.054125
  77 H :    0.052135
  78 H :    0.051374
  79 H :   -0.012918
  80 H :    0.038217
  81 H :    0.052253
  82 H :   -0.022860
  83 H :    0.043439
  84 H :    0.051804
  85 H :    0.057181
  86 H :    0.056601
  87 H :    0.055775
  88 H :   -0.025980
  89 H :    0.041832
Sum of atomic charges:   -0.0000000

LOEWDIN ATOMIC CHARGES
----------------------
   0 C :    0.014858
   1 N :    0.159945
   2 C :   -0.100821
   3 N :    0.175566
   4 C :    0.068334
   5 N :   -0.143258
   6 C :   -0.015024
   7 N :    0.177914
   8 C :    0.012184
   9 N :   -0.139112
  10 C :    0.033895
  11 N :    0.144096
  12 C :   -0.099823
  13 N :    0.127707
  14 C :   -0.053069
  15 N :    0.137352
  16 C :   -0.032555
  17 C :   -0.017470
  18 C :   -0.113123
  19 C :   -0.087552
  20 C :   -0.006085
  21 C :   -0.102112
  22 C :    0.042685
  23 C :   -0.025729
  24 C :    0.005030
  25 C :    0.030300
  26 C :   -0.098398
  27 C :   -0.076302
  28 C :   -0.017578
  29 C :   -0.113700
  30 C :   -0.055350
  31 C :   -0.012791
  32 C :   -0.101706
  33 C :    0.017179
  34 C :   -0.023487
  35 C :   -0.019231
  36 C :    0.026429
  37 C :   -0.105732
  38 C :   -0.036143
  39 C :   -0.029584
  40 C :   -0.111322
  41 C :   -0.092672
  42 C :   -0.001907
  43 C :   -0.108526
  44 C :    0.032222
  45 C :   -0.018170
  46 C :   -0.013219
  47 C :    0.028900
  48 C :   -0.108943
  49 C :   -0.102748
  50 C :   -0.027926
  51 C :   -0.108437
  52 H :    0.035204
  53 H :    0.005692
  54 H :    0.048659
  55 H :    0.034321
  56 H :    0.032130
  57 H :    0.034538
  58 H :    0.034629
  59 H :    0.001921
  60 H :    0.048913
  61 H :    0.061572
  62 H :    0.059203
  63 H :    0.030484
  64 H :   -0.002902
  65 H :    0.044313
  66 H :    0.030842
  67 H :    0.027993
  68 H :    0.031920
  69 H :    0.031675
  70 H :   -0.000067
  71 H :    0.045854
  72 H :    0.026389
  73 H :    0.002477
  74 H :    0.041328
  75 H :    0.025594
  76 H :    0.024067
  77 H :    0.028740
  78 H :    0.028422
  79 H :    0.004894
  80 H :    0.040709
  81 H :    0.028599
  82 H :   -0.001431
  83 H :    0.044053
  84 H :    0.028227
  85 H :    0.025672
  86 H :    0.030529
  87 H :    0.030712
  88 H :   -0.003093
  89 H :    0.042230

  Mayer bond orders larger than 0.100000
B(  0-C ,  1-N ) :   1.1507 B(  0-C , 17-C ) :   1.5882 B(  0-C , 52-H ) :   0.9686
B(  1-N ,  8-C ) :   1.1442 B(  1-N , 10-C ) :   0.9474 B(  2-C , 12-C ) :   1.5516
B(  2-C , 16-C ) :   1.3054 B(  2-C , 53-H ) :   0.9784 B(  3-N , 14-C ) :   1.1895
B(  3-N , 16-C ) :   1.2006 B(  3-N , 61-H ) :   0.8969 B(  4-C ,  6-C ) :   1.3019
B(  4-C , 17-C ) :   1.3055 B(  4-C , 18-C ) :   1.1764 B(  5-N , 19-C ) :   1.3946
B(  5-N , 27-C ) :   1.4244 B(  6-C ,  8-C ) :   1.5929 B(  6-C , 54-H ) :   0.9713
B(  7-N , 30-C ) :   1.1901 B(  7-N , 38-C ) :   1.2080 B(  7-N , 62-H ) :   0.8997
B(  8-C , 55-H ) :   0.9692 B(  9-N , 41-C ) :   1.4214 B(  9-N , 49-C ) :   1.4040
B( 10-C , 56-H ) :   0.9764 B( 10-C , 57-H ) :   0.9814 B( 10-C , 58-H ) :   0.9829
B( 11-N , 20-C ) :   1.1157 B( 11-N , 24-C ) :   1.1315 B( 11-N , 25-C ) :   0.9585
B( 12-C , 14-C ) :   1.3054 B( 12-C , 59-H ) :   0.9772 B( 13-N , 31-C ) :   1.1032
B( 13-N , 35-C ) :   1.0953 B( 13-N , 36-C ) :   0.9705 B( 14-C , 18-C ) :   1.2228
B( 15-N , 42-C ) :   1.1216 B( 15-N , 46-C ) :   1.1040 B( 15-N , 47-C ) :   0.9636
B( 16-C , 51-C ) :   1.2161 B( 17-C , 60-H ) :   0.9713 B( 18-C , 19-C ) :   1.2569
B( 19-C , 21-C ) :   1.1885 B( 20-C , 28-C ) :   1.6225 B( 20-C , 63-H ) :   0.9704
B( 21-C , 26-C ) :   1.6607 B( 21-C , 64-H ) :   0.9724 B( 22-C , 23-C ) :   1.2740
B( 22-C , 28-C ) :   1.2795 B( 22-C , 29-C ) :   1.2391 B( 23-C , 24-C ) :   1.6222
B( 23-C , 65-H ) :   0.9714 B( 24-C , 66-H ) :   0.9690 B( 25-C , 67-H ) :   0.9763
B( 25-C , 68-H ) :   0.9831 B( 25-C , 69-H ) :   0.9820 B( 26-C , 27-C ) :   1.1925
B( 26-C , 70-H ) :   0.9742 B( 27-C , 29-C ) :   1.2375 B( 28-C , 71-H ) :   0.9711
B( 29-C , 30-C ) :   1.1924 B( 30-C , 32-C ) :   1.3325 B( 31-C , 39-C ) :   1.6559
B( 31-C , 72-H ) :   0.9703 B( 32-C , 37-C ) :   1.5259 B( 32-C , 73-H ) :   0.9773
B( 33-C , 34-C ) :   1.2548 B( 33-C , 39-C ) :   1.2478 B( 33-C , 40-C ) :   1.2990
B( 34-C , 35-C ) :   1.6536 B( 34-C , 74-H ) :   0.9708 B( 35-C , 75-H ) :   0.9703
B( 36-C , 76-H ) :   0.9759 B( 36-C , 77-H ) :   0.9823 B( 36-C , 78-H ) :   0.9834
B( 37-C , 38-C ) :   1.3311 B( 37-C , 79-H ) :   0.9785 B( 38-C , 40-C ) :   1.1922
B( 39-C , 80-H ) :   0.9718 B( 40-C , 41-C ) :   1.1964 B( 41-C , 43-C ) :   1.2316
B( 42-C , 50-C ) :   1.6363 B( 42-C , 81-H ) :   0.9696 B( 43-C , 48-C ) :   1.6197
B( 43-C , 82-H ) :   0.9747 B( 44-C , 45-C ) :   1.2765 B( 44-C , 50-C ) :   1.2597
B( 44-C , 51-C ) :   1.2512 B( 45-C , 46-C ) :   1.6316 B( 45-C , 83-H ) :   0.9707
B( 46-C , 84-H ) :   0.9705 B( 47-C , 85-H ) :   0.9761 B( 47-C , 86-H ) :   0.9827
B( 47-C , 87-H ) :   0.9828 B( 48-C , 49-C ) :   1.2286 B( 48-C , 88-H ) :   0.9733
B( 49-C , 51-C ) :   1.2094 B( 50-C , 89-H ) :   0.9717

MP2 TOTAL ENERGY:    -2130.901982581 Eh
FINAL SINGLE POINT ENERGY     -2130.901982581391

DIPOLE MOMENT
-------------
                                X             Y             Z
Electronic contribution:     -2.28693       1.77368      -0.09507
Nuclear contribution   :      0.07081       0.23468       0.11155
                        -----------------------------------------
Total Dipole Moment    :     -2.21612       2.00836       0.01647
                        -----------------------------------------
Magnitude (a.u.)       :      2.99081
Magnitude (Debye)      :      7.60204

Rotational constants in cm-1:     0.001498     0.001473     0.000762
Rotational constants in MHz :    44.915443    44.168758    22.856371

                             ****ORCA TERMINATED NORMALLY****
TOTAL RUN TIME: 0 days 1 hours 17 minutes 30 seconds 213 msec
