                         Program Version 5.0.4 -  RELEASE  -
|  1> ! PAL2
|  2> ! mp2 cc-pvdz TightSCF  NoKeepInts
|  3>
|  4> %scf
|  5>   MaxCore 2000
|  6> end
|  7> %mp2
|  8>   MaxCore 2000
|  9> end
| 10> * xyz 0 1
| 11>    C       -4.21700         5.70900        -1.05100
| 12>    C        1.47400         4.04100         0.05700
| 13>    C       -2.80200         4.09300         0.04900
| 14>    C       -2.96600         4.83100         1.23200
| 15>    C       -3.74400         5.97100         1.23600
| 16>    C       -5.21200         7.60200         0.15100
| 17>    C        0.13200         4.30700         0.06100
| 18>    C       -0.56900         3.05600         0.04700
| 19>    C        1.64900         2.61800         0.02300
| 20>    C       -3.45300         4.56000        -1.10300
| 21>    N       -4.35400         6.39800         0.10500
| 22>    N        0.38800         2.06700         0.02500
| 23>    N       -2.01000         0.39500        -0.07500
| 24>    N       -0.38800        -2.07400        -0.02700
| 25>    N        2.01000        -0.40100         0.06500
| 26>    C       -1.96000         2.86100         0.02400
| 27>    C       -2.62300         1.61500        -0.01800
| 28>    C       -5.57300        -4.32900         1.06600
| 29>    C       -4.07300         1.47100         0.05600
| 30>    C       -4.10600        -2.75600        -0.02600
| 31>    C       -4.99500        -2.75700        -1.11100
| 32>    C       -6.13200        -3.54200        -1.07600
| 33>    C       -7.65100        -5.11300         0.04000
| 34>    C       -4.32400         0.14100         0.03700
| 35>    C       -3.02500        -0.52000        -0.04800
| 36>    C       -4.42200        -3.56600         1.07500
| 37>    N       -6.40700        -4.31300         0.00100
| 38>    C       -2.86700        -1.92200        -0.04000
| 39>    C       -1.65000        -2.62400        -0.02700
| 40>    C        3.56800        -6.14200        -1.04000
| 41>    C       -1.47600        -4.04900        -0.03400
| 42>    C        2.80300        -4.09900        -0.00800
| 43>    C        3.65700        -4.38400         1.06900
| 44>    C        4.42700        -5.53000         1.05900
| 45>    C        5.24500        -7.58800         0.01400
| 46>    C       -0.13400        -4.31500        -0.02200
| 47>    C        0.56800        -3.06400        -0.02700
| 48>    C        2.77500        -5.01200        -1.07400
| 49>    N        4.37600        -6.39100         0.01700
| 50>    C        1.95900        -2.86900        -0.00900
| 51>    C        2.62100        -1.62200         0.00900
| 52>    C        5.54300         4.33900        -1.13000
| 53>    C        4.07000        -1.47900        -0.09400
| 54>    C        4.10400         2.75100        -0.02100
| 55>    C        5.02700         2.72900         1.03600
| 56>    C        6.16600         3.50900         0.97800
| 57>    C        7.61900         5.15300        -0.11500
| 58>    C        4.32100        -0.14800        -0.09200
| 59>    C        3.02500         0.51400         0.01500
| 60>    C        4.38700         3.58200        -1.11500
| 61>    C        2.86600         1.91600         0.01300
| 62>    N        6.41300         4.29600        -0.09500
| 63>    H       -4.72600         6.11300        -1.91700
| 64>    H        2.27400         4.76600         0.08100
| 65>    H       -2.49600         4.51600         2.15600
| 66>    H       -3.90700         6.56700         2.12400
| 67>    H       -6.21800         7.31000         0.45900
| 68>    H       -4.79000         8.30700         0.86800
| 69>    H       -5.23900         8.05100        -0.84100
| 70>    H       -0.33200         5.28200         0.06900
| 71>    H       -3.35400         4.04200        -2.05100
| 72>    H        0.18200         1.07200         0.00500
| 73>    H       -0.18300        -1.08000        -0.02100
| 74>    H       -5.86400        -4.96200         1.89500
| 75>    H       -4.79400         2.27200         0.13900
| 76>    H       -4.80000        -2.16000        -1.99400
| 77>    H       -6.84100        -3.58200        -1.89300
| 78>    H       -8.42800        -4.53600         0.54600
| 79>    H       -7.95600        -5.33700        -0.98100
| 80>    H       -7.45600        -6.03700         0.58400
| 81>    H       -5.28700        -0.34400         0.10000
| 82>    H       -3.78000        -3.60100         1.94700
| 83>    H        3.58700        -6.86800        -1.84300
| 84>    H       -2.27600        -4.77400        -0.05000
| 85>    H        3.71400        -3.72400         1.92600
| 86>    H        5.09200        -5.79500         1.87100
| 87>    H        6.20500        -7.32900        -0.43900
| 88>    H        5.39300        -7.91700         1.04200
| 89>    H        4.75900        -8.37300        -0.56400
| 90>    H        0.32900        -5.29000        -0.00800
| 91>    H        2.14600        -4.84200        -1.94000
| 92>    H        5.80800         4.98600        -1.95600
| 93>    H        4.78800        -2.28100        -0.18500
| 94>    H        4.86000         2.11400         1.91200
| 95>    H        6.90100         3.53100         1.77200
| 96>    H        7.38300         6.10900         0.35600
| 97>    H        8.41400         4.65200         0.43500
| 98>    H        7.92100         5.31000        -1.15000
| 99>    H        5.28300         0.33600        -0.17900
|100>    H        3.72000         3.63200        -1.96700
|101> *
|102>
|103>                          ****END OF INPUT****

CARTESIAN COORDINATES (ANGSTROEM)
---------------------------------
  C     -4.217000    5.709000   -1.051000
  C      1.474000    4.041000    0.057000
  C     -2.802000    4.093000    0.049000
  C     -2.966000    4.831000    1.232000
  C     -3.744000    5.971000    1.236000
  C     -5.212000    7.602000    0.151000
  C      0.132000    4.307000    0.061000
  C     -0.569000    3.056000    0.047000
  C      1.649000    2.618000    0.023000
  C     -3.453000    4.560000   -1.103000
  N     -4.354000    6.398000    0.105000
  N      0.388000    2.067000    0.025000
  N     -2.010000    0.395000   -0.075000
  N     -0.388000   -2.074000   -0.027000
  N      2.010000   -0.401000    0.065000
  C     -1.960000    2.861000    0.024000
  C     -2.623000    1.615000   -0.018000
  C     -5.573000   -4.329000    1.066000
  C     -4.073000    1.471000    0.056000
  C     -4.106000   -2.756000   -0.026000
  C     -4.995000   -2.757000   -1.111000
  C     -6.132000   -3.542000   -1.076000
  C     -7.651000   -5.113000    0.040000
  C     -4.324000    0.141000    0.037000
  C     -3.025000   -0.520000   -0.048000
  C     -4.422000   -3.566000    1.075000
  N     -6.407000   -4.313000    0.001000
  C     -2.867000   -1.922000   -0.040000
  C     -1.650000   -2.624000   -0.027000
  C      3.568000   -6.142000   -1.040000
  C     -1.476000   -4.049000   -0.034000
  C      2.803000   -4.099000   -0.008000
  C      3.657000   -4.384000    1.069000
  C      4.427000   -5.530000    1.059000
  C      5.245000   -7.588000    0.014000
  C     -0.134000   -4.315000   -0.022000
  C      0.568000   -3.064000   -0.027000
  C      2.775000   -5.012000   -1.074000
  N      4.376000   -6.391000    0.017000
  C      1.959000   -2.869000   -0.009000
  C      2.621000   -1.622000    0.009000
  C      5.543000    4.339000   -1.130000
  C      4.070000   -1.479000   -0.094000
  C      4.104000    2.751000   -0.021000
  C      5.027000    2.729000    1.036000
  C      6.166000    3.509000    0.978000
  C      7.619000    5.153000   -0.115000
  C      4.321000   -0.148000   -0.092000
  C      3.025000    0.514000    0.015000
  C      4.387000    3.582000   -1.115000
  C      2.866000    1.916000    0.013000
  N      6.413000    4.296000   -0.095000
  H     -4.726000    6.113000   -1.917000
  H      2.274000    4.766000    0.081000
  H     -2.496000    4.516000    2.156000
  H     -3.907000    6.567000    2.124000
  H     -6.218000    7.310000    0.459000
  H     -4.790000    8.307000    0.868000
  H     -5.239000    8.051000   -0.841000
  H     -0.332000    5.282000    0.069000
  H     -3.354000    4.042000   -2.051000
  H      0.182000    1.072000    0.005000
  H     -0.183000   -1.080000   -0.021000
  H     -5.864000   -4.962000    1.895000
  H     -4.794000    2.272000    0.139000
  H     -4.800000   -2.160000   -1.994000
  H     -6.841000   -3.582000   -1.893000
  H     -8.428000   -4.536000    0.546000
  H     -7.956000   -5.337000   -0.981000
  H     -7.456000   -6.037000    0.584000
  H     -5.287000   -0.344000    0.100000
  H     -3.780000   -3.601000    1.947000
  H      3.587000   -6.868000   -1.843000
  H     -2.276000   -4.774000   -0.050000
  H      3.714000   -3.724000    1.926000
  H      5.092000   -5.795000    1.871000
  H      6.205000   -7.329000   -0.439000
  H      5.393000   -7.917000    1.042000
  H      4.759000   -8.373000   -0.564000
  H      0.329000   -5.290000   -0.008000
  H      2.146000   -4.842000   -1.940000
  H      5.808000    4.986000   -1.956000
  H      4.788000   -2.281000   -0.185000
  H      4.860000    2.114000    1.912000
  H      6.901000    3.531000    1.772000
  H      7.383000    6.109000    0.356000
  H      8.414000    4.652000    0.435000
  H      7.921000    5.310000   -1.150000
  H      5.283000    0.336000   -0.179000
  H      3.720000    3.632000   -1.967000

 Total Charge           Charge          ....    0
 Multiplicity           Mult            ....    1
 Number of Electrons    NEL             ....  358
 Basis Dimension        Dim             ....  918

ORBITAL ENERGIES
----------------

  NO   OCC          E(Eh)            E(eV)
   0   2.0000     -15.679446      -426.6594
   1   2.0000     -15.636430      -425.4889
   2   2.0000     -15.623545      -425.1383
   3   2.0000     -15.599044      -424.4716
   4   2.0000     -15.517797      -422.2607
   5   2.0000     -15.509883      -422.0454
   6   2.0000     -15.448351      -420.3710
   7   2.0000     -15.432833      -419.9487
   8   2.0000     -11.326824      -308.2185
   9   2.0000     -11.326564      -308.2115
  10   2.0000     -11.325545      -308.1837
  11   2.0000     -11.300988      -307.5155
  12   2.0000     -11.295165      -307.3571
  13   2.0000     -11.292598      -307.2872
  14   2.0000     -11.288991      -307.1891
  15   2.0000     -11.283736      -307.0461
  16   2.0000     -11.278041      -306.8911
  17   2.0000     -11.277790      -306.8843
  18   2.0000     -11.277439      -306.8747
  19   2.0000     -11.262227      -306.4608
  20   2.0000     -11.261379      -306.4377
  21   2.0000     -11.261134      -306.4310
  22   2.0000     -11.258702      -306.3649
  23   2.0000     -11.239825      -305.8512
  24   2.0000     -11.232232      -305.6446
  25   2.0000     -11.231398      -305.6219
  26   2.0000     -11.227718      -305.5217
  27   2.0000     -11.222315      -305.3747
  28   2.0000     -11.222146      -305.3701
  29   2.0000     -11.205602      -304.9199
  30   2.0000     -11.204620      -304.8932
  31   2.0000     -11.203797      -304.8708
  32   2.0000     -11.202994      -304.8490
  33   2.0000     -11.202829      -304.8445
  34   2.0000     -11.187896      -304.4381
  35   2.0000     -11.187796      -304.4354
  36   2.0000     -11.184859      -304.3555
  37   2.0000     -11.184523      -304.3464
  38   2.0000     -11.182688      -304.2964
  39   2.0000     -11.168432      -303.9085
  40   2.0000     -11.166946      -303.8680
  41   2.0000     -11.162195      -303.7388
  42   2.0000     -11.159151      -303.6559
  43   2.0000     -11.158475      -303.6376
  44   2.0000     -11.154051      -303.5172
  45   2.0000     -11.153926      -303.5137
  46   2.0000     -11.153465      -303.5012
  47   2.0000     -11.150004      -303.4070
  48   2.0000     -11.148514      -303.3665
  49   2.0000     -11.141776      -303.1832
  50   2.0000     -11.125351      -302.7362
  51   2.0000     -11.122196      -302.6503
  52   2.0000      -1.358710       -36.9724
  53   2.0000      -1.323365       -36.0106
  54   2.0000      -1.311872       -35.6979
  55   2.0000      -1.291212       -35.1357
  56   2.0000      -1.218907       -33.1681
  57   2.0000      -1.206721       -32.8365
  58   2.0000      -1.169456       -31.8225
  59   2.0000      -1.144627       -31.1469
  60   2.0000      -1.140515       -31.0350
  61   2.0000      -1.111421       -30.2433
  62   2.0000      -1.101200       -29.9652
  63   2.0000      -1.082957       -29.4688
  64   2.0000      -1.079990       -29.3880
  65   2.0000      -1.047295       -28.4983
  66   2.0000      -1.037392       -28.2289
  67   2.0000      -1.036490       -28.2043
  68   2.0000      -1.017364       -27.6839
  69   2.0000      -1.013823       -27.5875
  70   2.0000      -1.005434       -27.3592
  71   2.0000      -0.989020       -26.9126
  72   2.0000      -0.984554       -26.7911
  73   2.0000      -0.977187       -26.5906
  74   2.0000      -0.969543       -26.3826
  75   2.0000      -0.959672       -26.1140
  76   2.0000      -0.951273       -25.8855
  77   2.0000      -0.945221       -25.7208
  78   2.0000      -0.926853       -25.2210
  79   2.0000      -0.918910       -25.0048
  80   2.0000      -0.906582       -24.6693
  81   2.0000      -0.888758       -24.1843
  82   2.0000      -0.875072       -23.8119
  83   2.0000      -0.869789       -23.6682
  84   2.0000      -0.863664       -23.5015
  85   2.0000      -0.852249       -23.1909
  86   2.0000      -0.844015       -22.9668
  87   2.0000      -0.831791       -22.6342
  88   2.0000      -0.822384       -22.3782
  89   2.0000      -0.796202       -21.6658
  90   2.0000      -0.792393       -21.5621
  91   2.0000      -0.750838       -20.4314
  92   2.0000      -0.733786       -19.9673
  93   2.0000      -0.726884       -19.7795
  94   2.0000      -0.722075       -19.6486
  95   2.0000      -0.716142       -19.4872
  96   2.0000      -0.712230       -19.3808
  97   2.0000      -0.708067       -19.2675
  98   2.0000      -0.699841       -19.0436
  99   2.0000      -0.694805       -18.9066
 100   2.0000      -0.694049       -18.8860
 101   2.0000      -0.683201       -18.5909
 102   2.0000      -0.682260       -18.5652
 103   2.0000      -0.677905       -18.4467
 104   2.0000      -0.672473       -18.2989
 105   2.0000      -0.668558       -18.1924
 106   2.0000      -0.666007       -18.1230
 107   2.0000      -0.656288       -17.8585
 108   2.0000      -0.654252       -17.8031
 109   2.0000      -0.651265       -17.7218
 110   2.0000      -0.647684       -17.6244
 111   2.0000      -0.645803       -17.5732
 112   2.0000      -0.644108       -17.5271
 113   2.0000      -0.639242       -17.3947
 114   2.0000      -0.634129       -17.2555
 115   2.0000      -0.628789       -17.1102
 116   2.0000      -0.622553       -16.9405
 117   2.0000      -0.616278       -16.7698
 118   2.0000      -0.613949       -16.7064
 119   2.0000      -0.610877       -16.6228
 120   2.0000      -0.608338       -16.5537
 121   2.0000      -0.604362       -16.4455
 122   2.0000      -0.594859       -16.1869
 123   2.0000      -0.588976       -16.0268
 124   2.0000      -0.586467       -15.9586
 125   2.0000      -0.582883       -15.8610
 126   2.0000      -0.575518       -15.6606
 127   2.0000      -0.573304       -15.6004
 128   2.0000      -0.568989       -15.4830
 129   2.0000      -0.559749       -15.2316
 130   2.0000      -0.556618       -15.1463
 131   2.0000      -0.546998       -14.8846
 132   2.0000      -0.543801       -14.7976
 133   2.0000      -0.539010       -14.6672
 134   2.0000      -0.534571       -14.5464
 135   2.0000      -0.531332       -14.4583
 136   2.0000      -0.521085       -14.1794
 137   2.0000      -0.518972       -14.1220
 138   2.0000      -0.514895       -14.0110
 139   2.0000      -0.512181       -13.9371
 140   2.0000      -0.510023       -13.8784
 141   2.0000      -0.508293       -13.8314
 142   2.0000      -0.501921       -13.6580
 143   2.0000      -0.500112       -13.6087
 144   2.0000      -0.495754       -13.4902
 145   2.0000      -0.494940       -13.4680
 146   2.0000      -0.493466       -13.4279
 147   2.0000      -0.484692       -13.1891
 148   2.0000      -0.481969       -13.1151
 149   2.0000      -0.464277       -12.6336
 150   2.0000      -0.462707       -12.5909
 151   2.0000      -0.456068       -12.4102
 152   2.0000      -0.449797       -12.2396
 153   2.0000      -0.442182       -12.0324
 154   2.0000      -0.438957       -11.9446
 155   2.0000      -0.437456       -11.9038
 156   2.0000      -0.427080       -11.6214
 157   2.0000      -0.419995       -11.4286
 158   2.0000      -0.400485       -10.8978
 159   2.0000      -0.385854       -10.4996
 160   2.0000      -0.384269       -10.4565
 161   2.0000      -0.372272       -10.1300
 162   2.0000      -0.360676        -9.8145
 163   2.0000      -0.358056        -9.7432
 164   2.0000      -0.348836        -9.4923
 165   2.0000      -0.339135        -9.2283
 166   2.0000      -0.337209        -9.1759
 167   2.0000      -0.332498        -9.0477
 168   2.0000      -0.318479        -8.6662
 169   2.0000      -0.299425        -8.1478
 170   2.0000      -0.297754        -8.1023
 171   2.0000      -0.285187        -7.7603
 172   2.0000      -0.282614        -7.6903
 173   2.0000      -0.261636        -7.1195
 174   2.0000      -0.236775        -6.4430
 175   2.0000      -0.185111        -5.0371
 176   2.0000      -0.174874        -4.7586
 177   2.0000      -0.062379        -1.6974
 178   2.0000      -0.051818        -1.4100
 179   0.0000       0.033726         0.9177
 180   0.0000       0.062974         1.7136
 181   0.0000       0.091239         2.4827
 182   0.0000       0.096845         2.6353
 183   0.0000       0.109208         2.9717

MULLIKEN ATOMIC CHARGES
-----------------------
   0 C :    0.223832
   1 N :   -0.425697
   2 C :   -0.067558
   3 N :   -0.341885
   4 C :   -0.082821
   5 N :   -0.564289
   6 C :   -0.032139
   7 N :   -0.337284
   8 C :    0.220770
   9 N :   -0.564973
  10 C :    0.108259
  11 N :   -0.438215
  12 C :   -0.060037
  13 N :   -0.447359
  14 C :    0.223734
  15 N :   -0.441104
  16 C :    0.249687
  17 C :   -0.038055
  18 C :   -0.179338
  19 C :    0.226253
  20 C :    0.196559
  21 C :   -0.066770
  22 C :   -0.087132
  23 C :   -0.060965
  24 C :    0.215553
  25 C :    0.114080
  26 C :   -0.070070
  27 C :    0.239094
  28 C :   -0.043429
  29 C :   -0.192628
  30 C :    0.225657
  31 C :    0.195617
  32 C :   -0.065049
  33 C :   -0.096015
  34 C :   -0.049871
  35 C :    0.186285
  36 C :    0.118779
  37 C :   -0.069017
  38 C :    0.242516
  39 C :   -0.064459
  40 C :   -0.198790
  41 C :    0.216852
  42 C :    0.209476
  43 C :   -0.076080
  44 C :   -0.089945
  45 C :   -0.043204
  46 C :    0.191527
  47 C :    0.116223
  48 C :   -0.080591
  49 C :    0.213839
  50 C :   -0.061927
  51 C :   -0.190245
  52 H :    0.071090
  53 H :   -0.010129
  54 H :    0.058606
  55 H :    0.069947
  56 H :    0.074741
  57 H :    0.068678
  58 H :    0.067114
  59 H :   -0.023832
  60 H :    0.057239
  61 H :    0.175401
  62 H :    0.169761
  63 H :    0.055248
  64 H :   -0.030278
  65 H :    0.043632
  66 H :    0.056933
  67 H :    0.060870
  68 H :    0.057362
  69 H :    0.059669
  70 H :   -0.018110
  71 H :    0.048288
  72 H :    0.043659
  73 H :   -0.018052
  74 H :    0.035081
  75 H :    0.042418
  76 H :    0.051328
  77 H :    0.049970
  78 H :    0.049147
  79 H :   -0.012076
  80 H :    0.034919
  81 H :    0.051799
  82 H :   -0.023443
  83 H :    0.043074
  84 H :    0.050874
  85 H :    0.056140
  86 H :    0.056506
  87 H :    0.055436
  88 H :   -0.028265
  89 H :    0.041604
Sum of atomic charges:   -0.0000000

LOEWDIN ATOMIC CHARGES
----------------------
   0 C :    0.022705
   1 N :    0.169950
   2 C :   -0.100643
   3 N :    0.173276
   4 C :    0.083143
   5 N :   -0.144171
   6 C :   -0.012070
   7 N :    0.177467
   8 C :    0.020463
   9 N :   -0.138470
  10 C :    0.035437
  11 N :    0.143040
  12 C :   -0.097628
  13 N :    0.122674
  14 C :   -0.057371
  15 N :    0.136543
  16 C :   -0.026755
  17 C :   -0.015627
  18 C :   -0.115313
  19 C :   -0.089374
  20 C :   -0.009976
  21 C :   -0.100055
  22 C :    0.040601
  23 C :   -0.028889
  24 C :    0.006962
  25 C :    0.030083
  26 C :   -0.097694
  27 C :   -0.068818
  28 C :   -0.016152
  29 C :   -0.114213
  30 C :   -0.059346
  31 C :   -0.017208
  32 C :   -0.100151
  33 C :    0.008797
  34 C :   -0.024177
  35 C :   -0.025446
  36 C :    0.025248
  37 C :   -0.106678
  38 C :   -0.032447
  39 C :   -0.031688
  40 C :   -0.111627
  41 C :   -0.094935
  42 C :   -0.000841
  43 C :   -0.111145
  44 C :    0.031255
  45 C :   -0.016932
  46 C :   -0.016453
  47 C :    0.028665
  48 C :   -0.112723
  49 C :   -0.108136
  50 C :   -0.029464
  51 C :   -0.109437
  52 H :    0.036992
  53 H :    0.006189
  54 H :    0.051537
  55 H :    0.036917
  56 H :    0.034609
  57 H :    0.036242
  58 H :    0.036145
  59 H :    0.001156
  60 H :    0.050988
  61 H :    0.061775
  62 H :    0.058794
  63 H :    0.030053
  64 H :   -0.003551
  65 H :    0.043306
  66 H :    0.030671
  67 H :    0.027644
  68 H :    0.031664
  69 H :    0.031650
  70 H :    0.000880
  71 H :    0.045965
  72 H :    0.024868
  73 H :    0.002330
  74 H :    0.040114
  75 H :    0.023919
  76 H :    0.022630
  77 H :    0.027729
  78 H :    0.027389
  79 H :    0.005339
  80 H :    0.039256
  81 H :    0.028469
  82 H :   -0.001646
  83 H :    0.044033
  84 H :    0.027703
  85 H :    0.025186
  86 H :    0.030459
  87 H :    0.030549
  88 H :   -0.004186
  89 H :    0.041980

  Mayer bond orders larger than 0.100000
B(  0-C ,  1-N ) :   1.1662 B(  0-C , 17-C ) :   1.5657 B(  0-C , 52-H ) :   0.9680
B(  1-N ,  8-C ) :   1.1596 B(  1-N , 10-C ) :   0.9413 B(  2-C , 12-C ) :   1.5611
B(  2-C , 16-C ) :   1.2930 B(  2-C , 53-H ) :   0.9788 B(  3-N , 14-C ) :   1.1836
B(  3-N , 16-C ) :   1.2014 B(  3-N , 61-H ) :   0.8966 B(  4-C ,  6-C ) :   1.3193
B(  4-C , 17-C ) :   1.3237 B(  4-C , 18-C ) :   1.1297 B(  5-N , 19-C ) :   1.3832
B(  5-N , 27-C ) :   1.4343 B(  6-C ,  8-C ) :   1.5706 B(  6-C , 54-H ) :   0.9711
B(  7-N , 30-C ) :   1.1866 B(  7-N , 38-C ) :   1.2111 B(  7-N , 62-H ) :   0.9001
B(  8-C , 55-H ) :   0.9690 B(  9-N , 41-C ) :   1.4238 B(  9-N , 49-C ) :   1.4031
B( 10-C , 56-H ) :   0.9764 B( 10-C , 57-H ) :   0.9815 B( 10-C , 58-H ) :   0.9821
B( 11-N , 20-C ) :   1.1101 B( 11-N , 24-C ) :   1.1342 B( 11-N , 25-C ) :   0.9592
B( 12-C , 14-C ) :   1.2939 B( 12-C , 59-H ) :   0.9778 B( 13-N , 31-C ) :   1.0969
B( 13-N , 35-C ) :   1.0867 B( 13-N , 36-C ) :   0.9744 B( 14-C , 18-C ) :   1.2403
B( 15-N , 42-C ) :   1.1232 B( 15-N , 46-C ) :   1.1000 B( 15-N , 47-C ) :   0.9644
B( 16-C , 51-C ) :   1.2284 B( 17-C , 60-H ) :   0.9712 B( 18-C , 19-C ) :   1.2764
B( 19-C , 21-C ) :   1.1831 B( 20-C , 28-C ) :   1.6234 B( 20-C , 63-H ) :   0.9706
B( 21-C , 26-C ) :   1.6650 B( 21-C , 64-H ) :   0.9732 B( 22-C , 23-C ) :   1.2681
B( 22-C , 28-C ) :   1.2811 B( 22-C , 29-C ) :   1.2433 B( 23-C , 24-C ) :   1.6254
B( 23-C , 65-H ) :   0.9717 B( 24-C , 66-H ) :   0.9689 B( 25-C , 67-H ) :   0.9763
B( 25-C , 68-H ) :   0.9832 B( 25-C , 69-H ) :   0.9819 B( 26-C , 27-C ) :   1.1869
B( 26-C , 70-H ) :   0.9747 B( 27-C , 29-C ) :   1.2350 B( 28-C , 71-H ) :   0.9710
B( 29-C , 30-C ) :   1.1916 B( 30-C , 32-C ) :   1.3346 B( 31-C , 39-C ) :   1.6651
B( 31-C , 72-H ) :   0.9705 B( 32-C , 37-C ) :   1.5243 B( 32-C , 73-H ) :   0.9773
B( 33-C , 34-C ) :   1.2482 B( 33-C , 39-C ) :   1.2400 B( 33-C , 40-C ) :   1.3164
B( 34-C , 35-C ) :   1.6628 B( 34-C , 74-H ) :   0.9708 B( 35-C , 75-H ) :   0.9705
B( 36-C , 76-H ) :   0.9758 B( 36-C , 77-H ) :   0.9824 B( 36-C , 78-H ) :   0.9836
B( 37-C , 38-C ) :   1.3317 B( 37-C , 79-H ) :   0.9788 B( 38-C , 40-C ) :   1.1908
B( 39-C , 80-H ) :   0.9720 B( 40-C , 41-C ) :   1.1857 B( 41-C , 43-C ) :   1.2427
B( 42-C , 50-C ) :   1.6380 B( 42-C , 81-H ) :   0.9696 B( 43-C , 48-C ) :   1.6084
B( 43-C , 82-H ) :   0.9749 B( 44-C , 45-C ) :   1.2775 B( 44-C , 50-C ) :   1.2567
B( 44-C , 51-C ) :   1.2520 B( 45-C , 46-C ) :   1.6321 B( 45-C , 83-H ) :   0.9705
B( 46-C , 84-H ) :   0.9706 B( 47-C , 85-H ) :   0.9761 B( 47-C , 86-H ) :   0.9827
B( 47-C , 87-H ) :   0.9828 B( 48-C , 49-C ) :   1.2387 B( 48-C , 88-H ) :   0.9730
B( 49-C , 51-C ) :   1.1983 B( 50-C , 89-H ) :   0.9719

MP2 TOTAL ENERGY:    -2130.894875185 Eh
FINAL SINGLE POINT ENERGY     -2130.894875185023

DIPOLE MOMENT
-------------
                                X             Y             Z
Electronic contribution:     -2.98198       2.85664      -0.17652
Nuclear contribution   :     -0.01235       0.17572       0.21925
                        -----------------------------------------
Total Dipole Moment    :     -2.99433       3.03236       0.04273
                        -----------------------------------------
Magnitude (a.u.)       :      4.26182
Magnitude (Debye)      :     10.83268

Rotational constants in cm-1:     0.001498     0.001473     0.000763
Rotational constants in MHz :    44.900424    44.154204    22.863973

                             ****ORCA TERMINATED NORMALLY****
TOTAL RUN TIME: 0 days 1 hours 14 minutes 23 seconds 452 msec
