                         Program Version 5.0.4 -  RELEASE  -
|  1> ! PAL2
|  2> ! mp2 cc-pvdz TightSCF  NoKeepInts
|  3>
|  4> %scf
|  5>   MaxCore 2000
|  6> end
|  7> %mp2
|  8>   MaxCore 2000
|  9> end
| 10> * xyz 0 1
| 11>    C       -3.19800         6.39600        -0.55600
| 12>    C        1.47400         4.04100         0.05700
| 13>    C       -2.80200         4.09300         0.04900
| 14>    C       -4.02500         4.11700         0.73700
| 15>    C       -4.78900         5.26700         0.75400
| 16>    C       -5.23100         7.59000         0.12200
| 17>    C        0.13200         4.30700         0.06100
| 18>    C       -0.56900         3.05600         0.04700
| 19>    C        1.64900         2.61800         0.02300
| 20>    C       -2.40200         5.26800        -0.60600
| 21>    N       -4.37100         6.38500         0.11700
| 22>    N        0.38800         2.06700         0.02500
| 23>    N       -2.01000         0.39500        -0.07500
| 24>    N       -0.38800        -2.07400        -0.02700
| 25>    N        2.01000        -0.40100         0.06500
| 26>    C       -1.96000         2.86100         0.02400
| 27>    C       -2.62300         1.61500        -0.01800
| 28>    C       -5.57300        -4.32900         1.06600
| 29>    C       -4.07300         1.47100         0.05600
| 30>    C       -4.10600        -2.75600        -0.02600
| 31>    C       -4.99500        -2.75700        -1.11100
| 32>    C       -6.13200        -3.54200        -1.07600
| 33>    C       -7.65100        -5.11300         0.04000
| 34>    C       -4.32400         0.14100         0.03700
| 35>    C       -3.02500        -0.52000        -0.04800
| 36>    C       -4.42200        -3.56600         1.07500
| 37>    N       -6.40700        -4.31300         0.00100
| 38>    C       -2.86700        -1.92200        -0.04000
| 39>    C       -1.65000        -2.62400        -0.02700
| 40>    C        3.56800        -6.14200        -1.04000
| 41>    C       -1.47600        -4.04900        -0.03400
| 42>    C        2.80300        -4.09900        -0.00800
| 43>    C        3.65700        -4.38400         1.06900
| 44>    C        4.42700        -5.53000         1.05900
| 45>    C        5.24500        -7.58800         0.01400
| 46>    C       -0.13400        -4.31500        -0.02200
| 47>    C        0.56800        -3.06400        -0.02700
| 48>    C        2.77500        -5.01200        -1.07400
| 49>    N        4.37600        -6.39100         0.01700
| 50>    C        1.95900        -2.86900        -0.00900
| 51>    C        2.62100        -1.62200         0.00900
| 52>    C        5.54300         4.33900        -1.13000
| 53>    C        4.07000        -1.47900        -0.09400
| 54>    C        4.10400         2.75100        -0.02100
| 55>    C        5.02700         2.72900         1.03600
| 56>    C        6.16600         3.50900         0.97800
| 57>    C        7.61900         5.15300        -0.11500
| 58>    C        4.32100        -0.14800        -0.09200
| 59>    C        3.02500         0.51400         0.01500
| 60>    C        4.38700         3.58200        -1.11500
| 61>    C        2.86600         1.91600         0.01300
| 62>    N        6.41300         4.29600        -0.09500
| 63>    H       -2.92400         7.32700        -1.03600
| 64>    H        2.27400         4.76600         0.08100
| 65>    H       -4.39200         3.23900         1.25400
| 66>    H       -5.74200         5.33000         1.26400
| 67>    H       -5.95000         7.51700        -0.69700
| 68>    H       -5.75400         7.64300         1.07700
| 69>    H       -4.60200         8.47000        -0.00900
| 70>    H       -0.33200         5.28200         0.06900
| 71>    H       -1.46100         5.31700        -1.14300
| 72>    H        0.18200         1.07200         0.00500
| 73>    H       -0.18300        -1.08000        -0.02100
| 74>    H       -5.86400        -4.96200         1.89500
| 75>    H       -4.79400         2.27200         0.13900
| 76>    H       -4.80000        -2.16000        -1.99400
| 77>    H       -6.84100        -3.58200        -1.89300
| 78>    H       -8.42800        -4.53600         0.54600
| 79>    H       -7.95600        -5.33700        -0.98100
| 80>    H       -7.45600        -6.03700         0.58400
| 81>    H       -5.28700        -0.34400         0.10000
| 82>    H       -3.78000        -3.60100         1.94700
| 83>    H        3.58700        -6.86800        -1.84300
| 84>    H       -2.27600        -4.77400        -0.05000
| 85>    H        3.71400        -3.72400         1.92600
| 86>    H        5.09200        -5.79500         1.87100
| 87>    H        6.20500        -7.32900        -0.43900
| 88>    H        5.39300        -7.91700         1.04200
| 89>    H        4.75900        -8.37300        -0.56400
| 90>    H        0.32900        -5.29000        -0.00800
| 91>    H        2.14600        -4.84200        -1.94000
| 92>    H        5.80800         4.98600        -1.95600
| 93>    H        4.78800        -2.28100        -0.18500
| 94>    H        4.86000         2.11400         1.91200
| 95>    H        6.90100         3.53100         1.77200
| 96>    H        7.38300         6.10900         0.35600
| 97>    H        8.41400         4.65200         0.43500
| 98>    H        7.92100         5.31000        -1.15000
| 99>    H        5.28300         0.33600        -0.17900
|100>    H        3.72000         3.63200        -1.96700
|101> *
|102>
|103>                          ****END OF INPUT****

CARTESIAN COORDINATES (ANGSTROEM)
---------------------------------
  C     -3.198000    6.396000   -0.556000
  C      1.474000    4.041000    0.057000
  C     -2.802000    4.093000    0.049000
  C     -4.025000    4.117000    0.737000
  C     -4.789000    5.267000    0.754000
  C     -5.231000    7.590000    0.122000
  C      0.132000    4.307000    0.061000
  C     -0.569000    3.056000    0.047000
  C      1.649000    2.618000    0.023000
  C     -2.402000    5.268000   -0.606000
  N     -4.371000    6.385000    0.117000
  N      0.388000    2.067000    0.025000
  N     -2.010000    0.395000   -0.075000
  N     -0.388000   -2.074000   -0.027000
  N      2.010000   -0.401000    0.065000
  C     -1.960000    2.861000    0.024000
  C     -2.623000    1.615000   -0.018000
  C     -5.573000   -4.329000    1.066000
  C     -4.073000    1.471000    0.056000
  C     -4.106000   -2.756000   -0.026000
  C     -4.995000   -2.757000   -1.111000
  C     -6.132000   -3.542000   -1.076000
  C     -7.651000   -5.113000    0.040000
  C     -4.324000    0.141000    0.037000
  C     -3.025000   -0.520000   -0.048000
  C     -4.422000   -3.566000    1.075000
  N     -6.407000   -4.313000    0.001000
  C     -2.867000   -1.922000   -0.040000
  C     -1.650000   -2.624000   -0.027000
  C      3.568000   -6.142000   -1.040000
  C     -1.476000   -4.049000   -0.034000
  C      2.803000   -4.099000   -0.008000
  C      3.657000   -4.384000    1.069000
  C      4.427000   -5.530000    1.059000
  C      5.245000   -7.588000    0.014000
  C     -0.134000   -4.315000   -0.022000
  C      0.568000   -3.064000   -0.027000
  C      2.775000   -5.012000   -1.074000
  N      4.376000   -6.391000    0.017000
  C      1.959000   -2.869000   -0.009000
  C      2.621000   -1.622000    0.009000
  C      5.543000    4.339000   -1.130000
  C      4.070000   -1.479000   -0.094000
  C      4.104000    2.751000   -0.021000
  C      5.027000    2.729000    1.036000
  C      6.166000    3.509000    0.978000
  C      7.619000    5.153000   -0.115000
  C      4.321000   -0.148000   -0.092000
  C      3.025000    0.514000    0.015000
  C      4.387000    3.582000   -1.115000
  C      2.866000    1.916000    0.013000
  N      6.413000    4.296000   -0.095000
  H     -2.924000    7.327000   -1.036000
  H      2.274000    4.766000    0.081000
  H     -4.392000    3.239000    1.254000
  H     -5.742000    5.330000    1.264000
  H     -5.950000    7.517000   -0.697000
  H     -5.754000    7.643000    1.077000
  H     -4.602000    8.470000   -0.009000
  H     -0.332000    5.282000    0.069000
  H     -1.461000    5.317000   -1.143000
  H      0.182000    1.072000    0.005000
  H     -0.183000   -1.080000   -0.021000
  H     -5.864000   -4.962000    1.895000
  H     -4.794000    2.272000    0.139000
  H     -4.800000   -2.160000   -1.994000
  H     -6.841000   -3.582000   -1.893000
  H     -8.428000   -4.536000    0.546000
  H     -7.956000   -5.337000   -0.981000
  H     -7.456000   -6.037000    0.584000
  H     -5.287000   -0.344000    0.100000
  H     -3.780000   -3.601000    1.947000
  H      3.587000   -6.868000   -1.843000
  H     -2.276000   -4.774000   -0.050000
  H      3.714000   -3.724000    1.926000
  H      5.092000   -5.795000    1.871000
  H      6.205000   -7.329000   -0.439000
  H      5.393000   -7.917000    1.042000
  H      4.759000   -8.373000   -0.564000
  H      0.329000   -5.290000   -0.008000
  H      2.146000   -4.842000   -1.940000
  H      5.808000    4.986000   -1.956000
  H      4.788000   -2.281000   -0.185000
  H      4.860000    2.114000    1.912000
  H      6.901000    3.531000    1.772000
  H      7.383000    6.109000    0.356000
  H      8.414000    4.652000    0.435000
  H      7.921000    5.310000   -1.150000
  H      5.283000    0.336000   -0.179000
  H      3.720000    3.632000   -1.967000

 Total Charge           Charge          ....    0
 Multiplicity           Mult            ....    1
 Number of Electrons    NEL             ....  358
 Basis Dimension        Dim             ....  918

ORBITAL ENERGIES
----------------

  NO   OCC          E(Eh)            E(eV)
   0   2.0000     -15.669510      -426.3890
   1   2.0000     -15.635034      -425.4509
   2   2.0000     -15.630760      -425.3346
   3   2.0000     -15.594452      -424.3466
   4   2.0000     -15.524067      -422.4313
   5   2.0000     -15.516331      -422.2208
   6   2.0000     -15.451656      -420.4609
   7   2.0000     -15.441827      -420.1935
   8   2.0000     -11.321585      -308.0760
   9   2.0000     -11.321063      -308.0618
  10   2.0000     -11.319518      -308.0197
  11   2.0000     -11.299983      -307.4882
  12   2.0000     -11.297625      -307.4240
  13   2.0000     -11.293352      -307.3077
  14   2.0000     -11.289656      -307.2072
  15   2.0000     -11.288037      -307.1631
  16   2.0000     -11.286131      -307.1112
  17   2.0000     -11.275465      -306.8210
  18   2.0000     -11.272400      -306.7376
  19   2.0000     -11.259485      -306.3862
  20   2.0000     -11.257512      -306.3325
  21   2.0000     -11.256161      -306.2957
  22   2.0000     -11.255214      -306.2699
  23   2.0000     -11.238648      -305.8192
  24   2.0000     -11.235499      -305.7335
  25   2.0000     -11.231956      -305.6371
  26   2.0000     -11.231150      -305.6151
  27   2.0000     -11.228901      -305.5539
  28   2.0000     -11.228806      -305.5514
  29   2.0000     -11.208663      -305.0032
  30   2.0000     -11.207522      -304.9722
  31   2.0000     -11.203595      -304.8653
  32   2.0000     -11.197698      -304.7049
  33   2.0000     -11.195607      -304.6479
  34   2.0000     -11.190694      -304.5143
  35   2.0000     -11.189815      -304.4903
  36   2.0000     -11.186939      -304.4121
  37   2.0000     -11.184369      -304.3421
  38   2.0000     -11.183357      -304.3146
  39   2.0000     -11.172540      -304.0203
  40   2.0000     -11.170967      -303.9775
  41   2.0000     -11.169975      -303.9505
  42   2.0000     -11.166289      -303.8502
  43   2.0000     -11.162298      -303.7416
  44   2.0000     -11.160299      -303.6872
  45   2.0000     -11.158972      -303.6511
  46   2.0000     -11.157398      -303.6082
  47   2.0000     -11.153075      -303.4906
  48   2.0000     -11.148972      -303.3789
  49   2.0000     -11.141900      -303.1865
  50   2.0000     -11.133762      -302.9651
  51   2.0000     -11.125389      -302.7372
  52   2.0000      -1.351641       -36.7800
  53   2.0000      -1.322134       -35.9771
  54   2.0000      -1.318649       -35.8823
  55   2.0000      -1.288035       -35.0492
  56   2.0000      -1.224358       -33.3165
  57   2.0000      -1.210952       -32.9517
  58   2.0000      -1.170287       -31.8451
  59   2.0000      -1.152917       -31.3725
  60   2.0000      -1.136306       -30.9205
  61   2.0000      -1.110904       -30.2292
  62   2.0000      -1.108158       -30.1545
  63   2.0000      -1.083312       -29.4784
  64   2.0000      -1.073964       -29.2240
  65   2.0000      -1.046265       -28.4703
  66   2.0000      -1.043359       -28.3912
  67   2.0000      -1.036283       -28.1987
  68   2.0000      -1.016310       -27.6552
  69   2.0000      -1.014003       -27.5924
  70   2.0000      -1.009844       -27.4793
  71   2.0000      -0.992334       -27.0028
  72   2.0000      -0.987340       -26.8669
  73   2.0000      -0.978455       -26.6251
  74   2.0000      -0.972671       -26.4677
  75   2.0000      -0.960344       -26.1323
  76   2.0000      -0.952309       -25.9136
  77   2.0000      -0.947190       -25.7744
  78   2.0000      -0.935455       -25.4550
  79   2.0000      -0.920287       -25.0423
  80   2.0000      -0.903490       -24.5852
  81   2.0000      -0.892588       -24.2886
  82   2.0000      -0.874279       -23.7903
  83   2.0000      -0.871388       -23.7117
  84   2.0000      -0.867626       -23.6093
  85   2.0000      -0.856251       -23.2998
  86   2.0000      -0.842573       -22.9276
  87   2.0000      -0.836809       -22.7707
  88   2.0000      -0.823453       -22.4073
  89   2.0000      -0.798258       -21.7217
  90   2.0000      -0.793080       -21.5808
  91   2.0000      -0.747936       -20.3524
  92   2.0000      -0.740026       -20.1371
  93   2.0000      -0.732195       -19.9240
  94   2.0000      -0.723270       -19.6812
  95   2.0000      -0.721332       -19.6284
  96   2.0000      -0.714807       -19.4509
  97   2.0000      -0.708933       -19.2911
  98   2.0000      -0.704945       -19.1825
  99   2.0000      -0.696064       -18.9409
 100   2.0000      -0.695513       -18.9259
 101   2.0000      -0.683273       -18.5928
 102   2.0000      -0.678717       -18.4688
 103   2.0000      -0.677556       -18.4372
 104   2.0000      -0.677287       -18.4299
 105   2.0000      -0.672540       -18.3007
 106   2.0000      -0.667509       -18.1639
 107   2.0000      -0.661488       -18.0000
 108   2.0000      -0.655364       -17.8334
 109   2.0000      -0.653868       -17.7926
 110   2.0000      -0.650367       -17.6974
 111   2.0000      -0.644053       -17.5256
 112   2.0000      -0.641328       -17.4514
 113   2.0000      -0.638636       -17.3782
 114   2.0000      -0.638166       -17.3654
 115   2.0000      -0.627206       -17.0671
 116   2.0000      -0.626551       -17.0493
 117   2.0000      -0.617532       -16.8039
 118   2.0000      -0.613215       -16.6864
 119   2.0000      -0.611921       -16.6512
 120   2.0000      -0.610579       -16.6147
 121   2.0000      -0.604954       -16.4616
 122   2.0000      -0.600682       -16.3454
 123   2.0000      -0.587173       -15.9778
 124   2.0000      -0.583031       -15.8651
 125   2.0000      -0.581101       -15.8125
 126   2.0000      -0.579577       -15.7711
 127   2.0000      -0.577190       -15.7061
 128   2.0000      -0.565319       -15.3831
 129   2.0000      -0.558856       -15.2072
 130   2.0000      -0.552482       -15.0338
 131   2.0000      -0.547948       -14.9104
 132   2.0000      -0.542051       -14.7500
 133   2.0000      -0.538574       -14.6554
 134   2.0000      -0.537976       -14.6391
 135   2.0000      -0.535422       -14.5696
 136   2.0000      -0.526793       -14.3348
 137   2.0000      -0.523899       -14.2560
 138   2.0000      -0.516590       -14.0571
 139   2.0000      -0.514303       -13.9949
 140   2.0000      -0.512136       -13.9359
 141   2.0000      -0.511268       -13.9123
 142   2.0000      -0.508820       -13.8457
 143   2.0000      -0.503395       -13.6981
 144   2.0000      -0.501419       -13.6443
 145   2.0000      -0.497520       -13.5382
 146   2.0000      -0.493842       -13.4381
 147   2.0000      -0.485009       -13.1978
 148   2.0000      -0.481449       -13.1009
 149   2.0000      -0.467340       -12.7170
 150   2.0000      -0.465214       -12.6591
 151   2.0000      -0.456946       -12.4341
 152   2.0000      -0.449822       -12.2403
 153   2.0000      -0.445669       -12.1273
 154   2.0000      -0.442475       -12.0404
 155   2.0000      -0.437770       -11.9123
 156   2.0000      -0.430063       -11.7026
 157   2.0000      -0.421130       -11.4595
 158   2.0000      -0.402872       -10.9627
 159   2.0000      -0.387953       -10.5567
 160   2.0000      -0.380983       -10.3671
 161   2.0000      -0.378203       -10.2914
 162   2.0000      -0.370095       -10.0708
 163   2.0000      -0.357312        -9.7230
 164   2.0000      -0.355052        -9.6614
 165   2.0000      -0.339540        -9.2394
 166   2.0000      -0.337288        -9.1781
 167   2.0000      -0.327991        -8.9251
 168   2.0000      -0.326448        -8.8831
 169   2.0000      -0.303028        -8.2458
 170   2.0000      -0.299822        -8.1586
 171   2.0000      -0.286504        -7.7962
 172   2.0000      -0.283162        -7.7052
 173   2.0000      -0.261838        -7.1250
 174   2.0000      -0.243849        -6.6355
 175   2.0000      -0.189698        -5.1619
 176   2.0000      -0.179994        -4.8979
 177   2.0000      -0.074145        -2.0176
 178   2.0000      -0.057814        -1.5732
 179   0.0000       0.028767         0.7828
 180   0.0000       0.067091         1.8256
 181   0.0000       0.091638         2.4936
 182   0.0000       0.107895         2.9360
 183   0.0000       0.112995         3.0748

MULLIKEN ATOMIC CHARGES
-----------------------
   0 C :    0.208824
   1 N :   -0.453800
   2 C :   -0.063798
   3 N :   -0.336506
   4 C :   -0.048590
   5 N :   -0.563600
   6 C :   -0.106221
   7 N :   -0.339872
   8 C :    0.205576
   9 N :   -0.562437
  10 C :    0.118330
  11 N :   -0.438225
  12 C :   -0.083474
  13 N :   -0.431873
  14 C :    0.236766
  15 N :   -0.441047
  16 C :    0.227981
  17 C :   -0.117283
  18 C :   -0.200122
  19 C :    0.229416
  20 C :    0.212348
  21 C :   -0.095233
  22 C :   -0.090809
  23 C :   -0.041296
  24 C :    0.195954
  25 C :    0.114461
  26 C :   -0.078210
  27 C :    0.213488
  28 C :   -0.059940
  29 C :   -0.180501
  30 C :    0.243926
  31 C :    0.225981
  32 C :   -0.062496
  33 C :   -0.065188
  34 C :   -0.050745
  35 C :    0.222716
  36 C :    0.109578
  37 C :   -0.064891
  38 C :    0.232587
  39 C :   -0.058579
  40 C :   -0.182966
  41 C :    0.224877
  42 C :    0.198378
  43 C :   -0.072517
  44 C :   -0.089708
  45 C :   -0.059524
  46 C :    0.209734
  47 C :    0.115453
  48 C :   -0.068474
  49 C :    0.236255
  50 C :   -0.047848
  51 C :   -0.191034
  52 H :    0.041136
  53 H :   -0.016169
  54 H :    0.052954
  55 H :    0.040647
  56 H :    0.050591
  57 H :    0.049190
  58 H :    0.048423
  59 H :    0.000878
  60 H :    0.048644
  61 H :    0.171417
  62 H :    0.174920
  63 H :    0.055479
  64 H :   -0.008054
  65 H :    0.047392
  66 H :    0.056158
  67 H :    0.062397
  68 H :    0.057468
  69 H :    0.056832
  70 H :   -0.028526
  71 H :    0.045233
  72 H :    0.068040
  73 H :   -0.009147
  74 H :    0.057353
  75 H :    0.067351
  76 H :    0.072027
  77 H :    0.065794
  78 H :    0.065070
  79 H :   -0.015914
  80 H :    0.058156
  81 H :    0.053924
  82 H :   -0.024483
  83 H :    0.042154
  84 H :    0.053952
  85 H :    0.060467
  86 H :    0.055663
  87 H :    0.056966
  88 H :   -0.015828
  89 H :    0.045622
Sum of atomic charges:   -0.0000000

LOEWDIN ATOMIC CHARGES
----------------------
   0 C :   -0.019420
   1 N :    0.118396
   2 C :   -0.101043
   3 N :    0.183150
   4 C :   -0.003060
   5 N :   -0.133108
   6 C :   -0.036173
   7 N :    0.176057
   8 C :   -0.021523
   9 N :   -0.140232
  10 C :    0.024641
  11 N :    0.142427
  12 C :   -0.111997
  13 N :    0.160637
  14 C :   -0.030812
  15 N :    0.138524
  16 C :   -0.057647
  17 C :   -0.042613
  18 C :   -0.102995
  19 C :   -0.082901
  20 C :    0.003715
  21 C :   -0.119793
  22 C :    0.037337
  23 C :   -0.015506
  24 C :   -0.010401
  25 C :    0.029927
  26 C :   -0.106851
  27 C :   -0.112825
  28 C :   -0.026381
  29 C :   -0.101127
  30 C :   -0.033159
  31 C :    0.019322
  32 C :   -0.095396
  33 C :    0.072396
  34 C :   -0.016043
  35 C :    0.016721
  36 C :    0.033986
  37 C :   -0.095767
  38 C :   -0.049716
  39 C :   -0.019303
  40 C :   -0.108313
  41 C :   -0.091859
  42 C :   -0.009714
  43 C :   -0.100310
  44 C :    0.032948
  45 C :   -0.026911
  46 C :    0.000262
  47 C :    0.029422
  48 C :   -0.096693
  49 C :   -0.073662
  50 C :   -0.019969
  51 C :   -0.108478
  52 H :    0.024183
  53 H :    0.003293
  54 H :    0.042428
  55 H :    0.024314
  56 H :    0.022236
  57 H :    0.027045
  58 H :    0.027469
  59 H :    0.009774
  60 H :    0.040240
  61 H :    0.060129
  62 H :    0.061571
  63 H :    0.030760
  64 H :    0.005179
  65 H :    0.045902
  66 H :    0.029547
  67 H :    0.028227
  68 H :    0.031732
  69 H :    0.030493
  70 H :   -0.003931
  71 H :    0.043737
  72 H :    0.036179
  73 H :    0.006568
  74 H :    0.049405
  75 H :    0.035736
  76 H :    0.033298
  77 H :    0.035147
  78 H :    0.034826
  79 H :    0.003294
  80 H :    0.049354
  81 H :    0.028925
  82 H :   -0.002517
  83 H :    0.042710
  84 H :    0.029718
  85 H :    0.027187
  86 H :    0.030222
  87 H :    0.031289
  88 H :    0.001743
  89 H :    0.044421

  Mayer bond orders larger than 0.100000
B(  0-C ,  1-N ) :   1.0951 B(  0-C , 17-C ) :   1.6940 B(  0-C , 52-H ) :   0.9678
B(  1-N ,  8-C ) :   1.0890 B(  1-N , 10-C ) :   0.9756 B(  2-C , 12-C ) :   1.5123
B(  2-C , 16-C ) :   1.3516 B(  2-C , 53-H ) :   0.9757 B(  3-N , 14-C ) :   1.2174
B(  3-N , 16-C ) :   1.1910 B(  3-N , 61-H ) :   0.8990 B(  4-C ,  6-C ) :   1.2167
B(  4-C , 17-C ) :   1.2179 B(  4-C , 18-C ) :   1.4165 B(  5-N , 19-C ) :   1.4483
B(  5-N , 27-C ) :   1.3822 B(  6-C ,  8-C ) :   1.7000 B(  6-C , 54-H ) :   0.9588
B(  7-N , 30-C ) :   1.1956 B(  7-N , 38-C ) :   1.1926 B(  7-N , 62-H ) :   0.8971
B(  8-C , 55-H ) :   0.9677 B(  9-N , 41-C ) :   1.3966 B(  9-N , 49-C ) :   1.4238
B( 10-C , 56-H ) :   0.9769 B( 10-C , 57-H ) :   0.9821 B( 10-C , 58-H ) :   0.9843
B( 11-N , 20-C ) :   1.1297 B( 11-N , 24-C ) :   1.1098 B( 11-N , 25-C ) :   0.9598
B( 12-C , 14-C ) :   1.3522 B( 12-C , 59-H ) :   0.9741 B( 13-N , 31-C ) :   1.1528
B( 13-N , 35-C ) :   1.1497 B( 13-N , 36-C ) :   0.9455 B( 14-C , 18-C ) :   1.1382
B( 15-N , 42-C ) :   1.1090 B( 15-N , 46-C ) :   1.1217 B( 15-N , 47-C ) :   0.9616
B( 16-C , 51-C ) :   1.1754 B( 17-C , 60-H ) :   0.9618 B( 18-C , 19-C ) :   1.1443
B( 19-C , 21-C ) :   1.2408 B( 20-C , 28-C ) :   1.6276 B( 20-C , 63-H ) :   0.9703
B( 21-C , 26-C ) :   1.6134 B( 21-C , 64-H ) :   0.9691 B( 22-C , 23-C ) :   1.2885
B( 22-C , 28-C ) :   1.2659 B( 22-C , 29-C ) :   1.2239 B( 23-C , 24-C ) :   1.6197
B( 23-C , 65-H ) :   0.9704 B( 24-C , 66-H ) :   0.9694 B( 25-C , 67-H ) :   0.9760
B( 25-C , 68-H ) :   0.9828 B( 25-C , 69-H ) :   0.9823 B( 26-C , 27-C ) :   1.2368
B( 26-C , 70-H ) :   0.9712 B( 27-C , 29-C ) :   1.2163 B( 28-C , 71-H ) :   0.9719
B( 29-C , 30-C ) :   1.2363 B( 30-C , 32-C ) :   1.2877 B( 31-C , 39-C ) :   1.5977
B( 31-C , 72-H ) :   0.9685 B( 32-C , 37-C ) :   1.5710 B( 32-C , 73-H ) :   0.9785
B( 33-C , 34-C ) :   1.3001 B( 33-C , 39-C ) :   1.2956 B( 33-C , 40-C ) :   1.1923
B( 34-C , 35-C ) :   1.5949 B( 34-C , 74-H ) :   0.9698 B( 35-C , 75-H ) :   0.9685
B( 36-C , 76-H ) :   0.9767 B( 36-C , 77-H ) :   0.9817 B( 36-C , 78-H ) :   0.9825
B( 37-C , 38-C ) :   1.2920 B( 37-C , 79-H ) :   0.9768 B( 38-C , 40-C ) :   1.2271
B( 39-C , 80-H ) :   0.9708 B( 40-C , 41-C ) :   1.2442 B( 41-C , 43-C ) :   1.1906
B( 42-C , 50-C ) :   1.6335 B( 42-C , 81-H ) :   0.9697 B( 43-C , 48-C ) :   1.6617
B( 43-C , 82-H ) :   0.9725 B( 44-C , 45-C ) :   1.2648 B( 44-C , 50-C ) :   1.2710
B( 44-C , 51-C ) :   1.2598 B( 45-C , 46-C ) :   1.6347 B( 45-C , 83-H ) :   0.9717
B( 46-C , 84-H ) :   0.9700 B( 47-C , 85-H ) :   0.9762 B( 47-C , 86-H ) :   0.9829
B( 47-C , 87-H ) :   0.9825 B( 48-C , 49-C ) :   1.1937 B( 48-C , 88-H ) :   0.9747
B( 49-C , 51-C ) :   1.2379 B( 50-C , 89-H ) :   0.9710

MP2 TOTAL ENERGY:    -2130.894561857 Eh
FINAL SINGLE POINT ENERGY     -2130.894561857017

DIPOLE MOMENT
-------------
                                X             Y             Z
Electronic contribution:      2.17257      -3.50601      -0.11801
Nuclear contribution   :     -0.05054       0.15156       0.14143
                        -----------------------------------------
Total Dipole Moment    :      2.12203      -3.35445       0.02342
                        -----------------------------------------
Magnitude (a.u.)       :      3.96937
Magnitude (Debye)      :     10.08933

Rotational constants in cm-1:     0.001501     0.001476     0.000761
Rotational constants in MHz :    45.011864    44.258532    22.807436

                             ****ORCA TERMINATED NORMALLY****
TOTAL RUN TIME: 0 days 1 hours 30 minutes 55 seconds 576 msec
