                         Program Version 5.0.4 -  RELEASE  -
|  1> ! PAL2
|  2> ! mp2 cc-pvdz TightSCF  NoKeepInts
|  3>
|  4> %scf
|  5>   MaxCore 2000
|  6> end
|  7> %mp2
|  8>   MaxCore 2000
|  9> end
| 10> * xyz 0 1
| 11>    C       -3.17300         6.38700         0.69900
| 12>    C        1.47400         4.04100         0.05700
| 13>    C       -2.80200         4.09300         0.04900
| 14>    C       -4.06600         4.11500        -0.56000
| 15>    C       -4.83400         5.26200        -0.52300
| 16>    C       -5.21700         7.60000         0.09200
| 17>    C        0.13200         4.30700         0.06100
| 18>    C       -0.56900         3.05600         0.04700
| 19>    C        1.64900         2.61800         0.02300
| 20>    C       -2.36600         5.26600         0.68400
| 21>    N       -4.38700         6.37500         0.10300
| 22>    N        0.38800         2.06700         0.02500
| 23>    N       -2.01000         0.39500        -0.07500
| 24>    N       -0.38800        -2.07400        -0.02700
| 25>    N        2.01000        -0.40100         0.06500
| 26>    C       -1.96000         2.86100         0.02400
| 27>    C       -2.62300         1.61500        -0.01800
| 28>    C       -5.57300        -4.32900         1.06600
| 29>    C       -4.07300         1.47100         0.05600
| 30>    C       -4.10600        -2.75600        -0.02600
| 31>    C       -4.99500        -2.75700        -1.11100
| 32>    C       -6.13200        -3.54200        -1.07600
| 33>    C       -7.65100        -5.11300         0.04000
| 34>    C       -4.32400         0.14100         0.03700
| 35>    C       -3.02500        -0.52000        -0.04800
| 36>    C       -4.42200        -3.56600         1.07500
| 37>    N       -6.40700        -4.31300         0.00100
| 38>    C       -2.86700        -1.92200        -0.04000
| 39>    C       -1.65000        -2.62400        -0.02700
| 40>    C        3.56800        -6.14200        -1.04000
| 41>    C       -1.47600        -4.04900        -0.03400
| 42>    C        2.80300        -4.09900        -0.00800
| 43>    C        3.65700        -4.38400         1.06900
| 44>    C        4.42700        -5.53000         1.05900
| 45>    C        5.24500        -7.58800         0.01400
| 46>    C       -0.13400        -4.31500        -0.02200
| 47>    C        0.56800        -3.06400        -0.02700
| 48>    C        2.77500        -5.01200        -1.07400
| 49>    N        4.37600        -6.39100         0.01700
| 50>    C        1.95900        -2.86900        -0.00900
| 51>    C        2.62100        -1.62200         0.00900
| 52>    C        5.54300         4.33900        -1.13000
| 53>    C        4.07000        -1.47900        -0.09400
| 54>    C        4.10400         2.75100        -0.02100
| 55>    C        5.02700         2.72900         1.03600
| 56>    C        6.16600         3.50900         0.97800
| 57>    C        7.61900         5.15300        -0.11500
| 58>    C        4.32100        -0.14800        -0.09200
| 59>    C        3.02500         0.51400         0.01500
| 60>    C        4.38700         3.58200        -1.11500
| 61>    C        2.86600         1.91600         0.01300
| 62>    N        6.41300         4.29600        -0.09500
| 63>    H       -2.88200         7.31000         1.18700
| 64>    H        2.27400         4.76600         0.08100
| 65>    H       -4.45400         3.24400        -1.07400
| 66>    H       -5.81000         5.32900        -0.98600
| 67>    H       -5.01400         8.15900        -0.82400
| 68>    H       -6.26800         7.31100         0.13000
| 69>    H       -4.96300         8.20300         0.96300
| 70>    H       -0.33200         5.28200         0.06900
| 71>    H       -1.40500         5.30800         1.18400
| 72>    H        0.18200         1.07200         0.00500
| 73>    H       -0.18300        -1.08000        -0.02100
| 74>    H       -5.86400        -4.96200         1.89500
| 75>    H       -4.79400         2.27200         0.13900
| 76>    H       -4.80000        -2.16000        -1.99400
| 77>    H       -6.84100        -3.58200        -1.89300
| 78>    H       -8.42800        -4.53600         0.54600
| 79>    H       -7.95600        -5.33700        -0.98100
| 80>    H       -7.45600        -6.03700         0.58400
| 81>    H       -5.28700        -0.34400         0.10000
| 82>    H       -3.78000        -3.60100         1.94700
| 83>    H        3.58700        -6.86800        -1.84300
| 84>    H       -2.27600        -4.77400        -0.05000
| 85>    H        3.71400        -3.72400         1.92600
| 86>    H        5.09200        -5.79500         1.87100
| 87>    H        6.20500        -7.32900        -0.43900
| 88>    H        5.39300        -7.91700         1.04200
| 89>    H        4.75900        -8.37300        -0.56400
| 90>    H        0.32900        -5.29000        -0.00800
| 91>    H        2.14600        -4.84200        -1.94000
| 92>    H        5.80800         4.98600        -1.95600
| 93>    H        4.78800        -2.28100        -0.18500
| 94>    H        4.86000         2.11400         1.91200
| 95>    H        6.90100         3.53100         1.77200
| 96>    H        7.38300         6.10900         0.35600
| 97>    H        8.41400         4.65200         0.43500
| 98>    H        7.92100         5.31000        -1.15000
| 99>    H        5.28300         0.33600        -0.17900
|100>    H        3.72000         3.63200        -1.96700
|101> *
|102>
|103>                          ****END OF INPUT****

CARTESIAN COORDINATES (ANGSTROEM)
---------------------------------
  C     -3.173000    6.387000    0.699000
  C      1.474000    4.041000    0.057000
  C     -2.802000    4.093000    0.049000
  C     -4.066000    4.115000   -0.560000
  C     -4.834000    5.262000   -0.523000
  C     -5.217000    7.600000    0.092000
  C      0.132000    4.307000    0.061000
  C     -0.569000    3.056000    0.047000
  C      1.649000    2.618000    0.023000
  C     -2.366000    5.266000    0.684000
  N     -4.387000    6.375000    0.103000
  N      0.388000    2.067000    0.025000
  N     -2.010000    0.395000   -0.075000
  N     -0.388000   -2.074000   -0.027000
  N      2.010000   -0.401000    0.065000
  C     -1.960000    2.861000    0.024000
  C     -2.623000    1.615000   -0.018000
  C     -5.573000   -4.329000    1.066000
  C     -4.073000    1.471000    0.056000
  C     -4.106000   -2.756000   -0.026000
  C     -4.995000   -2.757000   -1.111000
  C     -6.132000   -3.542000   -1.076000
  C     -7.651000   -5.113000    0.040000
  C     -4.324000    0.141000    0.037000
  C     -3.025000   -0.520000   -0.048000
  C     -4.422000   -3.566000    1.075000
  N     -6.407000   -4.313000    0.001000
  C     -2.867000   -1.922000   -0.040000
  C     -1.650000   -2.624000   -0.027000
  C      3.568000   -6.142000   -1.040000
  C     -1.476000   -4.049000   -0.034000
  C      2.803000   -4.099000   -0.008000
  C      3.657000   -4.384000    1.069000
  C      4.427000   -5.530000    1.059000
  C      5.245000   -7.588000    0.014000
  C     -0.134000   -4.315000   -0.022000
  C      0.568000   -3.064000   -0.027000
  C      2.775000   -5.012000   -1.074000
  N      4.376000   -6.391000    0.017000
  C      1.959000   -2.869000   -0.009000
  C      2.621000   -1.622000    0.009000
  C      5.543000    4.339000   -1.130000
  C      4.070000   -1.479000   -0.094000
  C      4.104000    2.751000   -0.021000
  C      5.027000    2.729000    1.036000
  C      6.166000    3.509000    0.978000
  C      7.619000    5.153000   -0.115000
  C      4.321000   -0.148000   -0.092000
  C      3.025000    0.514000    0.015000
  C      4.387000    3.582000   -1.115000
  C      2.866000    1.916000    0.013000
  N      6.413000    4.296000   -0.095000
  H     -2.882000    7.310000    1.187000
  H      2.274000    4.766000    0.081000
  H     -4.454000    3.244000   -1.074000
  H     -5.810000    5.329000   -0.986000
  H     -5.014000    8.159000   -0.824000
  H     -6.268000    7.311000    0.130000
  H     -4.963000    8.203000    0.963000
  H     -0.332000    5.282000    0.069000
  H     -1.405000    5.308000    1.184000
  H      0.182000    1.072000    0.005000
  H     -0.183000   -1.080000   -0.021000
  H     -5.864000   -4.962000    1.895000
  H     -4.794000    2.272000    0.139000
  H     -4.800000   -2.160000   -1.994000
  H     -6.841000   -3.582000   -1.893000
  H     -8.428000   -4.536000    0.546000
  H     -7.956000   -5.337000   -0.981000
  H     -7.456000   -6.037000    0.584000
  H     -5.287000   -0.344000    0.100000
  H     -3.780000   -3.601000    1.947000
  H      3.587000   -6.868000   -1.843000
  H     -2.276000   -4.774000   -0.050000
  H      3.714000   -3.724000    1.926000
  H      5.092000   -5.795000    1.871000
  H      6.205000   -7.329000   -0.439000
  H      5.393000   -7.917000    1.042000
  H      4.759000   -8.373000   -0.564000
  H      0.329000   -5.290000   -0.008000
  H      2.146000   -4.842000   -1.940000
  H      5.808000    4.986000   -1.956000
  H      4.788000   -2.281000   -0.185000
  H      4.860000    2.114000    1.912000
  H      6.901000    3.531000    1.772000
  H      7.383000    6.109000    0.356000
  H      8.414000    4.652000    0.435000
  H      7.921000    5.310000   -1.150000
  H      5.283000    0.336000   -0.179000
  H      3.720000    3.632000   -1.967000

 Total Charge           Charge          ....    0
 Multiplicity           Mult            ....    1
 Number of Electrons    NEL             ....  358
 Basis Dimension        Dim             ....  918

ORBITAL ENERGIES
----------------

  NO   OCC          E(Eh)            E(eV)
   0   2.0000     -15.673174      -426.4887
   1   2.0000     -15.637132      -425.5080
   2   2.0000     -15.628949      -425.2853
   3   2.0000     -15.590168      -424.2300
   4   2.0000     -15.525219      -422.4627
   5   2.0000     -15.515766      -422.2055
   6   2.0000     -15.451903      -420.4677
   7   2.0000     -15.442713      -420.2176
   8   2.0000     -11.324360      -308.1515
   9   2.0000     -11.323847      -308.1375
  10   2.0000     -11.322329      -308.0962
  11   2.0000     -11.301307      -307.5242
  12   2.0000     -11.296504      -307.3935
  13   2.0000     -11.295288      -307.3604
  14   2.0000     -11.289805      -307.2112
  15   2.0000     -11.288363      -307.1720
  16   2.0000     -11.284376      -307.0635
  17   2.0000     -11.275863      -306.8318
  18   2.0000     -11.272814      -306.7489
  19   2.0000     -11.258766      -306.3666
  20   2.0000     -11.257820      -306.3408
  21   2.0000     -11.256440      -306.3033
  22   2.0000     -11.253350      -306.2192
  23   2.0000     -11.240804      -305.8778
  24   2.0000     -11.233765      -305.6863
  25   2.0000     -11.233588      -305.6815
  26   2.0000     -11.233012      -305.6658
  27   2.0000     -11.227563      -305.5175
  28   2.0000     -11.227252      -305.5091
  29   2.0000     -11.210733      -305.0595
  30   2.0000     -11.209267      -305.0197
  31   2.0000     -11.199630      -304.7574
  32   2.0000     -11.192443      -304.5619
  33   2.0000     -11.191930      -304.5479
  34   2.0000     -11.189408      -304.4793
  35   2.0000     -11.188814      -304.4631
  36   2.0000     -11.188695      -304.4599
  37   2.0000     -11.184733      -304.3521
  38   2.0000     -11.183674      -304.3232
  39   2.0000     -11.174471      -304.0728
  40   2.0000     -11.173237      -304.0392
  41   2.0000     -11.168693      -303.9156
  42   2.0000     -11.168595      -303.9129
  43   2.0000     -11.161789      -303.7277
  44   2.0000     -11.160119      -303.6823
  45   2.0000     -11.158152      -303.6288
  46   2.0000     -11.158075      -303.6267
  47   2.0000     -11.153046      -303.4898
  48   2.0000     -11.147252      -303.3322
  49   2.0000     -11.139772      -303.1286
  50   2.0000     -11.133618      -302.9611
  51   2.0000     -11.124934      -302.7248
  52   2.0000      -1.354754       -36.8647
  53   2.0000      -1.323968       -36.0270
  54   2.0000      -1.317105       -35.8402
  55   2.0000      -1.284444       -34.9515
  56   2.0000      -1.225941       -33.3596
  57   2.0000      -1.210119       -32.9290
  58   2.0000      -1.170679       -31.8558
  59   2.0000      -1.153114       -31.3778
  60   2.0000      -1.138914       -30.9914
  61   2.0000      -1.112526       -30.2734
  62   2.0000      -1.106866       -30.1194
  63   2.0000      -1.080528       -29.4027
  64   2.0000      -1.076863       -29.3029
  65   2.0000      -1.048058       -28.5191
  66   2.0000      -1.041872       -28.3508
  67   2.0000      -1.038085       -28.2477
  68   2.0000      -1.015074       -27.6216
  69   2.0000      -1.012980       -27.5646
  70   2.0000      -1.009352       -27.4659
  71   2.0000      -0.993312       -27.0294
  72   2.0000      -0.986782       -26.8517
  73   2.0000      -0.979970       -26.6664
  74   2.0000      -0.971882       -26.4463
  75   2.0000      -0.960179       -26.1278
  76   2.0000      -0.952662       -25.9233
  77   2.0000      -0.946390       -25.7526
  78   2.0000      -0.935282       -25.4503
  79   2.0000      -0.919261       -25.0144
  80   2.0000      -0.905903       -24.6509
  81   2.0000      -0.893626       -24.3168
  82   2.0000      -0.875502       -23.8236
  83   2.0000      -0.872380       -23.7387
  84   2.0000      -0.867653       -23.6100
  85   2.0000      -0.856138       -23.2967
  86   2.0000      -0.839591       -22.8464
  87   2.0000      -0.836881       -22.7727
  88   2.0000      -0.823512       -22.4089
  89   2.0000      -0.797991       -21.7144
  90   2.0000      -0.791657       -21.5421
  91   2.0000      -0.749966       -20.4076
  92   2.0000      -0.740979       -20.1631
  93   2.0000      -0.733281       -19.9536
  94   2.0000      -0.724384       -19.7115
  95   2.0000      -0.720923       -19.6173
  96   2.0000      -0.715481       -19.4692
  97   2.0000      -0.710160       -19.3244
  98   2.0000      -0.705589       -19.2001
  99   2.0000      -0.696747       -18.9595
 100   2.0000      -0.696144       -18.9431
 101   2.0000      -0.683805       -18.6073
 102   2.0000      -0.680049       -18.5051
 103   2.0000      -0.679552       -18.4916
 104   2.0000      -0.676411       -18.4061
 105   2.0000      -0.671667       -18.2770
 106   2.0000      -0.668577       -18.1929
 107   2.0000      -0.661625       -18.0037
 108   2.0000      -0.655353       -17.8331
 109   2.0000      -0.654001       -17.7963
 110   2.0000      -0.649225       -17.6663
 111   2.0000      -0.643004       -17.4970
 112   2.0000      -0.641375       -17.4527
 113   2.0000      -0.640567       -17.4307
 114   2.0000      -0.636865       -17.3300
 115   2.0000      -0.626309       -17.0427
 116   2.0000      -0.624041       -16.9810
 117   2.0000      -0.617364       -16.7993
 118   2.0000      -0.614831       -16.7304
 119   2.0000      -0.613137       -16.6843
 120   2.0000      -0.609256       -16.5787
 121   2.0000      -0.607159       -16.5216
 122   2.0000      -0.599427       -16.3112
 123   2.0000      -0.586274       -15.9533
 124   2.0000      -0.583216       -15.8701
 125   2.0000      -0.580805       -15.8045
 126   2.0000      -0.578695       -15.7471
 127   2.0000      -0.577101       -15.7037
 128   2.0000      -0.566803       -15.4235
 129   2.0000      -0.558802       -15.2058
 130   2.0000      -0.550607       -14.9828
 131   2.0000      -0.547749       -14.9050
 132   2.0000      -0.543572       -14.7914
 133   2.0000      -0.540568       -14.7096
 134   2.0000      -0.539518       -14.6810
 135   2.0000      -0.534319       -14.5396
 136   2.0000      -0.526825       -14.3356
 137   2.0000      -0.522911       -14.2291
 138   2.0000      -0.518257       -14.1025
 139   2.0000      -0.513319       -13.9681
 140   2.0000      -0.512218       -13.9382
 141   2.0000      -0.510374       -13.8880
 142   2.0000      -0.510221       -13.8838
 143   2.0000      -0.503496       -13.7008
 144   2.0000      -0.500676       -13.6241
 145   2.0000      -0.496301       -13.5050
 146   2.0000      -0.494028       -13.4432
 147   2.0000      -0.483703       -13.1622
 148   2.0000      -0.479372       -13.0444
 149   2.0000      -0.466799       -12.7023
 150   2.0000      -0.465853       -12.6765
 151   2.0000      -0.457288       -12.4435
 152   2.0000      -0.449911       -12.2427
 153   2.0000      -0.446218       -12.1422
 154   2.0000      -0.442111       -12.0304
 155   2.0000      -0.433946       -11.8083
 156   2.0000      -0.429183       -11.6787
 157   2.0000      -0.421864       -11.4795
 158   2.0000      -0.405317       -11.0292
 159   2.0000      -0.386912       -10.5284
 160   2.0000      -0.383300       -10.4301
 161   2.0000      -0.378374       -10.2961
 162   2.0000      -0.371201       -10.1009
 163   2.0000      -0.358868        -9.7653
 164   2.0000      -0.353807        -9.6276
 165   2.0000      -0.339740        -9.2448
 166   2.0000      -0.337736        -9.1903
 167   2.0000      -0.327214        -8.9039
 168   2.0000      -0.324560        -8.8317
 169   2.0000      -0.304891        -8.2965
 170   2.0000      -0.299485        -8.1494
 171   2.0000      -0.285762        -7.7760
 172   2.0000      -0.281844        -7.6694
 173   2.0000      -0.261847        -7.1252
 174   2.0000      -0.243589        -6.6284
 175   2.0000      -0.189970        -5.1693
 176   2.0000      -0.180349        -4.9076
 177   2.0000      -0.075882        -2.0648
 178   2.0000      -0.058412        -1.5895
 179   0.0000       0.028406         0.7730
 180   0.0000       0.066224         1.8020
 181   0.0000       0.091411         2.4874
 182   0.0000       0.109707         2.9853
 183   0.0000       0.110747         3.0136

MULLIKEN ATOMIC CHARGES
-----------------------
   0 C :    0.211101
   1 N :   -0.455260
   2 C :   -0.067572
   3 N :   -0.337210
   4 C :   -0.054793
   5 N :   -0.561954
   6 C :   -0.114133
   7 N :   -0.340349
   8 C :    0.205114
   9 N :   -0.562636
  10 C :    0.118833
  11 N :   -0.437853
  12 C :   -0.079427
  13 N :   -0.430950
  14 C :    0.221300
  15 N :   -0.441478
  16 C :    0.230325
  17 C :   -0.123322
  18 C :   -0.162232
  19 C :    0.206951
  20 C :    0.214010
  21 C :   -0.092378
  22 C :   -0.089018
  23 C :   -0.040963
  24 C :    0.196256
  25 C :    0.114187
  26 C :   -0.077806
  27 C :    0.212260
  28 C :   -0.060172
  29 C :   -0.181013
  30 C :    0.244435
  31 C :    0.228492
  32 C :   -0.061523
  33 C :   -0.063598
  34 C :   -0.049808
  35 C :    0.223689
  36 C :    0.109105
  37 C :   -0.064622
  38 C :    0.233069
  39 C :   -0.059188
  40 C :   -0.181628
  41 C :    0.223909
  42 C :    0.197378
  43 C :   -0.072811
  44 C :   -0.091076
  45 C :   -0.060516
  46 C :    0.209236
  47 C :    0.115690
  48 C :   -0.068362
  49 C :    0.236769
  50 C :   -0.047239
  51 C :   -0.193789
  52 H :    0.040406
  53 H :   -0.016759
  54 H :    0.053101
  55 H :    0.037988
  56 H :    0.048924
  57 H :    0.048828
  58 H :    0.047221
  59 H :    0.001325
  60 H :    0.050531
  61 H :    0.171011
  62 H :    0.175409
  63 H :    0.056415
  64 H :   -0.003961
  65 H :    0.046988
  66 H :    0.056534
  67 H :    0.063290
  68 H :    0.057751
  69 H :    0.057250
  70 H :   -0.028348
  71 H :    0.046151
  72 H :    0.069299
  73 H :   -0.008574
  74 H :    0.058567
  75 H :    0.068551
  76 H :    0.073180
  77 H :    0.066620
  78 H :    0.065787
  79 H :   -0.015679
  80 H :    0.059177
  81 H :    0.053704
  82 H :   -0.025143
  83 H :    0.041093
  84 H :    0.053162
  85 H :    0.059935
  86 H :    0.055093
  87 H :    0.056732
  88 H :   -0.015394
  89 H :    0.046399
Sum of atomic charges:   -0.0000000

LOEWDIN ATOMIC CHARGES
----------------------
   0 C :   -0.019167
   1 N :    0.116143
   2 C :   -0.102185
   3 N :    0.183301
   4 C :   -0.008902
   5 N :   -0.130660
   6 C :   -0.037623
   7 N :    0.175655
   8 C :   -0.025576
   9 N :   -0.140377
  10 C :    0.023848
  11 N :    0.143489
  12 C :   -0.112912
  13 N :    0.162717
  14 C :   -0.030943
  15 N :    0.137495
  16 C :   -0.057567
  17 C :   -0.045946
  18 C :   -0.101504
  19 C :   -0.083450
  20 C :    0.005488
  21 C :   -0.118480
  22 C :    0.039193
  23 C :   -0.015231
  24 C :   -0.009986
  25 C :    0.030192
  26 C :   -0.108155
  27 C :   -0.115151
  28 C :   -0.026084
  29 C :   -0.099022
  30 C :   -0.033027
  31 C :    0.022002
  32 C :   -0.093779
  33 C :    0.075874
  34 C :   -0.015021
  35 C :    0.018057
  36 C :    0.034445
  37 C :   -0.095052
  38 C :   -0.048819
  39 C :   -0.019255
  40 C :   -0.108104
  41 C :   -0.093701
  42 C :   -0.010670
  43 C :   -0.100429
  44 C :    0.031228
  45 C :   -0.027953
  46 C :   -0.000486
  47 C :    0.029193
  48 C :   -0.096964
  49 C :   -0.071768
  50 C :   -0.019601
  51 C :   -0.109953
  52 H :    0.023958
  53 H :    0.003000
  54 H :    0.041775
  55 H :    0.023269
  56 H :    0.021431
  57 H :    0.026918
  58 H :    0.026926
  59 H :    0.010862
  60 H :    0.040045
  61 H :    0.059973
  62 H :    0.061811
  63 H :    0.031224
  64 H :    0.007211
  65 H :    0.045788
  66 H :    0.029710
  67 H :    0.028658
  68 H :    0.031866
  69 H :    0.030705
  70 H :   -0.004002
  71 H :    0.044121
  72 H :    0.036805
  73 H :    0.006845
  74 H :    0.049976
  75 H :    0.036276
  76 H :    0.033887
  77 H :    0.035536
  78 H :    0.035170
  79 H :    0.003398
  80 H :    0.049757
  81 H :    0.028805
  82 H :   -0.002850
  83 H :    0.042204
  84 H :    0.029367
  85 H :    0.026921
  86 H :    0.029956
  87 H :    0.031181
  88 H :    0.001954
  89 H :    0.044745

  Mayer bond orders larger than 0.100000
B(  0-C ,  1-N ) :   1.0949 B(  0-C , 17-C ) :   1.7052 B(  0-C , 52-H ) :   0.9663
B(  1-N ,  8-C ) :   1.0841 B(  1-N , 10-C ) :   0.9777 B(  2-C , 12-C ) :   1.5074
B(  2-C , 16-C ) :   1.3553 B(  2-C , 53-H ) :   0.9758 B(  3-N , 14-C ) :   1.2178
B(  3-N , 16-C ) :   1.1911 B(  3-N , 61-H ) :   0.8994 B(  4-C ,  6-C ) :   1.2129
B(  4-C , 17-C ) :   1.2114 B(  4-C , 18-C ) :   1.4323 B(  5-N , 19-C ) :   1.4522
B(  5-N , 27-C ) :   1.3798 B(  6-C ,  8-C ) :   1.7089 B(  6-C , 54-H ) :   0.9564
B(  7-N , 30-C ) :   1.1940 B(  7-N , 38-C ) :   1.1926 B(  7-N , 62-H ) :   0.8968
B(  8-C , 55-H ) :   0.9678 B(  9-N , 41-C ) :   1.3933 B(  9-N , 49-C ) :   1.4274
B( 10-C , 56-H ) :   0.9769 B( 10-C , 57-H ) :   0.9831 B( 10-C , 58-H ) :   0.9834
B( 11-N , 20-C ) :   1.1318 B( 11-N , 24-C ) :   1.1108 B( 11-N , 25-C ) :   0.9590
B( 12-C , 14-C ) :   1.3556 B( 12-C , 59-H ) :   0.9737 B( 13-N , 31-C ) :   1.1572
B( 13-N , 35-C ) :   1.1522 B( 13-N , 36-C ) :   0.9440 B( 14-C , 18-C ) :   1.1315
B( 15-N , 42-C ) :   1.1070 B( 15-N , 46-C ) :   1.1210 B( 15-N , 47-C ) :   0.9623
B( 16-C , 51-C ) :   1.1725 B( 17-C , 60-H ) :   0.9565 B( 18-C , 19-C ) :   1.1338
B( 19-C , 21-C ) :   1.2436 B( 20-C , 28-C ) :   1.6258 B( 20-C , 63-H ) :   0.9702
B( 21-C , 26-C ) :   1.6114 B( 21-C , 64-H ) :   0.9713 B( 22-C , 23-C ) :   1.2907
B( 22-C , 28-C ) :   1.2673 B( 22-C , 29-C ) :   1.2208 B( 23-C , 24-C ) :   1.6175
B( 23-C , 65-H ) :   0.9705 B( 24-C , 66-H ) :   0.9694 B( 25-C , 67-H ) :   0.9760
B( 25-C , 68-H ) :   0.9828 B( 25-C , 69-H ) :   0.9823 B( 26-C , 27-C ) :   1.2383
B( 26-C , 70-H ) :   0.9702 B( 27-C , 29-C ) :   1.2141 B( 28-C , 71-H ) :   0.9719
B( 29-C , 30-C ) :   1.2420 B( 30-C , 32-C ) :   1.2824 B( 31-C , 39-C ) :   1.5943
B( 31-C , 72-H ) :   0.9683 B( 32-C , 37-C ) :   1.5769 B( 32-C , 73-H ) :   0.9784
B( 33-C , 34-C ) :   1.3039 B( 33-C , 39-C ) :   1.2978 B( 33-C , 40-C ) :   1.1849
B( 34-C , 35-C ) :   1.5909 B( 34-C , 74-H ) :   0.9697 B( 35-C , 75-H ) :   0.9684
B( 36-C , 76-H ) :   0.9767 B( 36-C , 77-H ) :   0.9816 B( 36-C , 78-H ) :   0.9825
B( 37-C , 38-C ) :   1.2866 B( 37-C , 79-H ) :   0.9768 B( 38-C , 40-C ) :   1.2317
B( 39-C , 80-H ) :   0.9707 B( 40-C , 41-C ) :   1.2460 B( 41-C , 43-C ) :   1.1905
B( 42-C , 50-C ) :   1.6358 B( 42-C , 81-H ) :   0.9697 B( 43-C , 48-C ) :   1.6614
B( 43-C , 82-H ) :   0.9723 B( 44-C , 45-C ) :   1.2624 B( 44-C , 50-C ) :   1.2693
B( 44-C , 51-C ) :   1.2648 B( 45-C , 46-C ) :   1.6368 B( 45-C , 83-H ) :   0.9718
B( 46-C , 84-H ) :   0.9701 B( 47-C , 85-H ) :   0.9762 B( 47-C , 86-H ) :   0.9829
B( 47-C , 87-H ) :   0.9825 B( 48-C , 49-C ) :   1.1939 B( 48-C , 88-H ) :   0.9748
B( 49-C , 51-C ) :   1.2366 B( 50-C , 89-H ) :   0.9709

MP2 TOTAL ENERGY:    -2130.893594682 Eh
FINAL SINGLE POINT ENERGY     -2130.893594682298

DIPOLE MOMENT
-------------
                                X             Y             Z
Electronic contribution:      2.17528      -4.00351      -0.06478
Nuclear contribution   :     -0.00623       0.18251       0.07385
                        -----------------------------------------
Total Dipole Moment    :      2.16905      -3.82100       0.00908
                        -----------------------------------------
Magnitude (a.u.)       :      4.39373
Magnitude (Debye)      :     11.16797

Rotational constants in cm-1:     0.001502     0.001476     0.000761
Rotational constants in MHz :    45.032514    44.252816    22.803817

                             ****ORCA TERMINATED NORMALLY****
TOTAL RUN TIME: 0 days 1 hours 3 minutes 54 seconds 288 msec
