                         Program Version 5.0.4 -  RELEASE  -
|  1> ! PAL2
|  2> ! mp2 cc-pvdz TightSCF  NoKeepInts
|  3>
|  4> %scf
|  5>   MaxCore 2000
|  6> end
|  7> %mp2
|  8>   MaxCore 2000
|  9> end
| 10> * xyz 0 1
| 11>    C       -4.57200         5.42500         1.00700
| 12>    C        1.47400         4.04100         0.05700
| 13>    C       -2.80200         4.09300         0.04900
| 14>    C       -2.62300         5.10800        -0.90300
| 15>    C       -3.41400         6.23900        -0.86900
| 16>    C       -5.18000         7.62500         0.10800
| 17>    C        0.13200         4.30700         0.06100
| 18>    C       -0.56900         3.05600         0.04700
| 19>    C        1.64900         2.61800         0.02300
| 20>    C       -3.80100         4.27800         1.01700
| 21>    N       -4.37400         6.38400         0.07400
| 22>    N        0.38800         2.06700         0.02500
| 23>    N       -2.01000         0.39500        -0.07500
| 24>    N       -0.38800        -2.07400        -0.02700
| 25>    N        2.01000        -0.40100         0.06500
| 26>    C       -1.96000         2.86100         0.02400
| 27>    C       -2.62300         1.61500        -0.01800
| 28>    C       -5.57300        -4.32900         1.06600
| 29>    C       -4.07300         1.47100         0.05600
| 30>    C       -4.10600        -2.75600        -0.02600
| 31>    C       -4.99500        -2.75700        -1.11100
| 32>    C       -6.13200        -3.54200        -1.07600
| 33>    C       -7.65100        -5.11300         0.04000
| 34>    C       -4.32400         0.14100         0.03700
| 35>    C       -3.02500        -0.52000        -0.04800
| 36>    C       -4.42200        -3.56600         1.07500
| 37>    N       -6.40700        -4.31300         0.00100
| 38>    C       -2.86700        -1.92200        -0.04000
| 39>    C       -1.65000        -2.62400        -0.02700
| 40>    C        3.56800        -6.14200        -1.04000
| 41>    C       -1.47600        -4.04900        -0.03400
| 42>    C        2.80300        -4.09900        -0.00800
| 43>    C        3.65700        -4.38400         1.06900
| 44>    C        4.42700        -5.53000         1.05900
| 45>    C        5.24500        -7.58800         0.01400
| 46>    C       -0.13400        -4.31500        -0.02200
| 47>    C        0.56800        -3.06400        -0.02700
| 48>    C        2.77500        -5.01200        -1.07400
| 49>    N        4.37600        -6.39100         0.01700
| 50>    C        1.95900        -2.86900        -0.00900
| 51>    C        2.62100        -1.62200         0.00900
| 52>    C        5.54300         4.33900        -1.13000
| 53>    C        4.07000        -1.47900        -0.09400
| 54>    C        4.10400         2.75100        -0.02100
| 55>    C        5.02700         2.72900         1.03600
| 56>    C        6.16600         3.50900         0.97800
| 57>    C        7.61900         5.15300        -0.11500
| 58>    C        4.32100        -0.14800        -0.09200
| 59>    C        3.02500         0.51400         0.01500
| 60>    C        4.38700         3.58200        -1.11500
| 61>    C        2.86600         1.91600         0.01300
| 62>    N        6.41300         4.29600        -0.09500
| 63>    H       -5.36200         5.60400         1.72600
| 64>    H        2.27400         4.76600         0.08100
| 65>    H       -1.86100         5.02800        -1.67000
| 66>    H       -3.30700         7.05200        -1.57600
| 67>    H       -4.64400         8.38100         0.68600
| 68>    H       -5.33200         7.97200        -0.91400
| 69>    H       -6.14000         7.40700         0.57500
| 70>    H       -0.33200         5.28200         0.06900
| 71>    H       -3.99800         3.52400         1.77000
| 72>    H        0.18200         1.07200         0.00500
| 73>    H       -0.18300        -1.08000        -0.02100
| 74>    H       -5.86400        -4.96200         1.89500
| 75>    H       -4.79400         2.27200         0.13900
| 76>    H       -4.80000        -2.16000        -1.99400
| 77>    H       -6.84100        -3.58200        -1.89300
| 78>    H       -8.42800        -4.53600         0.54600
| 79>    H       -7.95600        -5.33700        -0.98100
| 80>    H       -7.45600        -6.03700         0.58400
| 81>    H       -5.28700        -0.34400         0.10000
| 82>    H       -3.78000        -3.60100         1.94700
| 83>    H        3.58700        -6.86800        -1.84300
| 84>    H       -2.27600        -4.77400        -0.05000
| 85>    H        3.71400        -3.72400         1.92600
| 86>    H        5.09200        -5.79500         1.87100
| 87>    H        6.20500        -7.32900        -0.43900
| 88>    H        5.39300        -7.91700         1.04200
| 89>    H        4.75900        -8.37300        -0.56400
| 90>    H        0.32900        -5.29000        -0.00800
| 91>    H        2.14600        -4.84200        -1.94000
| 92>    H        5.80800         4.98600        -1.95600
| 93>    H        4.78800        -2.28100        -0.18500
| 94>    H        4.86000         2.11400         1.91200
| 95>    H        6.90100         3.53100         1.77200
| 96>    H        7.38300         6.10900         0.35600
| 97>    H        8.41400         4.65200         0.43500
| 98>    H        7.92100         5.31000        -1.15000
| 99>    H        5.28300         0.33600        -0.17900
|100>    H        3.72000         3.63200        -1.96700
|101> *
|102>
|103>                          ****END OF INPUT****

CARTESIAN COORDINATES (ANGSTROEM)
---------------------------------
  C     -4.572000    5.425000    1.007000
  C      1.474000    4.041000    0.057000
  C     -2.802000    4.093000    0.049000
  C     -2.623000    5.108000   -0.903000
  C     -3.414000    6.239000   -0.869000
  C     -5.180000    7.625000    0.108000
  C      0.132000    4.307000    0.061000
  C     -0.569000    3.056000    0.047000
  C      1.649000    2.618000    0.023000
  C     -3.801000    4.278000    1.017000
  N     -4.374000    6.384000    0.074000
  N      0.388000    2.067000    0.025000
  N     -2.010000    0.395000   -0.075000
  N     -0.388000   -2.074000   -0.027000
  N      2.010000   -0.401000    0.065000
  C     -1.960000    2.861000    0.024000
  C     -2.623000    1.615000   -0.018000
  C     -5.573000   -4.329000    1.066000
  C     -4.073000    1.471000    0.056000
  C     -4.106000   -2.756000   -0.026000
  C     -4.995000   -2.757000   -1.111000
  C     -6.132000   -3.542000   -1.076000
  C     -7.651000   -5.113000    0.040000
  C     -4.324000    0.141000    0.037000
  C     -3.025000   -0.520000   -0.048000
  C     -4.422000   -3.566000    1.075000
  N     -6.407000   -4.313000    0.001000
  C     -2.867000   -1.922000   -0.040000
  C     -1.650000   -2.624000   -0.027000
  C      3.568000   -6.142000   -1.040000
  C     -1.476000   -4.049000   -0.034000
  C      2.803000   -4.099000   -0.008000
  C      3.657000   -4.384000    1.069000
  C      4.427000   -5.530000    1.059000
  C      5.245000   -7.588000    0.014000
  C     -0.134000   -4.315000   -0.022000
  C      0.568000   -3.064000   -0.027000
  C      2.775000   -5.012000   -1.074000
  N      4.376000   -6.391000    0.017000
  C      1.959000   -2.869000   -0.009000
  C      2.621000   -1.622000    0.009000
  C      5.543000    4.339000   -1.130000
  C      4.070000   -1.479000   -0.094000
  C      4.104000    2.751000   -0.021000
  C      5.027000    2.729000    1.036000
  C      6.166000    3.509000    0.978000
  C      7.619000    5.153000   -0.115000
  C      4.321000   -0.148000   -0.092000
  C      3.025000    0.514000    0.015000
  C      4.387000    3.582000   -1.115000
  C      2.866000    1.916000    0.013000
  N      6.413000    4.296000   -0.095000
  H     -5.362000    5.604000    1.726000
  H      2.274000    4.766000    0.081000
  H     -1.861000    5.028000   -1.670000
  H     -3.307000    7.052000   -1.576000
  H     -4.644000    8.381000    0.686000
  H     -5.332000    7.972000   -0.914000
  H     -6.140000    7.407000    0.575000
  H     -0.332000    5.282000    0.069000
  H     -3.998000    3.524000    1.770000
  H      0.182000    1.072000    0.005000
  H     -0.183000   -1.080000   -0.021000
  H     -5.864000   -4.962000    1.895000
  H     -4.794000    2.272000    0.139000
  H     -4.800000   -2.160000   -1.994000
  H     -6.841000   -3.582000   -1.893000
  H     -8.428000   -4.536000    0.546000
  H     -7.956000   -5.337000   -0.981000
  H     -7.456000   -6.037000    0.584000
  H     -5.287000   -0.344000    0.100000
  H     -3.780000   -3.601000    1.947000
  H      3.587000   -6.868000   -1.843000
  H     -2.276000   -4.774000   -0.050000
  H      3.714000   -3.724000    1.926000
  H      5.092000   -5.795000    1.871000
  H      6.205000   -7.329000   -0.439000
  H      5.393000   -7.917000    1.042000
  H      4.759000   -8.373000   -0.564000
  H      0.329000   -5.290000   -0.008000
  H      2.146000   -4.842000   -1.940000
  H      5.808000    4.986000   -1.956000
  H      4.788000   -2.281000   -0.185000
  H      4.860000    2.114000    1.912000
  H      6.901000    3.531000    1.772000
  H      7.383000    6.109000    0.356000
  H      8.414000    4.652000    0.435000
  H      7.921000    5.310000   -1.150000
  H      5.283000    0.336000   -0.179000
  H      3.720000    3.632000   -1.967000

 Total Charge           Charge          ....    0
 Multiplicity           Mult            ....    1
 Number of Electrons    NEL             ....  358
 Basis Dimension        Dim             ....  918

ORBITAL ENERGIES
----------------

  NO   OCC          E(Eh)            E(eV)
   0   2.0000     -15.644990      -425.7218
   1   2.0000     -15.638362      -425.5415
   2   2.0000     -15.629284      -425.2944
   3   2.0000     -15.618234      -424.9938
   4   2.0000     -15.519897      -422.3179
   5   2.0000     -15.516357      -422.2215
   6   2.0000     -15.445565      -420.2952
   7   2.0000     -15.443715      -420.2448
   8   2.0000     -11.306343      -307.6612
   9   2.0000     -11.301986      -307.5427
  10   2.0000     -11.300722      -307.5083
  11   2.0000     -11.298462      -307.4468
  12   2.0000     -11.296448      -307.3920
  13   2.0000     -11.294526      -307.3397
  14   2.0000     -11.292425      -307.2825
  15   2.0000     -11.290220      -307.2225
  16   2.0000     -11.286668      -307.1259
  17   2.0000     -11.285885      -307.1045
  18   2.0000     -11.278801      -306.9118
  19   2.0000     -11.277713      -306.8822
  20   2.0000     -11.249145      -306.1048
  21   2.0000     -11.241663      -305.9012
  22   2.0000     -11.238591      -305.8176
  23   2.0000     -11.237703      -305.7934
  24   2.0000     -11.233938      -305.6910
  25   2.0000     -11.233773      -305.6865
  26   2.0000     -11.233160      -305.6698
  27   2.0000     -11.227359      -305.5120
  28   2.0000     -11.227189      -305.5073
  29   2.0000     -11.225388      -305.4583
  30   2.0000     -11.219631      -305.3017
  31   2.0000     -11.218265      -305.2645
  32   2.0000     -11.201711      -304.8141
  33   2.0000     -11.201288      -304.8026
  34   2.0000     -11.193793      -304.5986
  35   2.0000     -11.193318      -304.5857
  36   2.0000     -11.175062      -304.0889
  37   2.0000     -11.173983      -304.0595
  38   2.0000     -11.173963      -304.0590
  39   2.0000     -11.171959      -304.0044
  40   2.0000     -11.169440      -303.9359
  41   2.0000     -11.168161      -303.9011
  42   2.0000     -11.167625      -303.8865
  43   2.0000     -11.165623      -303.8320
  44   2.0000     -11.161502      -303.7199
  45   2.0000     -11.160022      -303.6796
  46   2.0000     -11.152216      -303.4672
  47   2.0000     -11.150029      -303.4077
  48   2.0000     -11.146229      -303.3043
  49   2.0000     -11.143977      -303.2430
  50   2.0000     -11.141244      -303.1687
  51   2.0000     -11.137596      -303.0694
  52   2.0000      -1.330690       -36.2099
  53   2.0000      -1.324922       -36.0530
  54   2.0000      -1.317153       -35.8415
  55   2.0000      -1.308225       -35.5986
  56   2.0000      -1.218788       -33.1649
  57   2.0000      -1.212660       -32.9982
  58   2.0000      -1.162772       -31.6406
  59   2.0000      -1.157080       -31.4858
  60   2.0000      -1.118611       -30.4390
  61   2.0000      -1.112912       -30.2839
  62   2.0000      -1.106323       -30.1046
  63   2.0000      -1.099274       -29.9128
  64   2.0000      -1.054411       -28.6920
  65   2.0000      -1.048779       -28.5387
  66   2.0000      -1.041786       -28.3484
  67   2.0000      -1.034095       -28.1391
  68   2.0000      -1.027513       -27.9601
  69   2.0000      -1.010410       -27.4946
  70   2.0000      -1.009624       -27.4733
  71   2.0000      -0.997264       -27.1369
  72   2.0000      -0.982972       -26.7480
  73   2.0000      -0.975593       -26.5472
  74   2.0000      -0.969989       -26.3947
  75   2.0000      -0.959997       -26.1228
  76   2.0000      -0.952355       -25.9149
  77   2.0000      -0.944279       -25.6951
  78   2.0000      -0.940143       -25.5826
  79   2.0000      -0.923397       -25.1269
  80   2.0000      -0.893921       -24.3248
  81   2.0000      -0.880679       -23.9645
  82   2.0000      -0.875682       -23.8285
  83   2.0000      -0.869171       -23.6513
  84   2.0000      -0.863287       -23.4912
  85   2.0000      -0.857081       -23.3224
  86   2.0000      -0.848503       -23.0889
  87   2.0000      -0.843361       -22.9490
  88   2.0000      -0.821877       -22.3644
  89   2.0000      -0.798648       -21.7323
  90   2.0000      -0.797731       -21.7074
  91   2.0000      -0.739845       -20.1322
  92   2.0000      -0.730874       -19.8881
  93   2.0000      -0.729288       -19.8449
  94   2.0000      -0.720996       -19.6193
  95   2.0000      -0.720618       -19.6090
  96   2.0000      -0.712415       -19.3858
  97   2.0000      -0.708951       -19.2915
  98   2.0000      -0.699237       -19.0272
  99   2.0000      -0.693047       -18.8588
 100   2.0000      -0.685473       -18.6527
 101   2.0000      -0.681073       -18.5329
 102   2.0000      -0.679319       -18.4852
 103   2.0000      -0.673726       -18.3330
 104   2.0000      -0.668727       -18.1970
 105   2.0000      -0.666296       -18.1308
 106   2.0000      -0.661982       -18.0135
 107   2.0000      -0.660761       -17.9802
 108   2.0000      -0.656976       -17.8772
 109   2.0000      -0.656599       -17.8670
 110   2.0000      -0.652278       -17.7494
 111   2.0000      -0.650209       -17.6931
 112   2.0000      -0.647758       -17.6264
 113   2.0000      -0.642613       -17.4864
 114   2.0000      -0.635362       -17.2891
 115   2.0000      -0.623949       -16.9785
 116   2.0000      -0.620713       -16.8905
 117   2.0000      -0.615631       -16.7522
 118   2.0000      -0.611670       -16.6444
 119   2.0000      -0.609024       -16.5724
 120   2.0000      -0.608827       -16.5670
 121   2.0000      -0.604350       -16.4452
 122   2.0000      -0.600201       -16.3323
 123   2.0000      -0.592972       -16.1356
 124   2.0000      -0.589027       -16.0282
 125   2.0000      -0.584396       -15.9022
 126   2.0000      -0.578807       -15.7501
 127   2.0000      -0.573250       -15.5989
 128   2.0000      -0.570761       -15.5312
 129   2.0000      -0.560764       -15.2592
 130   2.0000      -0.553774       -15.0690
 131   2.0000      -0.544779       -14.8242
 132   2.0000      -0.541027       -14.7221
 133   2.0000      -0.535700       -14.5771
 134   2.0000      -0.533953       -14.5296
 135   2.0000      -0.530114       -14.4251
 136   2.0000      -0.525051       -14.2874
 137   2.0000      -0.523189       -14.2367
 138   2.0000      -0.519315       -14.1313
 139   2.0000      -0.516419       -14.0525
 140   2.0000      -0.510450       -13.8901
 141   2.0000      -0.505740       -13.7619
 142   2.0000      -0.504473       -13.7274
 143   2.0000      -0.502165       -13.6646
 144   2.0000      -0.499631       -13.5957
 145   2.0000      -0.498437       -13.5631
 146   2.0000      -0.496997       -13.5240
 147   2.0000      -0.492552       -13.4030
 148   2.0000      -0.490995       -13.3607
 149   2.0000      -0.469431       -12.7739
 150   2.0000      -0.460825       -12.5397
 151   2.0000      -0.452184       -12.3045
 152   2.0000      -0.448413       -12.2019
 153   2.0000      -0.446769       -12.1572
 154   2.0000      -0.445488       -12.1224
 155   2.0000      -0.439473       -11.9587
 156   2.0000      -0.435528       -11.8513
 157   2.0000      -0.431657       -11.7460
 158   2.0000      -0.392833       -10.6895
 159   2.0000      -0.384059       -10.4508
 160   2.0000      -0.377563       -10.2740
 161   2.0000      -0.373122       -10.1532
 162   2.0000      -0.364156        -9.9092
 163   2.0000      -0.359251        -9.7757
 164   2.0000      -0.353453        -9.6179
 165   2.0000      -0.345797        -9.4096
 166   2.0000      -0.337111        -9.1733
 167   2.0000      -0.333098        -9.0641
 168   2.0000      -0.329380        -8.9629
 169   2.0000      -0.300294        -8.1714
 170   2.0000      -0.296320        -8.0633
 171   2.0000      -0.288926        -7.8621
 172   2.0000      -0.287287        -7.8175
 173   2.0000      -0.255951        -6.9648
 174   2.0000      -0.248345        -6.7578
 175   2.0000      -0.188422        -5.1272
 176   2.0000      -0.178391        -4.8543
 177   2.0000      -0.067666        -1.8413
 178   2.0000      -0.054819        -1.4917
 179   0.0000       0.030606         0.8328
 180   0.0000       0.070565         1.9202
 181   0.0000       0.092787         2.5249
 182   0.0000       0.098276         2.6742
 183   0.0000       0.130075         3.5395

MULLIKEN ATOMIC CHARGES
-----------------------
   0 C :    0.208991
   1 N :   -0.445838
   2 C :   -0.063511
   3 N :   -0.336787
   4 C :   -0.058298
   5 N :   -0.563193
   6 C :   -0.077249
   7 N :   -0.338336
   8 C :    0.203283
   9 N :   -0.563159
  10 C :    0.115803
  11 N :   -0.437432
  12 C :   -0.075427
  13 N :   -0.437549
  14 C :    0.244072
  15 N :   -0.440825
  16 C :    0.231916
  17 C :   -0.083457
  18 C :   -0.216410
  19 C :    0.241303
  20 C :    0.209513
  21 C :   -0.088331
  22 C :   -0.087803
  23 C :   -0.046496
  24 C :    0.203004
  25 C :    0.113937
  26 C :   -0.071916
  27 C :    0.220235
  28 C :   -0.054638
  29 C :   -0.183814
  30 C :    0.237732
  31 C :    0.215132
  32 C :   -0.064638
  33 C :   -0.076655
  34 C :   -0.050418
  35 C :    0.209639
  36 C :    0.112816
  37 C :   -0.066394
  38 C :    0.235674
  39 C :   -0.060466
  40 C :   -0.187838
  41 C :    0.222390
  42 C :    0.201913
  43 C :   -0.073188
  44 C :   -0.089123
  45 C :   -0.054380
  46 C :    0.205022
  47 C :    0.115565
  48 C :   -0.072576
  49 C :    0.229110
  50 C :   -0.051609
  51 C :   -0.189485
  52 H :    0.051267
  53 H :   -0.014430
  54 H :    0.046992
  55 H :    0.049200
  56 H :    0.056712
  57 H :    0.054501
  58 H :    0.053958
  59 H :   -0.008747
  60 H :    0.049475
  61 H :    0.172497
  62 H :    0.173376
  63 H :    0.056511
  64 H :   -0.015554
  65 H :    0.047548
  66 H :    0.057517
  67 H :    0.062789
  68 H :    0.058171
  69 H :    0.058429
  70 H :   -0.025457
  71 H :    0.047257
  72 H :    0.059665
  73 H :   -0.012894
  74 H :    0.049678
  75 H :    0.058795
  76 H :    0.064782
  77 H :    0.060278
  78 H :    0.059516
  79 H :   -0.014532
  80 H :    0.050171
  81 H :    0.053452
  82 H :   -0.023686
  83 H :    0.042931
  84 H :    0.053438
  85 H :    0.059460
  86 H :    0.056147
  87 H :    0.056656
  88 H :   -0.019970
  89 H :    0.044293
Sum of atomic charges:   -0.0000000

LOEWDIN ATOMIC CHARGES
----------------------
   0 C :   -0.007502
   1 N :    0.130899
   2 C :   -0.100759
   3 N :    0.180055
   4 C :    0.024138
   5 N :   -0.137123
   6 C :   -0.027263
   7 N :    0.177346
   8 C :   -0.011613
   9 N :   -0.139605
  10 C :    0.027703
  11 N :    0.144458
  12 C :   -0.104230
  13 N :    0.147128
  14 C :   -0.040893
  15 N :    0.138508
  16 C :   -0.049420
  17 C :   -0.029383
  18 C :   -0.106745
  19 C :   -0.084820
  20 C :    0.001820
  21 C :   -0.108488
  22 C :    0.041780
  23 C :   -0.018537
  24 C :   -0.003634
  25 C :    0.030369
  26 C :   -0.102941
  27 C :   -0.100039
  28 C :   -0.022601
  29 C :   -0.105801
  30 C :   -0.042146
  31 C :    0.006439
  32 C :   -0.098519
  33 C :    0.049629
  34 C :   -0.018799
  35 C :    0.001784
  36 C :    0.030911
  37 C :   -0.099810
  38 C :   -0.044120
  39 C :   -0.023457
  40 C :   -0.108907
  41 C :   -0.092662
  42 C :   -0.006790
  43 C :   -0.103216
  44 C :    0.033644
  45 C :   -0.023563
  46 C :   -0.003879
  47 C :    0.029311
  48 C :   -0.101859
  49 C :   -0.084905
  50 C :   -0.022523
  51 C :   -0.108395
  52 H :    0.028337
  53 H :    0.004121
  54 H :    0.042469
  55 H :    0.027570
  56 H :    0.025284
  57 H :    0.029516
  58 H :    0.029977
  59 H :    0.005340
  60 H :    0.043257
  61 H :    0.060486
  62 H :    0.060779
  63 H :    0.031080
  64 H :    0.000339
  65 H :    0.045703
  66 H :    0.030392
  67 H :    0.028492
  68 H :    0.032049
  69 H :    0.031193
  70 H :   -0.002505
  71 H :    0.044902
  72 H :    0.032256
  73 H :    0.004760
  74 H :    0.046175
  75 H :    0.031628
  76 H :    0.029548
  77 H :    0.032553
  78 H :    0.032224
  79 H :    0.004008
  80 H :    0.045863
  81 H :    0.028860
  82 H :   -0.002014
  83 H :    0.043339
  84 H :    0.029316
  85 H :    0.026731
  86 H :    0.030401
  87 H :    0.031137
  88 H :   -0.000228
  89 H :    0.043687

  Mayer bond orders larger than 0.100000
B(  0-C ,  1-N ) :   1.1097 B(  0-C , 17-C ) :   1.6553 B(  0-C , 52-H ) :   0.9691
B(  1-N ,  8-C ) :   1.1040 B(  1-N , 10-C ) :   0.9663 B(  2-C , 12-C ) :   1.5286
B(  2-C , 16-C ) :   1.3330 B(  2-C , 53-H ) :   0.9773 B(  3-N , 14-C ) :   1.2070
B(  3-N , 16-C ) :   1.1950 B(  3-N , 61-H ) :   0.8985 B(  4-C ,  6-C ) :   1.2484
B(  4-C , 17-C ) :   1.2480 B(  4-C , 18-C ) :   1.3194 B(  5-N , 19-C ) :   1.4299
B(  5-N , 27-C ) :   1.3963 B(  6-C ,  8-C ) :   1.6562 B(  6-C , 54-H ) :   0.9698
B(  7-N , 30-C ) :   1.1942 B(  7-N , 38-C ) :   1.1992 B(  7-N , 62-H ) :   0.8980
B(  8-C , 55-H ) :   0.9698 B(  9-N , 41-C ) :   1.4051 B(  9-N , 49-C ) :   1.4174
B( 10-C , 56-H ) :   0.9764 B( 10-C , 57-H ) :   0.9819 B( 10-C , 58-H ) :   0.9838
B( 11-N , 20-C ) :   1.1270 B( 11-N , 24-C ) :   1.1195 B( 11-N , 25-C ) :   0.9584
B( 12-C , 14-C ) :   1.3341 B( 12-C , 59-H ) :   0.9756 B( 13-N , 31-C ) :   1.1320
B( 13-N , 35-C ) :   1.1262 B( 13-N , 36-C ) :   0.9557 B( 14-C , 18-C ) :   1.1763
B( 15-N , 42-C ) :   1.1138 B( 15-N , 46-C ) :   1.1162 B( 15-N , 47-C ) :   0.9621
B( 16-C , 51-C ) :   1.1913 B( 17-C , 60-H ) :   0.9696 B( 18-C , 19-C ) :   1.1910
B( 19-C , 21-C ) :   1.2173 B( 20-C , 28-C ) :   1.6236 B( 20-C , 63-H ) :   0.9703
B( 21-C , 26-C ) :   1.6379 B( 21-C , 64-H ) :   0.9708 B( 22-C , 23-C ) :   1.2861
B( 22-C , 28-C ) :   1.2726 B( 22-C , 29-C ) :   1.2254 B( 23-C , 24-C ) :   1.6177
B( 23-C , 65-H ) :   0.9707 B( 24-C , 66-H ) :   0.9692 B( 25-C , 67-H ) :   0.9761
B( 25-C , 68-H ) :   0.9829 B( 25-C , 69-H ) :   0.9821 B( 26-C , 27-C ) :   1.2159
B( 26-C , 70-H ) :   0.9728 B( 27-C , 29-C ) :   1.2298 B( 28-C , 71-H ) :   0.9715
B( 29-C , 30-C ) :   1.2165 B( 30-C , 32-C ) :   1.3068 B( 31-C , 39-C ) :   1.6213
B( 31-C , 72-H ) :   0.9693 B( 32-C , 37-C ) :   1.5516 B( 32-C , 73-H ) :   0.9780
B( 33-C , 34-C ) :   1.2822 B( 33-C , 39-C ) :   1.2758 B( 33-C , 40-C ) :   1.2331
B( 34-C , 35-C ) :   1.6183 B( 34-C , 74-H ) :   0.9703 B( 35-C , 75-H ) :   0.9693
B( 36-C , 76-H ) :   0.9764 B( 36-C , 77-H ) :   0.9820 B( 36-C , 78-H ) :   0.9829
B( 37-C , 38-C ) :   1.3087 B( 37-C , 79-H ) :   0.9775 B( 38-C , 40-C ) :   1.2122
B( 39-C , 80-H ) :   0.9713 B( 40-C , 41-C ) :   1.2263 B( 41-C , 43-C ) :   1.2067
B( 42-C , 50-C ) :   1.6336 B( 42-C , 81-H ) :   0.9696 B( 43-C , 48-C ) :   1.6452
B( 43-C , 82-H ) :   0.9734 B( 44-C , 45-C ) :   1.2692 B( 44-C , 50-C ) :   1.2679
B( 44-C , 51-C ) :   1.2565 B( 45-C , 46-C ) :   1.6332 B( 45-C , 83-H ) :   0.9713
B( 46-C , 84-H ) :   0.9702 B( 47-C , 85-H ) :   0.9761 B( 47-C , 86-H ) :   0.9828
B( 47-C , 87-H ) :   0.9826 B( 48-C , 49-C ) :   1.2073 B( 48-C , 88-H ) :   0.9741
B( 49-C , 51-C ) :   1.2256 B( 50-C , 89-H ) :   0.9713

MP2 TOTAL ENERGY:    -2130.913535864 Eh
FINAL SINGLE POINT ENERGY     -2130.913535864192

DIPOLE MOMENT
-------------
                                X             Y             Z
Electronic contribution:      0.32532      -1.62472      -0.11974
Nuclear contribution   :      0.07713       0.23957       0.13031
                        -----------------------------------------
Total Dipole Moment    :      0.40245      -1.38515       0.01057
                        -----------------------------------------
Magnitude (a.u.)       :      1.44247
Magnitude (Debye)      :      3.66646

Rotational constants in cm-1:     0.001499     0.001475     0.000762
Rotational constants in MHz :    44.934476    44.226725    22.836152

                             ****ORCA TERMINATED NORMALLY****
TOTAL RUN TIME: 0 days 1 hours 21 minutes 6 seconds 51 msec
