                         Program Version 5.0.4 -  RELEASE  -
|  1> ! PAL2
|  2> ! mp2 cc-pvdz TightSCF  NoKeepInts
|  3>
|  4> %scf
|  5>   MaxCore 2000
|  6> end
|  7> %mp2
|  8>   MaxCore 2000
|  9> end
| 10> * xyz 0 1
| 11>    C       -3.05300         6.47700         0.32900
| 12>    C        1.47400         4.04100         0.05700
| 13>    C       -2.80200         4.09300         0.04900
| 14>    C       -4.18600         4.02500        -0.17500
| 15>    C       -4.95000         5.17400        -0.14400
| 16>    C       -5.22400         7.59400         0.09900
| 17>    C        0.13200         4.30700         0.06100
| 18>    C       -0.56900         3.05600         0.04700
| 19>    C        1.64900         2.61800         0.02300
| 20>    C       -2.24500         5.35600         0.30200
| 21>    N       -4.38300         6.37700         0.10900
| 22>    N        0.38800         2.06700         0.02500
| 23>    N       -2.01000         0.39500        -0.07500
| 24>    N       -0.38800        -2.07400        -0.02700
| 25>    N        2.01000        -0.40100         0.06500
| 26>    C       -1.96000         2.86100         0.02400
| 27>    C       -2.62300         1.61500        -0.01800
| 28>    C       -5.57300        -4.32900         1.06600
| 29>    C       -4.07300         1.47100         0.05600
| 30>    C       -4.10600        -2.75600        -0.02600
| 31>    C       -4.99500        -2.75700        -1.11100
| 32>    C       -6.13200        -3.54200        -1.07600
| 33>    C       -7.65100        -5.11300         0.04000
| 34>    C       -4.32400         0.14100         0.03700
| 35>    C       -3.02500        -0.52000        -0.04800
| 36>    C       -4.42200        -3.56600         1.07500
| 37>    N       -6.40700        -4.31300         0.00100
| 38>    C       -2.86700        -1.92200        -0.04000
| 39>    C       -1.65000        -2.62400        -0.02700
| 40>    C        3.56800        -6.14200        -1.04000
| 41>    C       -1.47600        -4.04900        -0.03400
| 42>    C        2.80300        -4.09900        -0.00800
| 43>    C        3.65700        -4.38400         1.06900
| 44>    C        4.42700        -5.53000         1.05900
| 45>    C        5.24500        -7.58800         0.01400
| 46>    C       -0.13400        -4.31500        -0.02200
| 47>    C        0.56800        -3.06400        -0.02700
| 48>    C        2.77500        -5.01200        -1.07400
| 49>    N        4.37600        -6.39100         0.01700
| 50>    C        1.95900        -2.86900        -0.00900
| 51>    C        2.62100        -1.62200         0.00900
| 52>    C        5.54300         4.33900        -1.13000
| 53>    C        4.07000        -1.47900        -0.09400
| 54>    C        4.10400         2.75100        -0.02100
| 55>    C        5.02700         2.72900         1.03600
| 56>    C        6.16600         3.50900         0.97800
| 57>    C        7.61900         5.15300        -0.11500
| 58>    C        4.32100        -0.14800        -0.09200
| 59>    C        3.02500         0.51400         0.01500
| 60>    C        4.38700         3.58200        -1.11500
| 61>    C        2.86600         1.91600         0.01300
| 62>    N        6.41300         4.29600        -0.09500
| 63>    H       -2.66900         7.46900         0.53200
| 64>    H        2.27400         4.76600         0.08100
| 65>    H       -4.67200         3.08100        -0.38500
| 66>    H       -6.01800         5.17300        -0.31900
| 67>    H       -5.30300         7.96400        -0.92600
| 68>    H       -6.21200         7.34200         0.48300
| 69>    H       -4.75800         8.34800         0.73300
| 70>    H       -0.33200         5.28200         0.06900
| 71>    H       -1.18500         5.47200         0.49700
| 72>    H        0.18200         1.07200         0.00500
| 73>    H       -0.18300        -1.08000        -0.02100
| 74>    H       -5.86400        -4.96200         1.89500
| 75>    H       -4.79400         2.27200         0.13900
| 76>    H       -4.80000        -2.16000        -1.99400
| 77>    H       -6.84100        -3.58200        -1.89300
| 78>    H       -8.42800        -4.53600         0.54600
| 79>    H       -7.95600        -5.33700        -0.98100
| 80>    H       -7.45600        -6.03700         0.58400
| 81>    H       -5.28700        -0.34400         0.10000
| 82>    H       -3.78000        -3.60100         1.94700
| 83>    H        3.58700        -6.86800        -1.84300
| 84>    H       -2.27600        -4.77400        -0.05000
| 85>    H        3.71400        -3.72400         1.92600
| 86>    H        5.09200        -5.79500         1.87100
| 87>    H        6.20500        -7.32900        -0.43900
| 88>    H        5.39300        -7.91700         1.04200
| 89>    H        4.75900        -8.37300        -0.56400
| 90>    H        0.32900        -5.29000        -0.00800
| 91>    H        2.14600        -4.84200        -1.94000
| 92>    H        5.80800         4.98600        -1.95600
| 93>    H        4.78800        -2.28100        -0.18500
| 94>    H        4.86000         2.11400         1.91200
| 95>    H        6.90100         3.53100         1.77200
| 96>    H        7.38300         6.10900         0.35600
| 97>    H        8.41400         4.65200         0.43500
| 98>    H        7.92100         5.31000        -1.15000
| 99>    H        5.28300         0.33600        -0.17900
|100>    H        3.72000         3.63200        -1.96700
|101> *
|102>
|103>                          ****END OF INPUT****

CARTESIAN COORDINATES (ANGSTROEM)
---------------------------------
  C     -3.053000    6.477000    0.329000
  C      1.474000    4.041000    0.057000
  C     -2.802000    4.093000    0.049000
  C     -4.186000    4.025000   -0.175000
  C     -4.950000    5.174000   -0.144000
  C     -5.224000    7.594000    0.099000
  C      0.132000    4.307000    0.061000
  C     -0.569000    3.056000    0.047000
  C      1.649000    2.618000    0.023000
  C     -2.245000    5.356000    0.302000
  N     -4.383000    6.377000    0.109000
  N      0.388000    2.067000    0.025000
  N     -2.010000    0.395000   -0.075000
  N     -0.388000   -2.074000   -0.027000
  N      2.010000   -0.401000    0.065000
  C     -1.960000    2.861000    0.024000
  C     -2.623000    1.615000   -0.018000
  C     -5.573000   -4.329000    1.066000
  C     -4.073000    1.471000    0.056000
  C     -4.106000   -2.756000   -0.026000
  C     -4.995000   -2.757000   -1.111000
  C     -6.132000   -3.542000   -1.076000
  C     -7.651000   -5.113000    0.040000
  C     -4.324000    0.141000    0.037000
  C     -3.025000   -0.520000   -0.048000
  C     -4.422000   -3.566000    1.075000
  N     -6.407000   -4.313000    0.001000
  C     -2.867000   -1.922000   -0.040000
  C     -1.650000   -2.624000   -0.027000
  C      3.568000   -6.142000   -1.040000
  C     -1.476000   -4.049000   -0.034000
  C      2.803000   -4.099000   -0.008000
  C      3.657000   -4.384000    1.069000
  C      4.427000   -5.530000    1.059000
  C      5.245000   -7.588000    0.014000
  C     -0.134000   -4.315000   -0.022000
  C      0.568000   -3.064000   -0.027000
  C      2.775000   -5.012000   -1.074000
  N      4.376000   -6.391000    0.017000
  C      1.959000   -2.869000   -0.009000
  C      2.621000   -1.622000    0.009000
  C      5.543000    4.339000   -1.130000
  C      4.070000   -1.479000   -0.094000
  C      4.104000    2.751000   -0.021000
  C      5.027000    2.729000    1.036000
  C      6.166000    3.509000    0.978000
  C      7.619000    5.153000   -0.115000
  C      4.321000   -0.148000   -0.092000
  C      3.025000    0.514000    0.015000
  C      4.387000    3.582000   -1.115000
  C      2.866000    1.916000    0.013000
  N      6.413000    4.296000   -0.095000
  H     -2.669000    7.469000    0.532000
  H      2.274000    4.766000    0.081000
  H     -4.672000    3.081000   -0.385000
  H     -6.018000    5.173000   -0.319000
  H     -5.303000    7.964000   -0.926000
  H     -6.212000    7.342000    0.483000
  H     -4.758000    8.348000    0.733000
  H     -0.332000    5.282000    0.069000
  H     -1.185000    5.472000    0.497000
  H      0.182000    1.072000    0.005000
  H     -0.183000   -1.080000   -0.021000
  H     -5.864000   -4.962000    1.895000
  H     -4.794000    2.272000    0.139000
  H     -4.800000   -2.160000   -1.994000
  H     -6.841000   -3.582000   -1.893000
  H     -8.428000   -4.536000    0.546000
  H     -7.956000   -5.337000   -0.981000
  H     -7.456000   -6.037000    0.584000
  H     -5.287000   -0.344000    0.100000
  H     -3.780000   -3.601000    1.947000
  H      3.587000   -6.868000   -1.843000
  H     -2.276000   -4.774000   -0.050000
  H      3.714000   -3.724000    1.926000
  H      5.092000   -5.795000    1.871000
  H      6.205000   -7.329000   -0.439000
  H      5.393000   -7.917000    1.042000
  H      4.759000   -8.373000   -0.564000
  H      0.329000   -5.290000   -0.008000
  H      2.146000   -4.842000   -1.940000
  H      5.808000    4.986000   -1.956000
  H      4.788000   -2.281000   -0.185000
  H      4.860000    2.114000    1.912000
  H      6.901000    3.531000    1.772000
  H      7.383000    6.109000    0.356000
  H      8.414000    4.652000    0.435000
  H      7.921000    5.310000   -1.150000
  H      5.283000    0.336000   -0.179000
  H      3.720000    3.632000   -1.967000

 Total Charge           Charge          ....    0
 Multiplicity           Mult            ....    1
 Number of Electrons    NEL             ....  358
 Basis Dimension        Dim             ....  918

ORBITAL ENERGIES
----------------

  NO   OCC          E(Eh)            E(eV)
   0   2.0000     -15.680452      -426.6868
   1   2.0000     -15.634584      -425.4387
   2   2.0000     -15.631460      -425.3537
   3   2.0000     -15.587328      -424.1527
   4   2.0000     -15.525371      -422.4668
   5   2.0000     -15.515338      -422.1938
   6   2.0000     -15.453810      -420.5195
   7   2.0000     -15.440018      -420.1442
   8   2.0000     -11.330026      -308.3057
   9   2.0000     -11.328846      -308.2736
  10   2.0000     -11.328335      -308.2597
  11   2.0000     -11.299701      -307.4805
  12   2.0000     -11.298128      -307.4377
  13   2.0000     -11.293526      -307.3125
  14   2.0000     -11.290945      -307.2422
  15   2.0000     -11.287112      -307.1379
  16   2.0000     -11.286156      -307.1119
  17   2.0000     -11.282669      -307.0170
  18   2.0000     -11.269329      -306.6540
  19   2.0000     -11.263832      -306.5045
  20   2.0000     -11.262838      -306.4774
  21   2.0000     -11.251429      -306.1669
  22   2.0000     -11.247678      -306.0649
  23   2.0000     -11.238351      -305.8111
  24   2.0000     -11.236256      -305.7541
  25   2.0000     -11.231584      -305.6269
  26   2.0000     -11.230927      -305.6091
  27   2.0000     -11.229458      -305.5691
  28   2.0000     -11.229170      -305.5612
  29   2.0000     -11.211508      -305.0806
  30   2.0000     -11.210101      -305.0424
  31   2.0000     -11.193268      -304.5843
  32   2.0000     -11.191809      -304.5446
  33   2.0000     -11.191039      -304.5237
  34   2.0000     -11.188401      -304.4519
  35   2.0000     -11.188002      -304.4410
  36   2.0000     -11.186987      -304.4134
  37   2.0000     -11.175216      -304.0931
  38   2.0000     -11.174574      -304.0756
  39   2.0000     -11.172656      -304.0234
  40   2.0000     -11.171477      -303.9913
  41   2.0000     -11.170327      -303.9601
  42   2.0000     -11.168926      -303.9219
  43   2.0000     -11.161962      -303.7324
  44   2.0000     -11.160455      -303.6914
  45   2.0000     -11.156746      -303.5905
  46   2.0000     -11.156551      -303.5852
  47   2.0000     -11.152143      -303.4652
  48   2.0000     -11.146321      -303.3068
  49   2.0000     -11.134855      -302.9948
  50   2.0000     -11.129580      -302.8513
  51   2.0000     -11.116804      -302.5036
  52   2.0000      -1.360937       -37.0330
  53   2.0000      -1.321748       -35.9666
  54   2.0000      -1.319294       -35.8998
  55   2.0000      -1.280017       -34.8310
  56   2.0000      -1.226561       -33.3764
  57   2.0000      -1.210034       -32.9267
  58   2.0000      -1.173483       -31.9321
  59   2.0000      -1.150865       -31.3166
  60   2.0000      -1.144111       -31.1328
  61   2.0000      -1.110651       -30.2224
  62   2.0000      -1.108729       -30.1700
  63   2.0000      -1.082590       -29.4588
  64   2.0000      -1.076647       -29.2970
  65   2.0000      -1.045915       -28.4608
  66   2.0000      -1.043948       -28.4073
  67   2.0000      -1.041488       -28.3403
  68   2.0000      -1.015120       -27.6228
  69   2.0000      -1.012952       -27.5638
  70   2.0000      -1.008778       -27.4503
  71   2.0000      -0.993963       -27.0471
  72   2.0000      -0.985416       -26.8145
  73   2.0000      -0.982046       -26.7228
  74   2.0000      -0.972991       -26.4764
  75   2.0000      -0.962019       -26.1779
  76   2.0000      -0.954639       -25.9770
  77   2.0000      -0.945729       -25.7346
  78   2.0000      -0.937400       -25.5080
  79   2.0000      -0.916803       -24.9475
  80   2.0000      -0.911002       -24.7896
  81   2.0000      -0.897266       -24.4158
  82   2.0000      -0.877034       -23.8653
  83   2.0000      -0.872801       -23.7501
  84   2.0000      -0.870371       -23.6840
  85   2.0000      -0.859936       -23.4000
  86   2.0000      -0.842046       -22.9132
  87   2.0000      -0.836946       -22.7745
  88   2.0000      -0.827828       -22.5263
  89   2.0000      -0.796518       -21.6743
  90   2.0000      -0.788773       -21.4636
  91   2.0000      -0.764845       -20.8125
  92   2.0000      -0.753317       -20.4988
  93   2.0000      -0.733991       -19.9729
  94   2.0000      -0.727104       -19.7855
  95   2.0000      -0.724354       -19.7107
  96   2.0000      -0.719083       -19.5672
  97   2.0000      -0.717217       -19.5165
  98   2.0000      -0.712598       -19.3908
  99   2.0000      -0.698621       -19.0104
 100   2.0000      -0.697513       -18.9803
 101   2.0000      -0.692061       -18.8319
 102   2.0000      -0.685603       -18.6562
 103   2.0000      -0.684667       -18.6307
 104   2.0000      -0.679027       -18.4773
 105   2.0000      -0.674370       -18.3505
 106   2.0000      -0.672629       -18.3032
 107   2.0000      -0.660287       -17.9673
 108   2.0000      -0.657967       -17.9042
 109   2.0000      -0.653265       -17.7762
 110   2.0000      -0.651688       -17.7333
 111   2.0000      -0.646623       -17.5955
 112   2.0000      -0.645567       -17.5668
 113   2.0000      -0.637773       -17.3547
 114   2.0000      -0.635790       -17.3007
 115   2.0000      -0.627887       -17.0857
 116   2.0000      -0.622504       -16.9392
 117   2.0000      -0.620430       -16.8828
 118   2.0000      -0.613428       -16.6922
 119   2.0000      -0.612740       -16.6735
 120   2.0000      -0.611860       -16.6495
 121   2.0000      -0.611102       -16.6289
 122   2.0000      -0.600704       -16.3460
 123   2.0000      -0.588308       -16.0087
 124   2.0000      -0.582002       -15.8371
 125   2.0000      -0.580786       -15.8040
 126   2.0000      -0.580072       -15.7846
 127   2.0000      -0.571588       -15.5537
 128   2.0000      -0.567916       -15.4538
 129   2.0000      -0.559841       -15.2341
 130   2.0000      -0.554322       -15.0839
 131   2.0000      -0.548233       -14.9182
 132   2.0000      -0.543031       -14.7766
 133   2.0000      -0.541119       -14.7246
 134   2.0000      -0.538918       -14.6647
 135   2.0000      -0.535735       -14.5781
 136   2.0000      -0.531023       -14.4499
 137   2.0000      -0.518276       -14.1030
 138   2.0000      -0.517755       -14.0888
 139   2.0000      -0.514222       -13.9927
 140   2.0000      -0.512293       -13.9402
 141   2.0000      -0.510317       -13.8864
 142   2.0000      -0.508833       -13.8460
 143   2.0000      -0.504330       -13.7235
 144   2.0000      -0.501816       -13.6551
 145   2.0000      -0.495252       -13.4765
 146   2.0000      -0.489325       -13.3152
 147   2.0000      -0.481296       -13.0967
 148   2.0000      -0.476970       -12.9790
 149   2.0000      -0.467896       -12.7321
 150   2.0000      -0.466136       -12.6842
 151   2.0000      -0.456707       -12.4276
 152   2.0000      -0.451456       -12.2847
 153   2.0000      -0.445257       -12.1161
 154   2.0000      -0.438454       -11.9309
 155   2.0000      -0.427439       -11.6312
 156   2.0000      -0.409399       -11.1403
 157   2.0000      -0.397273       -10.8103
 158   2.0000      -0.391505       -10.6534
 159   2.0000      -0.388026       -10.5587
 160   2.0000      -0.380658       -10.3582
 161   2.0000      -0.376382       -10.2419
 162   2.0000      -0.369669       -10.0592
 163   2.0000      -0.357079        -9.7166
 164   2.0000      -0.355590        -9.6761
 165   2.0000      -0.341837        -9.3019
 166   2.0000      -0.337804        -9.1921
 167   2.0000      -0.325126        -8.8471
 168   2.0000      -0.320197        -8.7130
 169   2.0000      -0.305823        -8.3219
 170   2.0000      -0.299249        -8.1430
 171   2.0000      -0.285232        -7.7615
 172   2.0000      -0.278453        -7.5771
 173   2.0000      -0.263419        -7.1680
 174   2.0000      -0.241570        -6.5735
 175   2.0000      -0.190060        -5.1718
 176   2.0000      -0.181171        -4.9299
 177   2.0000      -0.080004        -2.1770
 178   2.0000      -0.059785        -1.6268
 179   0.0000       0.028233         0.7683
 180   0.0000       0.065115         1.7719
 181   0.0000       0.090154         2.4532
 182   0.0000       0.105813         2.8793
 183   0.0000       0.115762         3.1500

MULLIKEN ATOMIC CHARGES
-----------------------
   0 C :    0.224081
   1 N :   -0.455972
   2 C :   -0.077202
   3 N :   -0.341390
   4 C :   -0.073584
   5 N :   -0.567954
   6 C :   -0.110239
   7 N :   -0.341068
   8 C :    0.213078
   9 N :   -0.562376
  10 C :    0.119354
  11 N :   -0.438335
  12 C :   -0.050612
  13 N :   -0.429171
  14 C :    0.210747
  15 N :   -0.441012
  16 C :    0.234254
  17 C :   -0.125344
  18 C :   -0.157436
  19 C :    0.201831
  20 C :    0.214162
  21 C :   -0.060189
  22 C :   -0.089570
  23 C :   -0.039612
  24 C :    0.193672
  25 C :    0.114516
  26 C :   -0.092722
  27 C :    0.215211
  28 C :   -0.061791
  29 C :   -0.183618
  30 C :    0.246374
  31 C :    0.230819
  32 C :   -0.061484
  33 C :   -0.059826
  34 C :   -0.050969
  35 C :    0.228736
  36 C :    0.108123
  37 C :   -0.064212
  38 C :    0.231110
  39 C :   -0.057799
  40 C :   -0.181090
  41 C :    0.225708
  42 C :    0.197296
  43 C :   -0.072566
  44 C :   -0.089939
  45 C :   -0.061782
  46 C :    0.211656
  47 C :    0.115383
  48 C :   -0.066657
  49 C :    0.238413
  50 C :   -0.045969
  51 C :   -0.194722
  52 H :    0.035373
  53 H :   -0.018113
  54 H :    0.045766
  55 H :    0.033460
  56 H :    0.048801
  57 H :    0.048000
  58 H :    0.045974
  59 H :   -0.012869
  60 H :    0.045647
  61 H :    0.171015
  62 H :    0.175654
  63 H :    0.055526
  64 H :   -0.020158
  65 H :    0.046868
  66 H :    0.055693
  67 H :    0.062690
  68 H :    0.057278
  69 H :    0.056463
  70 H :   -0.030034
  71 H :    0.045040
  72 H :    0.071689
  73 H :   -0.007852
  74 H :    0.060768
  75 H :    0.071122
  76 H :    0.075296
  77 H :    0.068253
  78 H :    0.067528
  79 H :   -0.016596
  80 H :    0.061643
  81 H :    0.054459
  82 H :   -0.025088
  83 H :    0.041705
  84 H :    0.054097
  85 H :    0.060853
  86 H :    0.055454
  87 H :    0.057258
  88 H :   -0.014323
  89 H :    0.047348
Sum of atomic charges:   -0.0000000

LOEWDIN ATOMIC CHARGES
----------------------
   0 C :   -0.016868
   1 N :    0.120706
   2 C :   -0.101467
   3 N :    0.182620
   4 C :   -0.013097
   5 N :   -0.133557
   6 C :   -0.027175
   7 N :    0.174966
   8 C :   -0.024090
   9 N :   -0.140673
  10 C :    0.022804
  11 N :    0.142199
  12 C :   -0.104388
  13 N :    0.166842
  14 C :   -0.017740
  15 N :    0.138715
  16 C :   -0.060280
  17 C :   -0.035940
  18 C :   -0.110719
  19 C :   -0.074899
  20 C :    0.005270
  21 C :   -0.112640
  22 C :    0.037871
  23 C :   -0.014499
  24 C :   -0.012517
  25 C :    0.029878
  26 C :   -0.108939
  27 C :   -0.117384
  28 C :   -0.027526
  29 C :   -0.099237
  30 C :   -0.029648
  31 C :    0.025017
  32 C :   -0.094024
  33 C :    0.082980
  34 C :   -0.014896
  35 C :    0.023521
  36 C :    0.035371
  37 C :   -0.093817
  38 C :   -0.052112
  39 C :   -0.017542
  40 C :   -0.108555
  41 C :   -0.091720
  42 C :   -0.010516
  43 C :   -0.099234
  44 C :    0.033541
  45 C :   -0.028522
  46 C :    0.001987
  47 C :    0.029488
  48 C :   -0.094860
  49 C :   -0.068785
  50 C :   -0.018457
  51 C :   -0.109260
  52 H :    0.022341
  53 H :    0.002362
  54 H :    0.007247
  55 H :    0.021850
  56 H :    0.021699
  57 H :    0.026389
  58 H :    0.026447
  59 H :    0.005441
  60 H :    0.006348
  61 H :    0.060141
  62 H :    0.061952
  63 H :    0.030856
  64 H :    0.004802
  65 H :    0.045815
  66 H :    0.029263
  67 H :    0.028348
  68 H :    0.031648
  69 H :    0.030346
  70 H :   -0.004861
  71 H :    0.043583
  72 H :    0.037896
  73 H :    0.007207
  74 H :    0.050851
  75 H :    0.037564
  76 H :    0.034996
  77 H :    0.036307
  78 H :    0.035981
  79 H :    0.002964
  80 H :    0.050887
  81 H :    0.029114
  82 H :   -0.002850
  83 H :    0.042390
  84 H :    0.029852
  85 H :    0.027377
  86 H :    0.030140
  87 H :    0.031426
  88 H :    0.002470
  89 H :    0.045219

  Mayer bond orders larger than 0.100000
B(  0-C ,  1-N ) :   1.1020 B(  0-C , 17-C ) :   1.7164 B(  0-C , 52-H ) :   0.9616
B(  1-N ,  8-C ) :   1.0872 B(  1-N , 10-C ) :   0.9782 B(  2-C , 12-C ) :   1.4862
B(  2-C , 16-C ) :   1.3737 B(  2-C , 53-H ) :   0.9729 B(  3-N , 14-C ) :   1.2218
B(  3-N , 16-C ) :   1.1814 B(  3-N , 61-H ) :   0.8987 B(  4-C ,  6-C ) :   1.2179
B(  4-C , 17-C ) :   1.2192 B(  4-C , 18-C ) :   1.4773 B(  5-N , 19-C ) :   1.4583
B(  5-N , 27-C ) :   1.3706 B(  6-C ,  8-C ) :   1.7243 B(  6-C , 54-H ) :   0.8859
B(  7-N , 30-C ) :   1.1950 B(  7-N , 38-C ) :   1.1895 B(  7-N , 62-H ) :   0.8967
B(  8-C , 55-H ) :   0.9626 B(  9-N , 41-C ) :   1.3934 B(  9-N , 49-C ) :   1.4262
B( 10-C , 56-H ) :   0.9775 B( 10-C , 57-H ) :   0.9829 B( 10-C , 58-H ) :   0.9835
B( 11-N , 20-C ) :   1.1317 B( 11-N , 24-C ) :   1.1072 B( 11-N , 25-C ) :   0.9600
B( 12-C , 14-C ) :   1.3595 B( 12-C , 59-H ) :   0.9319 B( 13-N , 31-C ) :   1.1626
B( 13-N , 35-C ) :   1.1610 B( 13-N , 36-C ) :   0.9409 B( 14-C , 18-C ) :   1.1165
B( 15-N , 42-C ) :   1.1074 B( 15-N , 46-C ) :   1.1246 B( 15-N , 47-C ) :   0.9613
B( 16-C , 51-C ) :   1.1668 B( 17-C , 60-H ) :   0.8926 B( 18-C , 19-C ) :   1.1138
B( 19-C , 21-C ) :   1.2535 B( 20-C , 28-C ) :   1.6282 B( 20-C , 63-H ) :   0.9702
B( 21-C , 26-C ) :   1.5811 B( 21-C , 64-H ) :   0.9271 B( 22-C , 23-C ) :   1.2901
B( 22-C , 28-C ) :   1.2642 B( 22-C , 29-C ) :   1.2260 B( 23-C , 24-C ) :   1.6195
B( 23-C , 65-H ) :   0.9703 B( 24-C , 66-H ) :   0.9695 B( 25-C , 67-H ) :   0.9761
B( 25-C , 68-H ) :   0.9828 B( 25-C , 69-H ) :   0.9823 B( 26-C , 27-C ) :   1.2615
B( 26-C , 70-H ) :   0.9667 B( 27-C , 29-C ) :   1.2050 B( 28-C , 71-H ) :   0.9720
B( 29-C , 30-C ) :   1.2482 B( 30-C , 32-C ) :   1.2774 B( 31-C , 39-C ) :   1.5868
B( 31-C , 72-H ) :   0.9681 B( 32-C , 37-C ) :   1.5814 B( 32-C , 73-H ) :   0.9786
B( 33-C , 34-C ) :   1.3080 B( 33-C , 39-C ) :   1.3047 B( 33-C , 40-C ) :   1.1742
B( 34-C , 35-C ) :   1.5843 B( 34-C , 74-H ) :   0.9696 B( 35-C , 75-H ) :   0.9681
B( 36-C , 76-H ) :   0.9768 B( 36-C , 77-H ) :   0.9815 B( 36-C , 78-H ) :   0.9823
B( 37-C , 38-C ) :   1.2835 B( 37-C , 79-H ) :   0.9764 B( 38-C , 40-C ) :   1.2353
B( 39-C , 80-H ) :   0.9705 B( 40-C , 41-C ) :   1.2511 B( 41-C , 43-C ) :   1.1843
B( 42-C , 50-C ) :   1.6335 B( 42-C , 81-H ) :   0.9696 B( 43-C , 48-C ) :   1.6685
B( 43-C , 82-H ) :   0.9720 B( 44-C , 45-C ) :   1.2630 B( 44-C , 50-C ) :   1.2721
B( 44-C , 51-C ) :   1.2616 B( 45-C , 46-C ) :   1.6348 B( 45-C , 83-H ) :   0.9719
B( 46-C , 84-H ) :   0.9700 B( 47-C , 85-H ) :   0.9762 B( 47-C , 86-H ) :   0.9829
B( 47-C , 87-H ) :   0.9824 B( 48-C , 49-C ) :   1.1878 B( 48-C , 88-H ) :   0.9749
B( 49-C , 51-C ) :   1.2452 B( 50-C , 89-H ) :   0.9708

MP2 TOTAL ENERGY:    -2130.794320773 Eh
FINAL SINGLE POINT ENERGY     -2130.794320773026

DIPOLE MOMENT
-------------
                                X             Y             Z
Electronic contribution:      2.84191      -4.40720      -0.07545
Nuclear contribution   :     -0.02648       0.17030       0.08845
                        -----------------------------------------
Total Dipole Moment    :      2.81543      -4.23689       0.01300
                        -----------------------------------------
Magnitude (a.u.)       :      5.08705
Magnitude (Debye)      :     12.93025

Rotational constants in cm-1:     0.001503     0.001477     0.000760
Rotational constants in MHz :    45.070944    44.293418    22.784126

                             ****ORCA TERMINATED NORMALLY****
TOTAL RUN TIME: 0 days 1 hours 5 minutes 1 seconds 645 msec
