                         Program Version 5.0.4 -  RELEASE  -
|  1> ! PAL2
|  2> ! mp2 cc-pvdz TightSCF  NoKeepInts
|  3>
|  4> %scf
|  5>   MaxCore 2000
|  6> end
|  7> %mp2
|  8>   MaxCore 2000
|  9> end
| 10> * xyz 0 1
| 11>    C       -4.75600         5.33300        -0.63700
| 12>    C        1.47400         4.04100         0.05700
| 13>    C       -2.80200         4.09300         0.04900
| 14>    C       -2.41300         5.21700         0.79400
| 15>    C       -3.20200         6.35000         0.80200
| 16>    C       -5.19400         7.61400         0.15000
| 17>    C        0.13200         4.30700         0.06100
| 18>    C       -0.56900         3.05600         0.04700
| 19>    C        1.64900         2.61800         0.02300
| 20>    C       -4.00400         4.17400        -0.67100
| 21>    N       -4.35200         6.39900         0.09100
| 22>    N        0.38800         2.06700         0.02500
| 23>    N       -2.01000         0.39500        -0.07500
| 24>    N       -0.38800        -2.07400        -0.02700
| 25>    N        2.01000        -0.40100         0.06500
| 26>    C       -1.96000         2.86100         0.02400
| 27>    C       -2.62300         1.61500        -0.01800
| 28>    C       -5.57300        -4.32900         1.06600
| 29>    C       -4.07300         1.47100         0.05600
| 30>    C       -4.10600        -2.75600        -0.02600
| 31>    C       -4.99500        -2.75700        -1.11100
| 32>    C       -6.13200        -3.54200        -1.07600
| 33>    C       -7.65100        -5.11300         0.04000
| 34>    C       -4.32400         0.14100         0.03700
| 35>    C       -3.02500        -0.52000        -0.04800
| 36>    C       -4.42200        -3.56600         1.07500
| 37>    N       -6.40700        -4.31300         0.00100
| 38>    C       -2.86700        -1.92200        -0.04000
| 39>    C       -1.65000        -2.62400        -0.02700
| 40>    C        3.56800        -6.14200        -1.04000
| 41>    C       -1.47600        -4.04900        -0.03400
| 42>    C        2.80300        -4.09900        -0.00800
| 43>    C        3.65700        -4.38400         1.06900
| 44>    C        4.42700        -5.53000         1.05900
| 45>    C        5.24500        -7.58800         0.01400
| 46>    C       -0.13400        -4.31500        -0.02200
| 47>    C        0.56800        -3.06400        -0.02700
| 48>    C        2.77500        -5.01200        -1.07400
| 49>    N        4.37600        -6.39100         0.01700
| 50>    C        1.95900        -2.86900        -0.00900
| 51>    C        2.62100        -1.62200         0.00900
| 52>    C        5.54300         4.33900        -1.13000
| 53>    C        4.07000        -1.47900        -0.09400
| 54>    C        4.10400         2.75100        -0.02100
| 55>    C        5.02700         2.72900         1.03600
| 56>    C        6.16600         3.50900         0.97800
| 57>    C        7.61900         5.15300        -0.11500
| 58>    C        4.32100        -0.14800        -0.09200
| 59>    C        3.02500         0.51400         0.01500
| 60>    C        4.38700         3.58200        -1.11500
| 61>    C        2.86600         1.91600         0.01300
| 62>    N        6.41300         4.29600        -0.09500
| 63>    H       -5.68200         5.44400        -1.18600
| 64>    H        2.27400         4.76600         0.08100
| 65>    H       -1.50100         5.21200         1.37800
| 66>    H       -2.94800         7.23800         1.36700
| 67>    H       -5.85500         7.54700         1.01800
| 68>    H       -4.54600         8.48600         0.23900
| 69>    H       -5.78200         7.67800        -0.76500
| 70>    H       -0.33200         5.28200         0.06900
| 71>    H       -4.35100         3.34500        -1.27700
| 72>    H        0.18200         1.07200         0.00500
| 73>    H       -0.18300        -1.08000        -0.02100
| 74>    H       -5.86400        -4.96200         1.89500
| 75>    H       -4.79400         2.27200         0.13900
| 76>    H       -4.80000        -2.16000        -1.99400
| 77>    H       -6.84100        -3.58200        -1.89300
| 78>    H       -8.42800        -4.53600         0.54600
| 79>    H       -7.95600        -5.33700        -0.98100
| 80>    H       -7.45600        -6.03700         0.58400
| 81>    H       -5.28700        -0.34400         0.10000
| 82>    H       -3.78000        -3.60100         1.94700
| 83>    H        3.58700        -6.86800        -1.84300
| 84>    H       -2.27600        -4.77400        -0.05000
| 85>    H        3.71400        -3.72400         1.92600
| 86>    H        5.09200        -5.79500         1.87100
| 87>    H        6.20500        -7.32900        -0.43900
| 88>    H        5.39300        -7.91700         1.04200
| 89>    H        4.75900        -8.37300        -0.56400
| 90>    H        0.32900        -5.29000        -0.00800
| 91>    H        2.14600        -4.84200        -1.94000
| 92>    H        5.80800         4.98600        -1.95600
| 93>    H        4.78800        -2.28100        -0.18500
| 94>    H        4.86000         2.11400         1.91200
| 95>    H        6.90100         3.53100         1.77200
| 96>    H        7.38300         6.10900         0.35600
| 97>    H        8.41400         4.65200         0.43500
| 98>    H        7.92100         5.31000        -1.15000
| 99>    H        5.28300         0.33600        -0.17900
|100>    H        3.72000         3.63200        -1.96700
|101> *
|102>
|103>                          ****END OF INPUT****

CARTESIAN COORDINATES (ANGSTROEM)
---------------------------------
  C     -4.756000    5.333000   -0.637000
  C      1.474000    4.041000    0.057000
  C     -2.802000    4.093000    0.049000
  C     -2.413000    5.217000    0.794000
  C     -3.202000    6.350000    0.802000
  C     -5.194000    7.614000    0.150000
  C      0.132000    4.307000    0.061000
  C     -0.569000    3.056000    0.047000
  C      1.649000    2.618000    0.023000
  C     -4.004000    4.174000   -0.671000
  N     -4.352000    6.399000    0.091000
  N      0.388000    2.067000    0.025000
  N     -2.010000    0.395000   -0.075000
  N     -0.388000   -2.074000   -0.027000
  N      2.010000   -0.401000    0.065000
  C     -1.960000    2.861000    0.024000
  C     -2.623000    1.615000   -0.018000
  C     -5.573000   -4.329000    1.066000
  C     -4.073000    1.471000    0.056000
  C     -4.106000   -2.756000   -0.026000
  C     -4.995000   -2.757000   -1.111000
  C     -6.132000   -3.542000   -1.076000
  C     -7.651000   -5.113000    0.040000
  C     -4.324000    0.141000    0.037000
  C     -3.025000   -0.520000   -0.048000
  C     -4.422000   -3.566000    1.075000
  N     -6.407000   -4.313000    0.001000
  C     -2.867000   -1.922000   -0.040000
  C     -1.650000   -2.624000   -0.027000
  C      3.568000   -6.142000   -1.040000
  C     -1.476000   -4.049000   -0.034000
  C      2.803000   -4.099000   -0.008000
  C      3.657000   -4.384000    1.069000
  C      4.427000   -5.530000    1.059000
  C      5.245000   -7.588000    0.014000
  C     -0.134000   -4.315000   -0.022000
  C      0.568000   -3.064000   -0.027000
  C      2.775000   -5.012000   -1.074000
  N      4.376000   -6.391000    0.017000
  C      1.959000   -2.869000   -0.009000
  C      2.621000   -1.622000    0.009000
  C      5.543000    4.339000   -1.130000
  C      4.070000   -1.479000   -0.094000
  C      4.104000    2.751000   -0.021000
  C      5.027000    2.729000    1.036000
  C      6.166000    3.509000    0.978000
  C      7.619000    5.153000   -0.115000
  C      4.321000   -0.148000   -0.092000
  C      3.025000    0.514000    0.015000
  C      4.387000    3.582000   -1.115000
  C      2.866000    1.916000    0.013000
  N      6.413000    4.296000   -0.095000
  H     -5.682000    5.444000   -1.186000
  H      2.274000    4.766000    0.081000
  H     -1.501000    5.212000    1.378000
  H     -2.948000    7.238000    1.367000
  H     -5.855000    7.547000    1.018000
  H     -4.546000    8.486000    0.239000
  H     -5.782000    7.678000   -0.765000
  H     -0.332000    5.282000    0.069000
  H     -4.351000    3.345000   -1.277000
  H      0.182000    1.072000    0.005000
  H     -0.183000   -1.080000   -0.021000
  H     -5.864000   -4.962000    1.895000
  H     -4.794000    2.272000    0.139000
  H     -4.800000   -2.160000   -1.994000
  H     -6.841000   -3.582000   -1.893000
  H     -8.428000   -4.536000    0.546000
  H     -7.956000   -5.337000   -0.981000
  H     -7.456000   -6.037000    0.584000
  H     -5.287000   -0.344000    0.100000
  H     -3.780000   -3.601000    1.947000
  H      3.587000   -6.868000   -1.843000
  H     -2.276000   -4.774000   -0.050000
  H      3.714000   -3.724000    1.926000
  H      5.092000   -5.795000    1.871000
  H      6.205000   -7.329000   -0.439000
  H      5.393000   -7.917000    1.042000
  H      4.759000   -8.373000   -0.564000
  H      0.329000   -5.290000   -0.008000
  H      2.146000   -4.842000   -1.940000
  H      5.808000    4.986000   -1.956000
  H      4.788000   -2.281000   -0.185000
  H      4.860000    2.114000    1.912000
  H      6.901000    3.531000    1.772000
  H      7.383000    6.109000    0.356000
  H      8.414000    4.652000    0.435000
  H      7.921000    5.310000   -1.150000
  H      5.283000    0.336000   -0.179000
  H      3.720000    3.632000   -1.967000

 Total Charge           Charge          ....    0
 Multiplicity           Mult            ....    1
 Number of Electrons    NEL             ....  358
 Basis Dimension        Dim             ....  918

ORBITAL ENERGIES
----------------

  NO   OCC          E(Eh)            E(eV)
   0   2.0000     -15.668533      -426.3625
   1   2.0000     -15.637957      -425.5305
   2   2.0000     -15.628535      -425.2741
   3   2.0000     -15.593575      -424.3228
   4   2.0000     -15.524562      -422.4448
   5   2.0000     -15.515903      -422.2092
   6   2.0000     -15.450820      -420.4382
   7   2.0000     -15.443177      -420.2302
   8   2.0000     -11.320976      -308.0594
   9   2.0000     -11.320557      -308.0480
  10   2.0000     -11.318335      -307.9876
  11   2.0000     -11.301793      -307.5374
  12   2.0000     -11.296208      -307.3854
  13   2.0000     -11.295693      -307.3714
  14   2.0000     -11.290783      -307.2378
  15   2.0000     -11.287735      -307.1549
  16   2.0000     -11.284184      -307.0583
  17   2.0000     -11.275194      -306.8136
  18   2.0000     -11.271483      -306.7127
  19   2.0000     -11.258545      -306.3606
  20   2.0000     -11.257848      -306.3416
  21   2.0000     -11.255480      -306.2772
  22   2.0000     -11.254548      -306.2518
  23   2.0000     -11.241567      -305.8986
  24   2.0000     -11.234123      -305.6960
  25   2.0000     -11.233550      -305.6804
  26   2.0000     -11.233304      -305.6737
  27   2.0000     -11.227184      -305.5072
  28   2.0000     -11.226903      -305.4996
  29   2.0000     -11.209563      -305.0277
  30   2.0000     -11.208208      -304.9908
  31   2.0000     -11.203659      -304.8671
  32   2.0000     -11.198119      -304.7163
  33   2.0000     -11.197732      -304.7058
  34   2.0000     -11.189865      -304.4917
  35   2.0000     -11.189388      -304.4787
  36   2.0000     -11.186504      -304.4003
  37   2.0000     -11.182772      -304.2987
  38   2.0000     -11.181884      -304.2745
  39   2.0000     -11.174526      -304.0743
  40   2.0000     -11.171525      -303.9926
  41   2.0000     -11.168303      -303.9050
  42   2.0000     -11.167605      -303.8860
  43   2.0000     -11.162883      -303.7575
  44   2.0000     -11.161663      -303.7243
  45   2.0000     -11.159706      -303.6710
  46   2.0000     -11.155903      -303.5676
  47   2.0000     -11.151293      -303.4421
  48   2.0000     -11.148136      -303.3562
  49   2.0000     -11.142118      -303.1925
  50   2.0000     -11.135125      -303.0022
  51   2.0000     -11.128149      -302.8123
  52   2.0000      -1.350800       -36.7571
  53   2.0000      -1.324661       -36.0459
  54   2.0000      -1.316714       -35.8296
  55   2.0000      -1.287693       -35.0399
  56   2.0000      -1.224996       -33.3338
  57   2.0000      -1.210469       -32.9385
  58   2.0000      -1.169141       -31.8139
  59   2.0000      -1.153946       -31.4005
  60   2.0000      -1.135556       -30.9001
  61   2.0000      -1.113076       -30.2883
  62   2.0000      -1.106450       -30.1080
  63   2.0000      -1.083145       -29.4739
  64   2.0000      -1.073184       -29.2028
  65   2.0000      -1.048694       -28.5364
  66   2.0000      -1.041483       -28.3402
  67   2.0000      -1.035949       -28.1896
  68   2.0000      -1.015636       -27.6369
  69   2.0000      -1.014574       -27.6080
  70   2.0000      -1.009407       -27.4674
  71   2.0000      -0.992757       -27.0143
  72   2.0000      -0.987408       -26.8687
  73   2.0000      -0.978484       -26.6259
  74   2.0000      -0.972278       -26.4570
  75   2.0000      -0.959534       -26.1102
  76   2.0000      -0.951641       -25.8955
  77   2.0000      -0.947057       -25.7707
  78   2.0000      -0.935718       -25.4622
  79   2.0000      -0.920294       -25.0425
  80   2.0000      -0.902881       -24.5686
  81   2.0000      -0.892226       -24.2787
  82   2.0000      -0.875852       -23.8331
  83   2.0000      -0.870993       -23.7009
  84   2.0000      -0.866555       -23.5802
  85   2.0000      -0.855443       -23.2778
  86   2.0000      -0.841411       -22.8960
  87   2.0000      -0.837600       -22.7923
  88   2.0000      -0.822774       -22.3888
  89   2.0000      -0.798439       -21.7266
  90   2.0000      -0.793108       -21.5816
  91   2.0000      -0.747374       -20.3371
  92   2.0000      -0.738819       -20.1043
  93   2.0000      -0.732703       -19.9379
  94   2.0000      -0.723911       -19.6986
  95   2.0000      -0.720136       -19.5959
  96   2.0000      -0.714512       -19.4429
  97   2.0000      -0.707800       -19.2602
  98   2.0000      -0.703613       -19.1463
  99   2.0000      -0.696370       -18.9492
 100   2.0000      -0.695383       -18.9223
 101   2.0000      -0.682580       -18.5739
 102   2.0000      -0.679698       -18.4955
 103   2.0000      -0.676876       -18.4187
 104   2.0000      -0.674972       -18.3669
 105   2.0000      -0.670978       -18.2582
 106   2.0000      -0.666589       -18.1388
 107   2.0000      -0.662387       -18.0245
 108   2.0000      -0.656017       -17.8511
 109   2.0000      -0.653473       -17.7819
 110   2.0000      -0.649095       -17.6628
 111   2.0000      -0.643876       -17.5208
 112   2.0000      -0.642099       -17.4724
 113   2.0000      -0.637929       -17.3589
 114   2.0000      -0.636958       -17.3325
 115   2.0000      -0.626783       -17.0556
 116   2.0000      -0.624693       -16.9988
 117   2.0000      -0.615869       -16.7586
 118   2.0000      -0.615133       -16.7386
 119   2.0000      -0.612797       -16.6750
 120   2.0000      -0.608863       -16.5680
 121   2.0000      -0.604312       -16.4442
 122   2.0000      -0.600006       -16.3270
 123   2.0000      -0.587270       -15.9804
 124   2.0000      -0.584309       -15.8998
 125   2.0000      -0.582717       -15.8565
 126   2.0000      -0.578818       -15.7504
 127   2.0000      -0.577782       -15.7222
 128   2.0000      -0.564574       -15.3629
 129   2.0000      -0.558465       -15.1966
 130   2.0000      -0.552378       -15.0310
 131   2.0000      -0.548262       -14.9190
 132   2.0000      -0.543086       -14.7781
 133   2.0000      -0.539414       -14.6782
 134   2.0000      -0.537979       -14.6392
 135   2.0000      -0.534115       -14.5340
 136   2.0000      -0.525492       -14.2994
 137   2.0000      -0.523833       -14.2542
 138   2.0000      -0.518104       -14.0983
 139   2.0000      -0.513533       -13.9739
 140   2.0000      -0.511907       -13.9297
 141   2.0000      -0.510120       -13.8811
 142   2.0000      -0.509780       -13.8718
 143   2.0000      -0.503087       -13.6897
 144   2.0000      -0.500561       -13.6210
 145   2.0000      -0.496792       -13.5184
 146   2.0000      -0.494290       -13.4503
 147   2.0000      -0.484976       -13.1969
 148   2.0000      -0.481260       -13.0958
 149   2.0000      -0.467930       -12.7330
 150   2.0000      -0.464948       -12.6519
 151   2.0000      -0.456882       -12.4324
 152   2.0000      -0.449159       -12.2222
 153   2.0000      -0.446437       -12.1482
 154   2.0000      -0.443741       -12.0748
 155   2.0000      -0.439543       -11.9606
 156   2.0000      -0.430663       -11.7189
 157   2.0000      -0.426035       -11.5930
 158   2.0000      -0.402876       -10.9628
 159   2.0000      -0.386206       -10.5092
 160   2.0000      -0.380328       -10.3493
 161   2.0000      -0.378528       -10.3003
 162   2.0000      -0.370889       -10.0924
 163   2.0000      -0.359362        -9.7788
 164   2.0000      -0.353433        -9.6174
 165   2.0000      -0.338581        -9.2133
 166   2.0000      -0.337527        -9.1846
 167   2.0000      -0.328233        -8.9317
 168   2.0000      -0.327596        -8.9143
 169   2.0000      -0.303762        -8.2658
 170   2.0000      -0.299636        -8.1535
 171   2.0000      -0.286389        -7.7930
 172   2.0000      -0.283284        -7.7086
 173   2.0000      -0.260739        -7.0951
 174   2.0000      -0.244625        -6.6566
 175   2.0000      -0.189726        -5.1627
 176   2.0000      -0.180008        -4.8983
 177   2.0000      -0.073891        -2.0107
 178   2.0000      -0.057773        -1.5721
 179   0.0000       0.028720         0.7815
 180   0.0000       0.067053         1.8246
 181   0.0000       0.091886         2.5004
 182   0.0000       0.107430         2.9233
 183   0.0000       0.113654         3.0927

MULLIKEN ATOMIC CHARGES
-----------------------
   0 C :    0.206201
   1 N :   -0.453736
   2 C :   -0.064874
   3 N :   -0.336224
   4 C :   -0.053939
   5 N :   -0.561055
   6 C :   -0.113495
   7 N :   -0.340010
   8 C :    0.206394
   9 N :   -0.562700
  10 C :    0.118295
  11 N :   -0.437660
  12 C :   -0.081488
  13 N :   -0.432066
  14 C :    0.226015
  15 N :   -0.441476
  16 C :    0.229786
  17 C :   -0.111183
  18 C :   -0.171957
  19 C :    0.212722
  20 C :    0.213625
  21 C :   -0.092013
  22 C :   -0.088506
  23 C :   -0.041826
  24 C :    0.197659
  25 C :    0.114062
  26 C :   -0.075172
  27 C :    0.212833
  28 C :   -0.059171
  29 C :   -0.180829
  30 C :    0.243297
  31 C :    0.226499
  32 C :   -0.061917
  33 C :   -0.065841
  34 C :   -0.049631
  35 C :    0.221095
  36 C :    0.109722
  37 C :   -0.064871
  38 C :    0.233748
  39 C :   -0.059607
  40 C :   -0.182401
  41 C :    0.223305
  42 C :    0.197799
  43 C :   -0.072968
  44 C :   -0.091105
  45 C :   -0.059700
  46 C :    0.208387
  47 C :    0.115733
  48 C :   -0.069200
  49 C :    0.235418
  50 C :   -0.047899
  51 C :   -0.192951
  52 H :    0.041228
  53 H :   -0.016210
  54 H :    0.050707
  55 H :    0.040358
  56 H :    0.050270
  57 H :    0.048874
  58 H :    0.048097
  59 H :    0.000846
  60 H :    0.050527
  61 H :    0.171190
  62 H :    0.175132
  63 H :    0.056694
  64 H :   -0.005672
  65 H :    0.047028
  66 H :    0.056865
  67 H :    0.063457
  68 H :    0.057922
  69 H :    0.057585
  70 H :   -0.027755
  71 H :    0.046595
  72 H :    0.067737
  73 H :   -0.009248
  74 H :    0.057127
  75 H :    0.066940
  76 H :    0.071810
  77 H :    0.065577
  78 H :    0.064730
  79 H :   -0.015359
  80 H :    0.057668
  81 H :    0.053561
  82 H :   -0.025025
  83 H :    0.041159
  84 H :    0.053013
  85 H :    0.059684
  86 H :    0.055144
  87 H :    0.056651
  88 H :   -0.016163
  89 H :    0.046133
Sum of atomic charges:    0.0000000

LOEWDIN ATOMIC CHARGES
----------------------
   0 C :   -0.021800
   1 N :    0.117015
   2 C :   -0.101667
   3 N :    0.182996
   4 C :   -0.003659
   5 N :   -0.131087
   6 C :   -0.039480
   7 N :    0.175942
   8 C :   -0.020394
   9 N :   -0.140156
  10 C :    0.024109
  11 N :    0.143992
  12 C :   -0.109385
  13 N :    0.160120
  14 C :   -0.034120
  15 N :    0.137392
  16 C :   -0.056551
  17 C :   -0.037901
  18 C :   -0.101111
  19 C :   -0.084996
  20 C :    0.005292
  21 C :   -0.113799
  22 C :    0.040116
  23 C :   -0.015740
  24 C :   -0.008628
  25 C :    0.030304
  26 C :   -0.107311
  27 C :   -0.112989
  28 C :   -0.025342
  29 C :   -0.099812
  30 C :   -0.034732
  31 C :    0.019630
  32 C :   -0.094298
  33 C :    0.071490
  34 C :   -0.015459
  35 C :    0.015135
  36 C :    0.033860
  37 C :   -0.095778
  38 C :   -0.047637
  39 C :   -0.020065
  40 C :   -0.108082
  41 C :   -0.094061
  42 C :   -0.010346
  43 C :   -0.101069
  44 C :    0.031057
  45 C :   -0.027412
  46 C :   -0.001261
  47 C :    0.029151
  48 C :   -0.098024
  49 C :   -0.073941
  50 C :   -0.020053
  51 C :   -0.109755
  52 H :    0.023930
  53 H :    0.003277
  54 H :    0.040823
  55 H :    0.024299
  56 H :    0.022166
  57 H :    0.026825
  58 H :    0.027366
  59 H :    0.009663
  60 H :    0.041390
  61 H :    0.060024
  62 H :    0.061665
  63 H :    0.031326
  64 H :    0.005034
  65 H :    0.045767
  66 H :    0.029903
  67 H :    0.028753
  68 H :    0.031945
  69 H :    0.030854
  70 H :   -0.003714
  71 H :    0.044365
  72 H :    0.036072
  73 H :    0.006517
  74 H :    0.049374
  75 H :    0.035495
  76 H :    0.033175
  77 H :    0.035045
  78 H :    0.034674
  79 H :    0.003559
  80 H :    0.049091
  81 H :    0.028760
  82 H :   -0.002771
  83 H :    0.042280
  84 H :    0.029272
  85 H :    0.026803
  86 H :    0.029971
  87 H :    0.031141
  88 H :    0.001588
  89 H :    0.044596

  Mayer bond orders larger than 0.100000
B(  0-C ,  1-N ) :   1.0895 B(  0-C , 17-C ) :   1.7003 B(  0-C , 52-H ) :   0.9675
B(  1-N ,  8-C ) :   1.0912 B(  1-N , 10-C ) :   0.9766 B(  2-C , 12-C ) :   1.5138
B(  2-C , 16-C ) :   1.3498 B(  2-C , 53-H ) :   0.9763 B(  3-N , 14-C ) :   1.2168
B(  3-N , 16-C ) :   1.1923 B(  3-N , 61-H ) :   0.8994 B(  4-C ,  6-C ) :   1.2153
B(  4-C , 17-C ) :   1.2152 B(  4-C , 18-C ) :   1.4121 B(  5-N , 19-C ) :   1.4488
B(  5-N , 27-C ) :   1.3830 B(  6-C ,  8-C ) :   1.6988 B(  6-C , 54-H ) :   0.9628
B(  7-N , 30-C ) :   1.1937 B(  7-N , 38-C ) :   1.1939 B(  7-N , 62-H ) :   0.8970
B(  8-C , 55-H ) :   0.9685 B(  9-N , 41-C ) :   1.3946 B(  9-N , 49-C ) :   1.4265
B( 10-C , 56-H ) :   0.9767 B( 10-C , 57-H ) :   0.9831 B( 10-C , 58-H ) :   0.9834
B( 11-N , 20-C ) :   1.1315 B( 11-N , 24-C ) :   1.1127 B( 11-N , 25-C ) :   0.9586
B( 12-C , 14-C ) :   1.3514 B( 12-C , 59-H ) :   0.9749 B( 13-N , 31-C ) :   1.1532
B( 13-N , 35-C ) :   1.1474 B( 13-N , 36-C ) :   0.9460 B( 14-C , 18-C ) :   1.1399
B( 15-N , 42-C ) :   1.1076 B( 15-N , 46-C ) :   1.1199 B( 15-N , 47-C ) :   0.9625
B( 16-C , 51-C ) :   1.1762 B( 17-C , 60-H ) :   0.9626 B( 18-C , 19-C ) :   1.1455
B( 19-C , 21-C ) :   1.2383 B( 20-C , 28-C ) :   1.6249 B( 20-C , 63-H ) :   0.9701
B( 21-C , 26-C ) :   1.6200 B( 21-C , 64-H ) :   0.9712 B( 22-C , 23-C ) :   1.2905
B( 22-C , 28-C ) :   1.2687 B( 22-C , 29-C ) :   1.2202 B( 23-C , 24-C ) :   1.6169
B( 23-C , 65-H ) :   0.9705 B( 24-C , 66-H ) :   0.9694 B( 25-C , 67-H ) :   0.9760
B( 25-C , 68-H ) :   0.9828 B( 25-C , 69-H ) :   0.9822 B( 26-C , 27-C ) :   1.2327
B( 26-C , 70-H ) :   0.9710 B( 27-C , 29-C ) :   1.2171 B( 28-C , 71-H ) :   0.9718
B( 29-C , 30-C ) :   1.2382 B( 30-C , 32-C ) :   1.2859 B( 31-C , 39-C ) :   1.5988
B( 31-C , 72-H ) :   0.9685 B( 32-C , 37-C ) :   1.5734 B( 32-C , 73-H ) :   0.9783
B( 33-C , 34-C ) :   1.3006 B( 33-C , 39-C ) :   1.2939 B( 33-C , 40-C ) :   1.1923
B( 34-C , 35-C ) :   1.5953 B( 34-C , 74-H ) :   0.9698 B( 35-C , 75-H ) :   0.9685
B( 36-C , 76-H ) :   0.9766 B( 36-C , 77-H ) :   0.9817 B( 36-C , 78-H ) :   0.9825
B( 37-C , 38-C ) :   1.2896 B( 37-C , 79-H ) :   0.9769 B( 38-C , 40-C ) :   1.2290
B( 39-C , 80-H ) :   0.9708 B( 40-C , 41-C ) :   1.2426 B( 41-C , 43-C ) :   1.1938
B( 42-C , 50-C ) :   1.6359 B( 42-C , 81-H ) :   0.9697 B( 43-C , 48-C ) :   1.6580
B( 43-C , 82-H ) :   0.9724 B( 44-C , 45-C ) :   1.2630 B( 44-C , 50-C ) :   1.2688
B( 44-C , 51-C ) :   1.2645 B( 45-C , 46-C ) :   1.6368 B( 45-C , 83-H ) :   0.9717
B( 46-C , 84-H ) :   0.9701 B( 47-C , 85-H ) :   0.9762 B( 47-C , 86-H ) :   0.9829
B( 47-C , 87-H ) :   0.9825 B( 48-C , 49-C ) :   1.1969 B( 48-C , 88-H ) :   0.9747
B( 49-C , 51-C ) :   1.2333 B( 50-C , 89-H ) :   0.9710

MP2 TOTAL ENERGY:    -2130.905990971 Eh
FINAL SINGLE POINT ENERGY     -2130.905990971296

DIPOLE MOMENT
-------------
                                X             Y             Z
Electronic contribution:      1.83183      -3.66938      -0.22370
Nuclear contribution   :      0.02920       0.20447       0.22530
                        -----------------------------------------
Total Dipole Moment    :      1.86103      -3.46491       0.00160
                        -----------------------------------------
Magnitude (a.u.)       :      3.93307
Magnitude (Debye)      :      9.99708

Rotational constants in cm-1:     0.001500     0.001477     0.000761
Rotational constants in MHz :    44.959202    44.289096    22.813313

                             ****ORCA TERMINATED NORMALLY****
TOTAL RUN TIME: 0 days 1 hours 20 minutes 47 seconds 779 msec
