                         Program Version 5.0.4 -  RELEASE  -
|  1> ! PAL2
|  2> ! mp2 cc-pvdz TightSCF  NoKeepInts
|  3>
|  4> %scf
|  5>   MaxCore 2000
|  6> end
|  7> %mp2
|  8>   MaxCore 2000
|  9> end
| 10> * xyz 0 1
| 11>    C       -4.46100         5.54100        -0.94000
| 12>    C        1.47400         4.04100         0.05700
| 13>    C       -2.80200         4.09300         0.04900
| 14>    C       -2.71500         5.00400         1.11300
| 15>    C       -3.49800         6.14200         1.11700
| 16>    C       -5.20500         7.60700         0.15300
| 17>    C        0.13200         4.30700         0.06100
| 18>    C       -0.56900         3.05600         0.04700
| 19>    C        1.64900         2.61800         0.02300
| 20>    C       -3.70300         4.38700        -0.98700
| 21>    N       -4.35200         6.39900         0.10000
| 22>    N        0.38800         2.06700         0.02500
| 23>    N       -2.01000         0.39500        -0.07500
| 24>    N       -0.38800        -2.07400        -0.02700
| 25>    N        2.01000        -0.40100         0.06500
| 26>    C       -1.96000         2.86100         0.02400
| 27>    C       -2.62300         1.61500        -0.01800
| 28>    C       -5.57300        -4.32900         1.06600
| 29>    C       -4.07300         1.47100         0.05600
| 30>    C       -4.10600        -2.75600        -0.02600
| 31>    C       -4.99500        -2.75700        -1.11100
| 32>    C       -6.13200        -3.54200        -1.07600
| 33>    C       -7.65100        -5.11300         0.04000
| 34>    C       -4.32400         0.14100         0.03700
| 35>    C       -3.02500        -0.52000        -0.04800
| 36>    C       -4.42200        -3.56600         1.07500
| 37>    N       -6.40700        -4.31300         0.00100
| 38>    C       -2.86700        -1.92200        -0.04000
| 39>    C       -1.65000        -2.62400        -0.02700
| 40>    C        3.56800        -6.14200        -1.04000
| 41>    C       -1.47600        -4.04900        -0.03400
| 42>    C        2.80300        -4.09900        -0.00800
| 43>    C        3.65700        -4.38400         1.06900
| 44>    C        4.42700        -5.53000         1.05900
| 45>    C        5.24500        -7.58800         0.01400
| 46>    C       -0.13400        -4.31500        -0.02200
| 47>    C        0.56800        -3.06400        -0.02700
| 48>    C        2.77500        -5.01200        -1.07400
| 49>    N        4.37600        -6.39100         0.01700
| 50>    C        1.95900        -2.86900        -0.00900
| 51>    C        2.62100        -1.62200         0.00900
| 52>    C        5.54300         4.33900        -1.13000
| 53>    C        4.07000        -1.47900        -0.09400
| 54>    C        4.10400         2.75100        -0.02100
| 55>    C        5.02700         2.72900         1.03600
| 56>    C        6.16600         3.50900         0.97800
| 57>    C        7.61900         5.15300        -0.11500
| 58>    C        4.32100        -0.14800        -0.09200
| 59>    C        3.02500         0.51400         0.01500
| 60>    C        4.38700         3.58200        -1.11500
| 61>    C        2.86600         1.91600         0.01300
| 62>    N        6.41300         4.29600        -0.09500
| 63>    H       -5.15800         5.81300        -1.72200
| 64>    H        2.27400         4.76600         0.08100
| 65>    H       -2.04600         4.82900         1.94600
| 66>    H       -3.47200         6.86800         1.91900
| 67>    H       -6.11100         7.37800         0.71800
| 68>    H       -4.64900         8.40700         0.64200
| 69>    H       -5.46200         7.89900        -0.86500
| 70>    H       -0.33200         5.28200         0.06900
| 71>    H       -3.80500         3.72900        -1.84200
| 72>    H        0.18200         1.07200         0.00500
| 73>    H       -0.18300        -1.08000        -0.02100
| 74>    H       -5.86400        -4.96200         1.89500
| 75>    H       -4.79400         2.27200         0.13900
| 76>    H       -4.80000        -2.16000        -1.99400
| 77>    H       -6.84100        -3.58200        -1.89300
| 78>    H       -8.42800        -4.53600         0.54600
| 79>    H       -7.95600        -5.33700        -0.98100
| 80>    H       -7.45600        -6.03700         0.58400
| 81>    H       -5.28700        -0.34400         0.10000
| 82>    H       -3.78000        -3.60100         1.94700
| 83>    H        3.58700        -6.86800        -1.84300
| 84>    H       -2.27600        -4.77400        -0.05000
| 85>    H        3.71400        -3.72400         1.92600
| 86>    H        5.09200        -5.79500         1.87100
| 87>    H        6.20500        -7.32900        -0.43900
| 88>    H        5.39300        -7.91700         1.04200
| 89>    H        4.75900        -8.37300        -0.56400
| 90>    H        0.32900        -5.29000        -0.00800
| 91>    H        2.14600        -4.84200        -1.94000
| 92>    H        5.80800         4.98600        -1.95600
| 93>    H        4.78800        -2.28100        -0.18500
| 94>    H        4.86000         2.11400         1.91200
| 95>    H        6.90100         3.53100         1.77200
| 96>    H        7.38300         6.10900         0.35600
| 97>    H        8.41400         4.65200         0.43500
| 98>    H        7.92100         5.31000        -1.15000
| 99>    H        5.28300         0.33600        -0.17900
|100>    H        3.72000         3.63200        -1.96700
|101> *
|102>
|103>                          ****END OF INPUT****

CARTESIAN COORDINATES (ANGSTROEM)
---------------------------------
  C     -4.461000    5.541000   -0.940000
  C      1.474000    4.041000    0.057000
  C     -2.802000    4.093000    0.049000
  C     -2.715000    5.004000    1.113000
  C     -3.498000    6.142000    1.117000
  C     -5.205000    7.607000    0.153000
  C      0.132000    4.307000    0.061000
  C     -0.569000    3.056000    0.047000
  C      1.649000    2.618000    0.023000
  C     -3.703000    4.387000   -0.987000
  N     -4.352000    6.399000    0.100000
  N      0.388000    2.067000    0.025000
  N     -2.010000    0.395000   -0.075000
  N     -0.388000   -2.074000   -0.027000
  N      2.010000   -0.401000    0.065000
  C     -1.960000    2.861000    0.024000
  C     -2.623000    1.615000   -0.018000
  C     -5.573000   -4.329000    1.066000
  C     -4.073000    1.471000    0.056000
  C     -4.106000   -2.756000   -0.026000
  C     -4.995000   -2.757000   -1.111000
  C     -6.132000   -3.542000   -1.076000
  C     -7.651000   -5.113000    0.040000
  C     -4.324000    0.141000    0.037000
  C     -3.025000   -0.520000   -0.048000
  C     -4.422000   -3.566000    1.075000
  N     -6.407000   -4.313000    0.001000
  C     -2.867000   -1.922000   -0.040000
  C     -1.650000   -2.624000   -0.027000
  C      3.568000   -6.142000   -1.040000
  C     -1.476000   -4.049000   -0.034000
  C      2.803000   -4.099000   -0.008000
  C      3.657000   -4.384000    1.069000
  C      4.427000   -5.530000    1.059000
  C      5.245000   -7.588000    0.014000
  C     -0.134000   -4.315000   -0.022000
  C      0.568000   -3.064000   -0.027000
  C      2.775000   -5.012000   -1.074000
  N      4.376000   -6.391000    0.017000
  C      1.959000   -2.869000   -0.009000
  C      2.621000   -1.622000    0.009000
  C      5.543000    4.339000   -1.130000
  C      4.070000   -1.479000   -0.094000
  C      4.104000    2.751000   -0.021000
  C      5.027000    2.729000    1.036000
  C      6.166000    3.509000    0.978000
  C      7.619000    5.153000   -0.115000
  C      4.321000   -0.148000   -0.092000
  C      3.025000    0.514000    0.015000
  C      4.387000    3.582000   -1.115000
  C      2.866000    1.916000    0.013000
  N      6.413000    4.296000   -0.095000
  H     -5.158000    5.813000   -1.722000
  H      2.274000    4.766000    0.081000
  H     -2.046000    4.829000    1.946000
  H     -3.472000    6.868000    1.919000
  H     -6.111000    7.378000    0.718000
  H     -4.649000    8.407000    0.642000
  H     -5.462000    7.899000   -0.865000
  H     -0.332000    5.282000    0.069000
  H     -3.805000    3.729000   -1.842000
  H      0.182000    1.072000    0.005000
  H     -0.183000   -1.080000   -0.021000
  H     -5.864000   -4.962000    1.895000
  H     -4.794000    2.272000    0.139000
  H     -4.800000   -2.160000   -1.994000
  H     -6.841000   -3.582000   -1.893000
  H     -8.428000   -4.536000    0.546000
  H     -7.956000   -5.337000   -0.981000
  H     -7.456000   -6.037000    0.584000
  H     -5.287000   -0.344000    0.100000
  H     -3.780000   -3.601000    1.947000
  H      3.587000   -6.868000   -1.843000
  H     -2.276000   -4.774000   -0.050000
  H      3.714000   -3.724000    1.926000
  H      5.092000   -5.795000    1.871000
  H      6.205000   -7.329000   -0.439000
  H      5.393000   -7.917000    1.042000
  H      4.759000   -8.373000   -0.564000
  H      0.329000   -5.290000   -0.008000
  H      2.146000   -4.842000   -1.940000
  H      5.808000    4.986000   -1.956000
  H      4.788000   -2.281000   -0.185000
  H      4.860000    2.114000    1.912000
  H      6.901000    3.531000    1.772000
  H      7.383000    6.109000    0.356000
  H      8.414000    4.652000    0.435000
  H      7.921000    5.310000   -1.150000
  H      5.283000    0.336000   -0.179000
  H      3.720000    3.632000   -1.967000

 Total Charge           Charge          ....    0
 Multiplicity           Mult            ....    1
 Number of Electrons    NEL             ....  358
 Basis Dimension        Dim             ....  918

ORBITAL ENERGIES
----------------

  NO   OCC          E(Eh)            E(eV)
   0   2.0000     -15.639972      -425.5853
   1   2.0000     -15.637214      -425.5102
   2   2.0000     -15.628331      -425.2685
   3   2.0000     -15.626725      -425.2248
   4   2.0000     -15.518403      -422.2772
   5   2.0000     -15.515571      -422.2002
   6   2.0000     -15.444360      -420.2624
   7   2.0000     -15.443195      -420.2307
   8   2.0000     -11.302952      -307.5690
   9   2.0000     -11.301467      -307.5286
  10   2.0000     -11.295730      -307.3725
  11   2.0000     -11.295282      -307.3602
  12   2.0000     -11.295157      -307.3568
  13   2.0000     -11.294624      -307.3423
  14   2.0000     -11.294352      -307.3349
  15   2.0000     -11.291575      -307.2594
  16   2.0000     -11.285307      -307.0888
  17   2.0000     -11.285234      -307.0868
  18   2.0000     -11.284936      -307.0787
  19   2.0000     -11.284354      -307.0629
  20   2.0000     -11.243292      -305.9455
  21   2.0000     -11.241685      -305.9018
  22   2.0000     -11.234942      -305.7183
  23   2.0000     -11.234289      -305.7005
  24   2.0000     -11.232937      -305.6637
  25   2.0000     -11.232652      -305.6560
  26   2.0000     -11.232413      -305.6495
  27   2.0000     -11.232069      -305.6401
  28   2.0000     -11.226242      -305.4816
  29   2.0000     -11.226133      -305.4786
  30   2.0000     -11.225320      -305.4565
  31   2.0000     -11.224948      -305.4464
  32   2.0000     -11.199959      -304.7664
  33   2.0000     -11.199511      -304.7542
  34   2.0000     -11.194495      -304.6177
  35   2.0000     -11.194093      -304.6067
  36   2.0000     -11.172322      -304.0143
  37   2.0000     -11.171174      -303.9831
  38   2.0000     -11.170991      -303.9781
  39   2.0000     -11.170700      -303.9702
  40   2.0000     -11.170122      -303.9545
  41   2.0000     -11.169763      -303.9447
  42   2.0000     -11.167221      -303.8755
  43   2.0000     -11.166052      -303.8437
  44   2.0000     -11.159659      -303.6698
  45   2.0000     -11.158103      -303.6274
  46   2.0000     -11.153123      -303.4919
  47   2.0000     -11.151773      -303.4552
  48   2.0000     -11.142823      -303.2116
  49   2.0000     -11.141750      -303.1824
  50   2.0000     -11.140687      -303.1535
  51   2.0000     -11.139891      -303.1319
  52   2.0000      -1.326295       -36.0903
  53   2.0000      -1.324009       -36.0281
  54   2.0000      -1.316214       -35.8160
  55   2.0000      -1.315450       -35.7952
  56   2.0000      -1.217230       -33.1225
  57   2.0000      -1.212710       -32.9995
  58   2.0000      -1.161260       -31.5995
  59   2.0000      -1.156659       -31.4743
  60   2.0000      -1.115127       -30.3441
  61   2.0000      -1.112010       -30.2593
  62   2.0000      -1.105562       -30.0839
  63   2.0000      -1.103691       -30.0330
  64   2.0000      -1.050059       -28.5735
  65   2.0000      -1.048151       -28.5216
  66   2.0000      -1.040774       -28.3209
  67   2.0000      -1.040245       -28.3065
  68   2.0000      -1.026259       -27.9259
  69   2.0000      -1.009717       -27.4758
  70   2.0000      -1.008858       -27.4524
  71   2.0000      -0.998504       -27.1707
  72   2.0000      -0.981394       -26.7051
  73   2.0000      -0.976123       -26.5617
  74   2.0000      -0.968168       -26.3452
  75   2.0000      -0.960798       -26.1446
  76   2.0000      -0.952405       -25.9163
  77   2.0000      -0.942150       -25.6372
  78   2.0000      -0.940316       -25.5873
  79   2.0000      -0.923402       -25.1270
  80   2.0000      -0.892490       -24.2859
  81   2.0000      -0.877287       -23.8722
  82   2.0000      -0.874792       -23.8043
  83   2.0000      -0.868762       -23.6402
  84   2.0000      -0.866519       -23.5792
  85   2.0000      -0.856908       -23.3176
  86   2.0000      -0.846886       -23.0449
  87   2.0000      -0.845307       -23.0020
  88   2.0000      -0.821752       -22.3610
  89   2.0000      -0.798386       -21.7252
  90   2.0000      -0.797789       -21.7089
  91   2.0000      -0.739059       -20.1108
  92   2.0000      -0.728664       -19.8279
  93   2.0000      -0.728107       -19.8128
  94   2.0000      -0.720882       -19.6162
  95   2.0000      -0.719770       -19.5859
  96   2.0000      -0.711990       -19.3742
  97   2.0000      -0.710164       -19.3245
  98   2.0000      -0.698164       -18.9980
  99   2.0000      -0.691948       -18.8289
 100   2.0000      -0.683332       -18.5944
 101   2.0000      -0.680331       -18.5128
 102   2.0000      -0.678402       -18.4602
 103   2.0000      -0.673855       -18.3365
 104   2.0000      -0.668621       -18.1941
 105   2.0000      -0.667393       -18.1607
 106   2.0000      -0.663256       -18.0481
 107   2.0000      -0.658290       -17.9130
 108   2.0000      -0.656919       -17.8757
 109   2.0000      -0.653539       -17.7837
 110   2.0000      -0.652688       -17.7605
 111   2.0000      -0.650941       -17.7130
 112   2.0000      -0.648697       -17.6520
 113   2.0000      -0.646562       -17.5938
 114   2.0000      -0.634539       -17.2667
 115   2.0000      -0.623001       -16.9527
 116   2.0000      -0.616814       -16.7844
 117   2.0000      -0.615000       -16.7350
 118   2.0000      -0.610318       -16.6076
 119   2.0000      -0.608316       -16.5531
 120   2.0000      -0.608068       -16.5464
 121   2.0000      -0.606987       -16.5170
 122   2.0000      -0.603456       -16.4209
 123   2.0000      -0.594216       -16.1695
 124   2.0000      -0.585544       -15.9335
 125   2.0000      -0.583869       -15.8879
 126   2.0000      -0.578127       -15.7316
 127   2.0000      -0.576924       -15.6989
 128   2.0000      -0.570278       -15.5181
 129   2.0000      -0.562409       -15.3039
 130   2.0000      -0.553649       -15.0656
 131   2.0000      -0.542043       -14.7498
 132   2.0000      -0.539919       -14.6919
 133   2.0000      -0.534909       -14.5556
 134   2.0000      -0.534500       -14.5445
 135   2.0000      -0.531417       -14.4606
 136   2.0000      -0.524105       -14.2616
 137   2.0000      -0.523430       -14.2432
 138   2.0000      -0.516994       -14.0681
 139   2.0000      -0.515114       -14.0170
 140   2.0000      -0.509021       -13.8512
 141   2.0000      -0.507751       -13.8166
 142   2.0000      -0.503663       -13.7054
 143   2.0000      -0.503278       -13.6949
 144   2.0000      -0.498660       -13.5692
 145   2.0000      -0.497399       -13.5349
 146   2.0000      -0.496767       -13.5177
 147   2.0000      -0.493758       -13.4358
 148   2.0000      -0.491074       -13.3628
 149   2.0000      -0.468628       -12.7520
 150   2.0000      -0.459940       -12.5156
 151   2.0000      -0.450800       -12.2669
 152   2.0000      -0.447850       -12.1866
 153   2.0000      -0.445709       -12.1284
 154   2.0000      -0.444914       -12.1067
 155   2.0000      -0.439653       -11.9636
 156   2.0000      -0.434842       -11.8327
 157   2.0000      -0.431914       -11.7530
 158   2.0000      -0.389980       -10.6119
 159   2.0000      -0.381090       -10.3700
 160   2.0000      -0.379438       -10.3250
 161   2.0000      -0.373335       -10.1590
 162   2.0000      -0.360291        -9.8040
 163   2.0000      -0.358826        -9.7641
 164   2.0000      -0.352459        -9.5909
 165   2.0000      -0.351857        -9.5745
 166   2.0000      -0.337303        -9.1785
 167   2.0000      -0.331935        -9.0324
 168   2.0000      -0.328975        -8.9519
 169   2.0000      -0.300226        -8.1696
 170   2.0000      -0.294638        -8.0175
 171   2.0000      -0.289441        -7.8761
 172   2.0000      -0.287336        -7.8188
 173   2.0000      -0.254532        -6.9262
 174   2.0000      -0.247802        -6.7430
 175   2.0000      -0.187793        -5.1101
 176   2.0000      -0.177587        -4.8324
 177   2.0000      -0.065784        -1.7901
 178   2.0000      -0.054399        -1.4803
 179   0.0000       0.031224         0.8496
 180   0.0000       0.070696         1.9237
 181   0.0000       0.093107         2.5336
 182   0.0000       0.096538         2.6269
 183   0.0000       0.133615         3.6358

MULLIKEN ATOMIC CHARGES
-----------------------
   0 C :    0.206929
   1 N :   -0.442020
   2 C :   -0.065240
   3 N :   -0.338070
   4 C :   -0.076536
   5 N :   -0.562303
   6 C :   -0.062786
   7 N :   -0.338315
   8 C :    0.204541
   9 N :   -0.563086
  10 C :    0.114720
  11 N :   -0.437175
  12 C :   -0.068735
  13 N :   -0.439237
  14 C :    0.234465
  15 N :   -0.440770
  16 C :    0.235641
  17 C :   -0.063370
  18 C :   -0.193551
  19 C :    0.225359
  20 C :    0.208537
  21 C :   -0.075447
  22 C :   -0.085689
  23 C :   -0.048905
  24 C :    0.206351
  25 C :    0.113669
  26 C :   -0.073285
  27 C :    0.222863
  28 C :   -0.052244
  29 C :   -0.185191
  30 C :    0.235792
  31 C :    0.212166
  32 C :   -0.064589
  33 C :   -0.080239
  34 C :   -0.049712
  35 C :    0.205044
  36 C :    0.113843
  37 C :   -0.066469
  38 C :    0.237228
  39 C :   -0.061623
  40 C :   -0.188811
  41 C :    0.220316
  42 C :    0.202988
  43 C :   -0.073901
  44 C :   -0.089082
  45 C :   -0.053022
  46 C :    0.203236
  47 C :    0.115652
  48 C :   -0.074726
  49 C :    0.226125
  50 C :   -0.052731
  51 C :   -0.190519
  52 H :    0.053341
  53 H :   -0.014194
  54 H :    0.046318
  55 H :    0.052410
  56 H :    0.059343
  57 H :    0.056436
  58 H :    0.055608
  59 H :   -0.012597
  60 H :    0.044313
  61 H :    0.172691
  62 H :    0.173013
  63 H :    0.057180
  64 H :   -0.019973
  65 H :    0.046590
  66 H :    0.057897
  67 H :    0.063318
  68 H :    0.058333
  69 H :    0.059125
  70 H :   -0.024649
  71 H :    0.048415
  72 H :    0.056986
  73 H :   -0.013866
  74 H :    0.047263
  75 H :    0.055998
  76 H :    0.062526
  77 H :    0.058528
  78 H :    0.057697
  79 H :   -0.013782
  80 H :    0.047519
  81 H :    0.053524
  82 H :   -0.024030
  83 H :    0.042751
  84 H :    0.052944
  85 H :    0.058875
  86 H :    0.056160
  87 H :    0.056640
  88 H :   -0.021831
  89 H :    0.045093
Sum of atomic charges:   -0.0000000

LOEWDIN ATOMIC CHARGES
----------------------
   0 C :   -0.005073
   1 N :    0.136614
   2 C :   -0.100694
   3 N :    0.178130
   4 C :    0.032306
   5 N :   -0.137508
   6 C :   -0.024056
   7 N :    0.177178
   8 C :   -0.006418
   9 N :   -0.138922
  10 C :    0.028755
  11 N :    0.145375
  12 C :   -0.101897
  13 N :    0.142954
  14 C :   -0.044344
  15 N :    0.138354
  16 C :   -0.046332
  17 C :   -0.025280
  18 C :   -0.108152
  19 C :   -0.087365
  20 C :    0.001250
  21 C :   -0.104942
  22 C :    0.044256
  23 C :   -0.020279
  24 C :   -0.000554
  25 C :    0.030591
  26 C :   -0.104084
  27 C :   -0.095313
  28 C :   -0.020842
  29 C :   -0.106519
  30 C :   -0.045477
  31 C :    0.002743
  32 C :   -0.098265
  33 C :    0.042583
  34 C :   -0.019302
  35 C :   -0.003376
  36 C :    0.029942
  37 C :   -0.100433
  38 C :   -0.041360
  39 C :   -0.025123
  40 C :   -0.108839
  41 C :   -0.094577
  42 C :   -0.005746
  43 C :   -0.105026
  44 C :    0.033799
  45 C :   -0.022776
  46 C :   -0.005535
  47 C :    0.029221
  48 C :   -0.104948
  49 C :   -0.088870
  50 C :   -0.022974
  51 C :   -0.109048
  52 H :    0.028911
  53 H :    0.004257
  54 H :    0.043522
  55 H :    0.029083
  56 H :    0.026620
  57 H :    0.030319
  58 H :    0.030896
  59 H :    0.004530
  60 H :    0.043182
  61 H :    0.060519
  62 H :    0.060560
  63 H :    0.031331
  64 H :   -0.000504
  65 H :    0.045232
  66 H :    0.030685
  67 H :    0.028770
  68 H :    0.032127
  69 H :    0.031508
  70 H :   -0.002253
  71 H :    0.045544
  72 H :    0.031023
  73 H :    0.004301
  74 H :    0.045201
  75 H :    0.030279
  76 H :    0.028380
  77 H :    0.031732
  78 H :    0.031378
  79 H :    0.004399
  80 H :    0.044681
  81 H :    0.028936
  82 H :   -0.002128
  83 H :    0.043346
  84 H :    0.029033
  85 H :    0.026468
  86 H :    0.030389
  87 H :    0.031126
  88 H :   -0.001112
  89 H :    0.043923

  Mayer bond orders larger than 0.100000
B(  0-C ,  1-N ) :   1.1147 B(  0-C , 17-C ) :   1.6415 B(  0-C , 52-H ) :   0.9691
B(  1-N ,  8-C ) :   1.1127 B(  1-N , 10-C ) :   0.9630 B(  2-C , 12-C ) :   1.5352
B(  2-C , 16-C ) :   1.3239 B(  2-C , 53-H ) :   0.9778 B(  3-N , 14-C ) :   1.2034
B(  3-N , 16-C ) :   1.1950 B(  3-N , 61-H ) :   0.8985 B(  4-C ,  6-C ) :   1.2598
B(  4-C , 17-C ) :   1.2615 B(  4-C , 18-C ) :   1.2801 B(  5-N , 19-C ) :   1.4212
B(  5-N , 27-C ) :   1.4041 B(  6-C ,  8-C ) :   1.6421 B(  6-C , 54-H ) :   0.9709
B(  7-N , 30-C ) :   1.1921 B(  7-N , 38-C ) :   1.2015 B(  7-N , 62-H ) :   0.8982
B(  8-C , 55-H ) :   0.9702 B(  9-N , 41-C ) :   1.4067 B(  9-N , 49-C ) :   1.4175
B( 10-C , 56-H ) :   0.9763 B( 10-C , 57-H ) :   0.9825 B( 10-C , 58-H ) :   0.9830
B( 11-N , 20-C ) :   1.1258 B( 11-N , 24-C ) :   1.1240 B( 11-N , 25-C ) :   0.9576
B( 12-C , 14-C ) :   1.3257 B( 12-C , 59-H ) :   0.9772 B( 13-N , 31-C ) :   1.1263
B( 13-N , 35-C ) :   1.1185 B( 13-N , 36-C ) :   0.9589 B( 14-C , 18-C ) :   1.1927
B( 15-N , 42-C ) :   1.1152 B( 15-N , 46-C ) :   1.1144 B( 15-N , 47-C ) :   0.9624
B( 16-C , 51-C ) :   1.2001 B( 17-C , 60-H ) :   0.9707 B( 18-C , 19-C ) :   1.2079
B( 19-C , 21-C ) :   1.2149 B( 20-C , 28-C ) :   1.6218 B( 20-C , 63-H ) :   0.9702
B( 21-C , 26-C ) :   1.6396 B( 21-C , 64-H ) :   0.9734 B( 22-C , 23-C ) :   1.2844
B( 22-C , 28-C ) :   1.2758 B( 22-C , 29-C ) :   1.2269 B( 23-C , 24-C ) :   1.6170
B( 23-C , 65-H ) :   0.9709 B( 24-C , 66-H ) :   0.9691 B( 25-C , 67-H ) :   0.9762
B( 25-C , 68-H ) :   0.9829 B( 25-C , 69-H ) :   0.9821 B( 26-C , 27-C ) :   1.2117
B( 26-C , 70-H ) :   0.9731 B( 27-C , 29-C ) :   1.2274 B( 28-C , 71-H ) :   0.9714
B( 29-C , 30-C ) :   1.2155 B( 30-C , 32-C ) :   1.3087 B( 31-C , 39-C ) :   1.6286
B( 31-C , 72-H ) :   0.9695 B( 32-C , 37-C ) :   1.5497 B( 32-C , 73-H ) :   0.9778
B( 33-C , 34-C ) :   1.2770 B( 33-C , 39-C ) :   1.2694 B( 33-C , 40-C ) :   1.2455
B( 34-C , 35-C ) :   1.6255 B( 34-C , 74-H ) :   0.9704 B( 35-C , 75-H ) :   0.9696
B( 36-C , 76-H ) :   0.9763 B( 36-C , 77-H ) :   0.9820 B( 36-C , 78-H ) :   0.9831
B( 37-C , 38-C ) :   1.3102 B( 37-C , 79-H ) :   0.9778 B( 38-C , 40-C ) :   1.2109
B( 39-C , 80-H ) :   0.9715 B( 40-C , 41-C ) :   1.2185 B( 41-C , 43-C ) :   1.2148
B( 42-C , 50-C ) :   1.6340 B( 42-C , 81-H ) :   0.9696 B( 43-C , 48-C ) :   1.6365
B( 43-C , 82-H ) :   0.9736 B( 44-C , 45-C ) :   1.2700 B( 44-C , 50-C ) :   1.2667
B( 44-C , 51-C ) :   1.2569 B( 45-C , 46-C ) :   1.6330 B( 45-C , 83-H ) :   0.9712
B( 46-C , 84-H ) :   0.9703 B( 47-C , 85-H ) :   0.9761 B( 47-C , 86-H ) :   0.9828
B( 47-C , 87-H ) :   0.9826 B( 48-C , 49-C ) :   1.2147 B( 48-C , 88-H ) :   0.9739
B( 49-C , 51-C ) :   1.2173 B( 50-C , 89-H ) :   0.9713

MP2 TOTAL ENERGY:    -2130.914789466 Eh
FINAL SINGLE POINT ENERGY     -2130.914789465917

DIPOLE MOMENT
-------------
                                X             Y             Z
Electronic contribution:     -0.20419      -0.94729      -0.20501
Nuclear contribution   :      0.00377       0.18499       0.22682
                        -----------------------------------------
Total Dipole Moment    :     -0.20042      -0.76230       0.02181
                        -----------------------------------------
Magnitude (a.u.)       :      0.78851
Magnitude (Debye)      :      2.00424

Rotational constants in cm-1:     0.001498     0.001474     0.000762
Rotational constants in MHz :    44.914731    44.200261    22.847773

                             ****ORCA TERMINATED NORMALLY****
TOTAL RUN TIME: 0 days 1 hours 8 minutes 47 seconds 765 msec
