                         Program Version 5.0.4 -  RELEASE  -
|  1> ! PAL2
|  2> ! mp2 cc-pvdz TightSCF  NoKeepInts
|  3>
|  4> %scf
|  5>   MaxCore 2000
|  6> end
|  7> %mp2
|  8>   MaxCore 2000
|  9> end
| 10> * xyz 0 1
| 11>    C       -4.88900         5.21800         0.49700
| 12>    C        1.47400         4.04100         0.05700
| 13>    C       -2.80200         4.09300         0.04900
| 14>    C       -2.28900         5.32600        -0.38200
| 15>    C       -3.08300         6.45500        -0.35700
| 16>    C       -5.17800         7.62600         0.12500
| 17>    C        0.13200         4.30700         0.06100
| 18>    C       -0.56900         3.05600         0.04700
| 19>    C        1.64900         2.61800         0.02300
| 20>    C       -4.13200         4.06300         0.49600
| 21>    N       -4.36400         6.39100         0.07500
| 22>    N        0.38800         2.06700         0.02500
| 23>    N       -2.01000         0.39500        -0.07500
| 24>    N       -0.38800        -2.07400        -0.02700
| 25>    N        2.01000        -0.40100         0.06500
| 26>    C       -1.96000         2.86100         0.02400
| 27>    C       -2.62300         1.61500        -0.01800
| 28>    C       -5.57300        -4.32900         1.06600
| 29>    C       -4.07300         1.47100         0.05600
| 30>    C       -4.10600        -2.75600        -0.02600
| 31>    C       -4.99500        -2.75700        -1.11100
| 32>    C       -6.13200        -3.54200        -1.07600
| 33>    C       -7.65100        -5.11300         0.04000
| 34>    C       -4.32400         0.14100         0.03700
| 35>    C       -3.02500        -0.52000        -0.04800
| 36>    C       -4.42200        -3.56600         1.07500
| 37>    N       -6.40700        -4.31300         0.00100
| 38>    C       -2.86700        -1.92200        -0.04000
| 39>    C       -1.65000        -2.62400        -0.02700
| 40>    C        3.56800        -6.14200        -1.04000
| 41>    C       -1.47600        -4.04900        -0.03400
| 42>    C        2.80300        -4.09900        -0.00800
| 43>    C        3.65700        -4.38400         1.06900
| 44>    C        4.42700        -5.53000         1.05900
| 45>    C        5.24500        -7.58800         0.01400
| 46>    C       -0.13400        -4.31500        -0.02200
| 47>    C        0.56800        -3.06400        -0.02700
| 48>    C        2.77500        -5.01200        -1.07400
| 49>    N        4.37600        -6.39100         0.01700
| 50>    C        1.95900        -2.86900        -0.00900
| 51>    C        2.62100        -1.62200         0.00900
| 52>    C        5.54300         4.33900        -1.13000
| 53>    C        4.07000        -1.47900        -0.09400
| 54>    C        4.10400         2.75100        -0.02100
| 55>    C        5.02700         2.72900         1.03600
| 56>    C        6.16600         3.50900         0.97800
| 57>    C        7.61900         5.15300        -0.11500
| 58>    C        4.32100        -0.14800        -0.09200
| 59>    C        3.02500         0.51400         0.01500
| 60>    C        4.38700         3.58200        -1.11500
| 61>    C        2.86600         1.91600         0.01300
| 62>    N        6.41300         4.29600        -0.09500
| 63>    H       -5.92200         5.24000         0.82200
| 64>    H        2.27400         4.76600         0.08100
| 65>    H       -1.26700         5.41500        -0.72900
| 66>    H       -2.72900         7.42800        -0.67000
| 67>    H       -4.99300         8.13500         1.07400
| 68>    H       -4.89200         8.26900        -0.70700
| 69>    H       -6.23000         7.35600         0.04400
| 70>    H       -0.33200         5.28200         0.06900
| 71>    H       -4.59000         3.13900         0.82800
| 72>    H        0.18200         1.07200         0.00500
| 73>    H       -0.18300        -1.08000        -0.02100
| 74>    H       -5.86400        -4.96200         1.89500
| 75>    H       -4.79400         2.27200         0.13900
| 76>    H       -4.80000        -2.16000        -1.99400
| 77>    H       -6.84100        -3.58200        -1.89300
| 78>    H       -8.42800        -4.53600         0.54600
| 79>    H       -7.95600        -5.33700        -0.98100
| 80>    H       -7.45600        -6.03700         0.58400
| 81>    H       -5.28700        -0.34400         0.10000
| 82>    H       -3.78000        -3.60100         1.94700
| 83>    H        3.58700        -6.86800        -1.84300
| 84>    H       -2.27600        -4.77400        -0.05000
| 85>    H        3.71400        -3.72400         1.92600
| 86>    H        5.09200        -5.79500         1.87100
| 87>    H        6.20500        -7.32900        -0.43900
| 88>    H        5.39300        -7.91700         1.04200
| 89>    H        4.75900        -8.37300        -0.56400
| 90>    H        0.32900        -5.29000        -0.00800
| 91>    H        2.14600        -4.84200        -1.94000
| 92>    H        5.80800         4.98600        -1.95600
| 93>    H        4.78800        -2.28100        -0.18500
| 94>    H        4.86000         2.11400         1.91200
| 95>    H        6.90100         3.53100         1.77200
| 96>    H        7.38300         6.10900         0.35600
| 97>    H        8.41400         4.65200         0.43500
| 98>    H        7.92100         5.31000        -1.15000
| 99>    H        5.28300         0.33600        -0.17900
|100>    H        3.72000         3.63200        -1.96700
|101> *
|102>
|103>                          ****END OF INPUT****

CARTESIAN COORDINATES (ANGSTROEM)
---------------------------------
  C     -4.889000    5.218000    0.497000
  C      1.474000    4.041000    0.057000
  C     -2.802000    4.093000    0.049000
  C     -2.289000    5.326000   -0.382000
  C     -3.083000    6.455000   -0.357000
  C     -5.178000    7.626000    0.125000
  C      0.132000    4.307000    0.061000
  C     -0.569000    3.056000    0.047000
  C      1.649000    2.618000    0.023000
  C     -4.132000    4.063000    0.496000
  N     -4.364000    6.391000    0.075000
  N      0.388000    2.067000    0.025000
  N     -2.010000    0.395000   -0.075000
  N     -0.388000   -2.074000   -0.027000
  N      2.010000   -0.401000    0.065000
  C     -1.960000    2.861000    0.024000
  C     -2.623000    1.615000   -0.018000
  C     -5.573000   -4.329000    1.066000
  C     -4.073000    1.471000    0.056000
  C     -4.106000   -2.756000   -0.026000
  C     -4.995000   -2.757000   -1.111000
  C     -6.132000   -3.542000   -1.076000
  C     -7.651000   -5.113000    0.040000
  C     -4.324000    0.141000    0.037000
  C     -3.025000   -0.520000   -0.048000
  C     -4.422000   -3.566000    1.075000
  N     -6.407000   -4.313000    0.001000
  C     -2.867000   -1.922000   -0.040000
  C     -1.650000   -2.624000   -0.027000
  C      3.568000   -6.142000   -1.040000
  C     -1.476000   -4.049000   -0.034000
  C      2.803000   -4.099000   -0.008000
  C      3.657000   -4.384000    1.069000
  C      4.427000   -5.530000    1.059000
  C      5.245000   -7.588000    0.014000
  C     -0.134000   -4.315000   -0.022000
  C      0.568000   -3.064000   -0.027000
  C      2.775000   -5.012000   -1.074000
  N      4.376000   -6.391000    0.017000
  C      1.959000   -2.869000   -0.009000
  C      2.621000   -1.622000    0.009000
  C      5.543000    4.339000   -1.130000
  C      4.070000   -1.479000   -0.094000
  C      4.104000    2.751000   -0.021000
  C      5.027000    2.729000    1.036000
  C      6.166000    3.509000    0.978000
  C      7.619000    5.153000   -0.115000
  C      4.321000   -0.148000   -0.092000
  C      3.025000    0.514000    0.015000
  C      4.387000    3.582000   -1.115000
  C      2.866000    1.916000    0.013000
  N      6.413000    4.296000   -0.095000
  H     -5.922000    5.240000    0.822000
  H      2.274000    4.766000    0.081000
  H     -1.267000    5.415000   -0.729000
  H     -2.729000    7.428000   -0.670000
  H     -4.993000    8.135000    1.074000
  H     -4.892000    8.269000   -0.707000
  H     -6.230000    7.356000    0.044000
  H     -0.332000    5.282000    0.069000
  H     -4.590000    3.139000    0.828000
  H      0.182000    1.072000    0.005000
  H     -0.183000   -1.080000   -0.021000
  H     -5.864000   -4.962000    1.895000
  H     -4.794000    2.272000    0.139000
  H     -4.800000   -2.160000   -1.994000
  H     -6.841000   -3.582000   -1.893000
  H     -8.428000   -4.536000    0.546000
  H     -7.956000   -5.337000   -0.981000
  H     -7.456000   -6.037000    0.584000
  H     -5.287000   -0.344000    0.100000
  H     -3.780000   -3.601000    1.947000
  H      3.587000   -6.868000   -1.843000
  H     -2.276000   -4.774000   -0.050000
  H      3.714000   -3.724000    1.926000
  H      5.092000   -5.795000    1.871000
  H      6.205000   -7.329000   -0.439000
  H      5.393000   -7.917000    1.042000
  H      4.759000   -8.373000   -0.564000
  H      0.329000   -5.290000   -0.008000
  H      2.146000   -4.842000   -1.940000
  H      5.808000    4.986000   -1.956000
  H      4.788000   -2.281000   -0.185000
  H      4.860000    2.114000    1.912000
  H      6.901000    3.531000    1.772000
  H      7.383000    6.109000    0.356000
  H      8.414000    4.652000    0.435000
  H      7.921000    5.310000   -1.150000
  H      5.283000    0.336000   -0.179000
  H      3.720000    3.632000   -1.967000

 Total Charge           Charge          ....    0
 Multiplicity           Mult            ....    1
 Number of Electrons    NEL             ....  358
 Basis Dimension        Dim             ....  918

ORBITAL ENERGIES
----------------

  NO   OCC          E(Eh)            E(eV)
   0   2.0000     -15.677295      -426.6009
   1   2.0000     -15.634020      -425.4233
   2   2.0000     -15.631536      -425.3557
   3   2.0000     -15.589296      -424.2063
   4   2.0000     -15.524948      -422.4553
   5   2.0000     -15.515937      -422.2101
   6   2.0000     -15.453378      -420.5078
   7   2.0000     -15.440324      -420.1526
   8   2.0000     -11.327400      -308.2342
   9   2.0000     -11.326392      -308.2068
  10   2.0000     -11.326215      -308.2020
  11   2.0000     -11.299351      -307.4710
  12   2.0000     -11.298173      -307.4389
  13   2.0000     -11.292928      -307.2962
  14   2.0000     -11.290791      -307.2381
  15   2.0000     -11.286699      -307.1267
  16   2.0000     -11.286473      -307.1206
  17   2.0000     -11.279712      -306.9366
  18   2.0000     -11.271381      -306.7099
  19   2.0000     -11.261641      -306.4448
  20   2.0000     -11.260660      -306.4181
  21   2.0000     -11.253042      -306.2108
  22   2.0000     -11.252350      -306.1920
  23   2.0000     -11.237736      -305.7943
  24   2.0000     -11.236321      -305.7558
  25   2.0000     -11.231201      -305.6165
  26   2.0000     -11.230401      -305.5947
  27   2.0000     -11.229542      -305.5714
  28   2.0000     -11.229417      -305.5680
  29   2.0000     -11.210525      -305.0539
  30   2.0000     -11.209208      -305.0181
  31   2.0000     -11.196698      -304.6776
  32   2.0000     -11.190648      -304.5130
  33   2.0000     -11.190498      -304.5089
  34   2.0000     -11.188705      -304.4601
  35   2.0000     -11.187508      -304.4276
  36   2.0000     -11.186231      -304.3928
  37   2.0000     -11.185381      -304.3697
  38   2.0000     -11.181495      -304.2640
  39   2.0000     -11.173862      -304.0562
  40   2.0000     -11.172215      -304.0114
  41   2.0000     -11.170574      -303.9668
  42   2.0000     -11.167903      -303.8941
  43   2.0000     -11.160885      -303.7031
  44   2.0000     -11.160400      -303.6899
  45   2.0000     -11.157489      -303.6107
  46   2.0000     -11.155855      -303.5662
  47   2.0000     -11.155105      -303.5458
  48   2.0000     -11.147400      -303.3362
  49   2.0000     -11.136998      -303.0531
  50   2.0000     -11.130425      -302.8743
  51   2.0000     -11.118826      -302.5586
  52   2.0000      -1.358261       -36.9602
  53   2.0000      -1.321258       -35.9533
  54   2.0000      -1.319365       -35.9018
  55   2.0000      -1.282530       -34.8994
  56   2.0000      -1.225817       -33.3562
  57   2.0000      -1.210434       -32.9376
  58   2.0000      -1.172761       -31.9124
  59   2.0000      -1.151069       -31.3222
  60   2.0000      -1.141897       -31.0726
  61   2.0000      -1.110289       -30.2125
  62   2.0000      -1.108731       -30.1701
  63   2.0000      -1.080113       -29.3914
  64   2.0000      -1.078930       -29.3592
  65   2.0000      -1.045434       -28.4477
  66   2.0000      -1.044053       -28.4101
  67   2.0000      -1.039952       -28.2985
  68   2.0000      -1.014752       -27.6128
  69   2.0000      -1.013193       -27.5704
  70   2.0000      -1.009351       -27.4658
  71   2.0000      -0.993180       -27.0258
  72   2.0000      -0.986231       -26.8367
  73   2.0000      -0.980936       -26.6926
  74   2.0000      -0.972513       -26.4634
  75   2.0000      -0.961552       -26.1652
  76   2.0000      -0.954028       -25.9604
  77   2.0000      -0.945962       -25.7409
  78   2.0000      -0.935607       -25.4592
  79   2.0000      -0.918121       -24.9833
  80   2.0000      -0.908730       -24.7278
  81   2.0000      -0.895271       -24.3616
  82   2.0000      -0.875502       -23.8236
  83   2.0000      -0.872076       -23.7304
  84   2.0000      -0.869889       -23.6709
  85   2.0000      -0.858076       -23.3494
  86   2.0000      -0.841742       -22.9050
  87   2.0000      -0.835694       -22.7404
  88   2.0000      -0.825563       -22.4647
  89   2.0000      -0.797231       -21.6938
  90   2.0000      -0.790339       -21.5062
  91   2.0000      -0.753466       -20.5029
  92   2.0000      -0.749117       -20.3845
  93   2.0000      -0.733247       -19.9527
  94   2.0000      -0.725547       -19.7431
  95   2.0000      -0.722507       -19.6604
  96   2.0000      -0.717279       -19.5182
  97   2.0000      -0.714248       -19.4357
  98   2.0000      -0.709760       -19.3136
  99   2.0000      -0.697560       -18.9816
 100   2.0000      -0.696451       -18.9514
 101   2.0000      -0.687391       -18.7049
 102   2.0000      -0.683553       -18.6004
 103   2.0000      -0.682674       -18.5765
 104   2.0000      -0.678495       -18.4628
 105   2.0000      -0.673951       -18.3391
 106   2.0000      -0.671179       -18.2637
 107   2.0000      -0.660401       -17.9704
 108   2.0000      -0.657343       -17.8872
 109   2.0000      -0.653043       -17.7702
 110   2.0000      -0.651471       -17.7274
 111   2.0000      -0.644486       -17.5373
 112   2.0000      -0.644205       -17.5297
 113   2.0000      -0.638212       -17.3666
 114   2.0000      -0.637459       -17.3461
 115   2.0000      -0.628002       -17.0888
 116   2.0000      -0.622739       -16.9456
 117   2.0000      -0.621032       -16.8991
 118   2.0000      -0.612915       -16.6783
 119   2.0000      -0.612336       -16.6625
 120   2.0000      -0.611281       -16.6338
 121   2.0000      -0.609725       -16.5915
 122   2.0000      -0.600708       -16.3461
 123   2.0000      -0.587011       -15.9734
 124   2.0000      -0.581681       -15.8284
 125   2.0000      -0.580584       -15.7985
 126   2.0000      -0.579785       -15.7767
 127   2.0000      -0.571969       -15.5641
 128   2.0000      -0.568778       -15.4772
 129   2.0000      -0.559547       -15.2261
 130   2.0000      -0.552378       -15.0310
 131   2.0000      -0.547568       -14.9001
 132   2.0000      -0.542112       -14.7516
 133   2.0000      -0.541991       -14.7483
 134   2.0000      -0.538469       -14.6525
 135   2.0000      -0.535862       -14.5815
 136   2.0000      -0.530053       -14.4235
 137   2.0000      -0.521033       -14.1780
 138   2.0000      -0.516910       -14.0658
 139   2.0000      -0.514518       -14.0008
 140   2.0000      -0.512120       -13.9355
 141   2.0000      -0.510742       -13.8980
 142   2.0000      -0.509141       -13.8544
 143   2.0000      -0.504032       -13.7154
 144   2.0000      -0.502371       -13.6702
 145   2.0000      -0.496549       -13.5118
 146   2.0000      -0.490857       -13.3569
 147   2.0000      -0.482606       -13.1324
 148   2.0000      -0.478621       -13.0239
 149   2.0000      -0.467033       -12.7086
 150   2.0000      -0.466384       -12.6910
 151   2.0000      -0.457046       -12.4369
 152   2.0000      -0.451146       -12.2763
 153   2.0000      -0.444858       -12.1052
 154   2.0000      -0.440066       -11.9748
 155   2.0000      -0.427969       -11.6456
 156   2.0000      -0.418670       -11.3926
 157   2.0000      -0.407733       -11.0950
 158   2.0000      -0.398518       -10.8442
 159   2.0000      -0.388247       -10.5647
 160   2.0000      -0.386033       -10.5045
 161   2.0000      -0.378419       -10.2973
 162   2.0000      -0.370160       -10.0726
 163   2.0000      -0.356673        -9.7056
 164   2.0000      -0.355673        -9.6784
 165   2.0000      -0.341380        -9.2894
 166   2.0000      -0.337643        -9.1877
 167   2.0000      -0.325179        -8.8486
 168   2.0000      -0.322614        -8.7788
 169   2.0000      -0.304862        -8.2957
 170   2.0000      -0.299552        -8.1512
 171   2.0000      -0.285565        -7.7706
 172   2.0000      -0.280235        -7.6256
 173   2.0000      -0.263402        -7.1675
 174   2.0000      -0.241805        -6.5798
 175   2.0000      -0.189958        -5.1690
 176   2.0000      -0.180583        -4.9139
 177   2.0000      -0.077781        -2.1165
 178   2.0000      -0.059078        -1.6076
 179   0.0000       0.028348         0.7714
 180   0.0000       0.065701         1.7878
 181   0.0000       0.090705         2.4682
 182   0.0000       0.107845         2.9346
 183   0.0000       0.112725         3.0674

MULLIKEN ATOMIC CHARGES
-----------------------
   0 C :    0.210490
   1 N :   -0.456205
   2 C :   -0.070058
   3 N :   -0.339053
   4 C :   -0.051218
   5 N :   -0.566164
   6 C :   -0.118103
   7 N :   -0.340572
   8 C :    0.211263
   9 N :   -0.562255
  10 C :    0.119203
  11 N :   -0.438430
  12 C :   -0.074039
  13 N :   -0.429966
  14 C :    0.227437
  15 N :   -0.441003
  16 C :    0.229282
  17 C :   -0.113058
  18 C :   -0.188385
  19 C :    0.220697
  20 C :    0.213270
  21 C :   -0.082282
  22 C :   -0.091060
  23 C :   -0.039800
  24 C :    0.194031
  25 C :    0.114599
  26 C :   -0.086569
  27 C :    0.213953
  28 C :   -0.061418
  29 C :   -0.180840
  30 C :    0.245728
  31 C :    0.229258
  32 C :   -0.061896
  33 C :   -0.061372
  34 C :   -0.051077
  35 C :    0.227151
  36 C :    0.108542
  37 C :   -0.064370
  38 C :    0.231424
  39 C :   -0.057862
  40 C :   -0.181656
  41 C :    0.225745
  42 C :    0.197586
  43 C :   -0.072354
  44 C :   -0.089449
  45 C :   -0.061030
  46 C :    0.211250
  47 C :    0.115371
  48 C :   -0.067188
  49 C :    0.238483
  50 C :   -0.046724
  51 C :   -0.192580
  52 H :    0.037922
  53 H :   -0.017268
  54 H :    0.047128
  55 H :    0.036091
  56 H :    0.049497
  57 H :    0.047185
  58 H :    0.047744
  59 H :   -0.001459
  60 H :    0.049079
  61 H :    0.171221
  62 H :    0.175388
  63 H :    0.055202
  64 H :   -0.014185
  65 H :    0.047296
  66 H :    0.055712
  67 H :    0.062335
  68 H :    0.057244
  69 H :    0.056378
  70 H :   -0.030199
  71 H :    0.044719
  72 H :    0.070641
  73 H :   -0.008161
  74 H :    0.059776
  75 H :    0.070052
  76 H :    0.074335
  77 H :    0.067544
  78 H :    0.066842
  79 H :   -0.016467
  80 H :    0.060675
  81 H :    0.054240
  82 H :   -0.024781
  83 H :    0.042029
  84 H :    0.054202
  85 H :    0.060865
  86 H :    0.055596
  87 H :    0.057157
  88 H :   -0.014661
  89 H :    0.046363
Sum of atomic charges:    0.0000000

LOEWDIN ATOMIC CHARGES
----------------------
   0 C :   -0.020891
   1 N :    0.118487
   2 C :   -0.101597
   3 N :    0.183222
   4 C :   -0.010791
   5 N :   -0.133507
   6 C :   -0.041791
   7 N :    0.175392
   8 C :   -0.021194
   9 N :   -0.140511
  10 C :    0.023660
  11 N :    0.141901
  12 C :   -0.116285
  13 N :    0.165034
  14 C :   -0.023229
  15 N :    0.138761
  16 C :   -0.059635
  17 C :   -0.036657
  18 C :   -0.106239
  19 C :   -0.078457
  20 C :    0.004390
  21 C :   -0.119997
  22 C :    0.036839
  23 C :   -0.014642
  24 C :   -0.012279
  25 C :    0.029802
  26 C :   -0.108540
  27 C :   -0.116028
  28 C :   -0.027485
  29 C :   -0.100086
  30 C :   -0.030279
  31 C :    0.023236
  32 C :   -0.094602
  33 C :    0.079840
  34 C :   -0.015327
  35 C :    0.021700
  36 C :    0.034971
  37 C :   -0.094360
  38 C :   -0.051765
  39 C :   -0.017938
  40 C :   -0.108371
  41 C :   -0.091395
  42 C :   -0.010255
  43 C :   -0.099386
  44 C :    0.033468
  45 C :   -0.027868
  46 C :    0.001647
  47 C :    0.029501
  48 C :   -0.095143
  49 C :   -0.070146
  50 C :   -0.019079
  51 C :   -0.108749
  52 H :    0.023221
  53 H :    0.002789
  54 H :    0.032383
  55 H :    0.022576
  56 H :    0.021905
  57 H :    0.026092
  58 H :    0.027150
  59 H :    0.011124
  60 H :    0.028619
  61 H :    0.060116
  62 H :    0.061810
  63 H :    0.030682
  64 H :    0.003748
  65 H :    0.045955
  66 H :    0.029286
  67 H :    0.028180
  68 H :    0.031631
  69 H :    0.030296
  70 H :   -0.004736
  71 H :    0.043445
  72 H :    0.037396
  73 H :    0.007052
  74 H :    0.050419
  75 H :    0.037050
  76 H :    0.034498
  77 H :    0.035972
  78 H :    0.035657
  79 H :    0.003025
  80 H :    0.050468
  81 H :    0.029030
  82 H :   -0.002691
  83 H :    0.042575
  84 H :    0.029881
  85 H :    0.027378
  86 H :    0.030204
  87 H :    0.031380
  88 H :    0.002302
  89 H :    0.044786

  Mayer bond orders larger than 0.100000
B(  0-C ,  1-N ) :   1.0913 B(  0-C , 17-C ) :   1.7123 B(  0-C , 52-H ) :   0.9649
B(  1-N ,  8-C ) :   1.0929 B(  1-N , 10-C ) :   0.9773 B(  2-C , 12-C ) :   1.4990
B(  2-C , 16-C ) :   1.3631 B(  2-C , 53-H ) :   0.9741 B(  3-N , 14-C ) :   1.2199
B(  3-N , 16-C ) :   1.1859 B(  3-N , 61-H ) :   0.8989 B(  4-C ,  6-C ) :   1.2137
B(  4-C , 17-C ) :   1.2118 B(  4-C , 18-C ) :   1.4538 B(  5-N , 19-C ) :   1.4548
B(  5-N , 27-C ) :   1.3755 B(  6-C ,  8-C ) :   1.7082 B(  6-C , 54-H ) :   0.9382
B(  7-N , 30-C ) :   1.1957 B(  7-N , 38-C ) :   1.1901 B(  7-N , 62-H ) :   0.8968
B(  8-C , 55-H ) :   0.9659 B(  9-N , 41-C ) :   1.3945 B(  9-N , 49-C ) :   1.4251
B( 10-C , 56-H ) :   0.9773 B( 10-C , 57-H ) :   0.9822 B( 10-C , 58-H ) :   0.9843
B( 11-N , 20-C ) :   1.1307 B( 11-N , 24-C ) :   1.1073 B( 11-N , 25-C ) :   0.9602
B( 12-C , 14-C ) :   1.3569 B( 12-C , 59-H ) :   0.9633 B( 13-N , 31-C ) :   1.1595
B( 13-N , 35-C ) :   1.1579 B( 13-N , 36-C ) :   0.9423 B( 14-C , 18-C ) :   1.1250
B( 15-N , 42-C ) :   1.1080 B( 15-N , 46-C ) :   1.1237 B( 15-N , 47-C ) :   0.9613
B( 16-C , 51-C ) :   1.1695 B( 17-C , 60-H ) :   0.9285 B( 18-C , 19-C ) :   1.1269
B( 19-C , 21-C ) :   1.2494 B( 20-C , 28-C ) :   1.6286 B( 20-C , 63-H ) :   0.9703
B( 21-C , 26-C ) :   1.5942 B( 21-C , 64-H ) :   0.9513 B( 22-C , 23-C ) :   1.2890
B( 22-C , 28-C ) :   1.2640 B( 22-C , 29-C ) :   1.2248 B( 23-C , 24-C ) :   1.6203
B( 23-C , 65-H ) :   0.9703 B( 24-C , 66-H ) :   0.9695 B( 25-C , 67-H ) :   0.9760
B( 25-C , 68-H ) :   0.9828 B( 25-C , 69-H ) :   0.9823 B( 26-C , 27-C ) :   1.2511
B( 26-C , 70-H ) :   0.9694 B( 27-C , 29-C ) :   1.2091 B( 28-C , 71-H ) :   0.9720
B( 29-C , 30-C ) :   1.2442 B( 30-C , 32-C ) :   1.2809 B( 31-C , 39-C ) :   1.5900
B( 31-C , 72-H ) :   0.9682 B( 32-C , 37-C ) :   1.5778 B( 32-C , 73-H ) :   0.9786
B( 33-C , 34-C ) :   1.3055 B( 33-C , 39-C ) :   1.3022 B( 33-C , 40-C ) :   1.1797
B( 34-C , 35-C ) :   1.5875 B( 34-C , 74-H ) :   0.9697 B( 35-C , 75-H ) :   0.9682
B( 36-C , 76-H ) :   0.9767 B( 36-C , 77-H ) :   0.9816 B( 36-C , 78-H ) :   0.9824
B( 37-C , 38-C ) :   1.2865 B( 37-C , 79-H ) :   0.9765 B( 38-C , 40-C ) :   1.2324
B( 39-C , 80-H ) :   0.9706 B( 40-C , 41-C ) :   1.2494 B( 41-C , 43-C ) :   1.1856
B( 42-C , 50-C ) :   1.6332 B( 42-C , 81-H ) :   0.9697 B( 43-C , 48-C ) :   1.6671
B( 43-C , 82-H ) :   0.9722 B( 44-C , 45-C ) :   1.2638 B( 44-C , 50-C ) :   1.2721
B( 44-C , 51-C ) :   1.2606 B( 45-C , 46-C ) :   1.6346 B( 45-C , 83-H ) :   0.9718
B( 46-C , 84-H ) :   0.9700 B( 47-C , 85-H ) :   0.9762 B( 47-C , 86-H ) :   0.9829
B( 47-C , 87-H ) :   0.9824 B( 48-C , 49-C ) :   1.1891 B( 48-C , 88-H ) :   0.9748
B( 49-C , 51-C ) :   1.2428 B( 50-C , 89-H ) :   0.9709

MP2 TOTAL ENERGY:    -2130.846601447 Eh
FINAL SINGLE POINT ENERGY     -2130.846601446536

DIPOLE MOMENT
-------------
                                X             Y             Z
Electronic contribution:      2.57780      -4.17910      -0.17747
Nuclear contribution   :      0.07641       0.23864       0.17512
                        -----------------------------------------
Total Dipole Moment    :      2.65421      -3.94046      -0.00235
                        -----------------------------------------
Magnitude (a.u.)       :      4.75101
Magnitude (Debye)      :     12.07610

Rotational constants in cm-1:     0.001501     0.001479     0.000760
Rotational constants in MHz :    44.994998    44.335615    22.791626

                             ****ORCA TERMINATED NORMALLY****
TOTAL RUN TIME: 0 days 1 hours 16 minutes 31 seconds 778 msec
