                         Program Version 5.0.4 -  RELEASE  -
|  1> ! PAL2
|  2> ! mp2 cc-pvdz TightSCF  NoKeepInts
|  3>
|  4> %scf
|  5>   MaxCore 2000
|  6> end
|  7> %mp2
|  8>   MaxCore 2000
|  9> end
| 10> * xyz 0 1
| 11>    C       -3.04800         6.48100         0.29500
| 12>    C        1.47400         4.04100         0.05700
| 13>    C       -2.80200         4.09300         0.04900
| 14>    C       -4.19100         4.02100        -0.14100
| 15>    C       -4.95500         5.17000        -0.10900
| 16>    C       -5.22500         7.59400         0.09900
| 17>    C        0.13200         4.30700         0.06100
| 18>    C       -0.56900         3.05600         0.04700
| 19>    C        1.64900         2.61800         0.02300
| 20>    C       -2.24000         5.36100         0.26700
| 21>    N       -4.38300         6.37700         0.11000
| 22>    N        0.38800         2.06700         0.02500
| 23>    N       -2.01000         0.39500        -0.07500
| 24>    N       -0.38800        -2.07400        -0.02700
| 25>    N        2.01000        -0.40100         0.06500
| 26>    C       -1.96000         2.86100         0.02400
| 27>    C       -2.62300         1.61500        -0.01800
| 28>    C       -5.57300        -4.32900         1.06600
| 29>    C       -4.07300         1.47100         0.05600
| 30>    C       -4.10600        -2.75600        -0.02600
| 31>    C       -4.99500        -2.75700        -1.11100
| 32>    C       -6.13200        -3.54200        -1.07600
| 33>    C       -7.65100        -5.11300         0.04000
| 34>    C       -4.32400         0.14100         0.03700
| 35>    C       -3.02500        -0.52000        -0.04800
| 36>    C       -4.42200        -3.56600         1.07500
| 37>    N       -6.40700        -4.31300         0.00100
| 38>    C       -2.86700        -1.92200        -0.04000
| 39>    C       -1.65000        -2.62400        -0.02700
| 40>    C        3.56800        -6.14200        -1.04000
| 41>    C       -1.47600        -4.04900        -0.03400
| 42>    C        2.80300        -4.09900        -0.00800
| 43>    C        3.65700        -4.38400         1.06900
| 44>    C        4.42700        -5.53000         1.05900
| 45>    C        5.24500        -7.58800         0.01400
| 46>    C       -0.13400        -4.31500        -0.02200
| 47>    C        0.56800        -3.06400        -0.02700
| 48>    C        2.77500        -5.01200        -1.07400
| 49>    N        4.37600        -6.39100         0.01700
| 50>    C        1.95900        -2.86900        -0.00900
| 51>    C        2.62100        -1.62200         0.00900
| 52>    C        5.54300         4.33900        -1.13000
| 53>    C        4.07000        -1.47900        -0.09400
| 54>    C        4.10400         2.75100        -0.02100
| 55>    C        5.02700         2.72900         1.03600
| 56>    C        6.16600         3.50900         0.97800
| 57>    C        7.61900         5.15300        -0.11500
| 58>    C        4.32100        -0.14800        -0.09200
| 59>    C        3.02500         0.51400         0.01500
| 60>    C        4.38700         3.58200        -1.11500
| 61>    C        2.86600         1.91600         0.01300
| 62>    N        6.41300         4.29600        -0.09500
| 63>    H       -2.65900         7.47700         0.47300
| 64>    H        2.27400         4.76600         0.08100
| 65>    H       -4.68200         3.07300        -0.32300
| 66>    H       -6.02700         5.16600        -0.25900
| 67>    H       -5.32800         7.94700        -0.92900
| 68>    H       -6.20300         7.34800         0.51200
| 69>    H       -4.74400         8.35800         0.71000
| 70>    H       -0.33200         5.28200         0.06900
| 71>    H       -1.17600         5.48000         0.43400
| 72>    H        0.18200         1.07200         0.00500
| 73>    H       -0.18300        -1.08000        -0.02100
| 74>    H       -5.86400        -4.96200         1.89500
| 75>    H       -4.79400         2.27200         0.13900
| 76>    H       -4.80000        -2.16000        -1.99400
| 77>    H       -6.84100        -3.58200        -1.89300
| 78>    H       -8.42800        -4.53600         0.54600
| 79>    H       -7.95600        -5.33700        -0.98100
| 80>    H       -7.45600        -6.03700         0.58400
| 81>    H       -5.28700        -0.34400         0.10000
| 82>    H       -3.78000        -3.60100         1.94700
| 83>    H        3.58700        -6.86800        -1.84300
| 84>    H       -2.27600        -4.77400        -0.05000
| 85>    H        3.71400        -3.72400         1.92600
| 86>    H        5.09200        -5.79500         1.87100
| 87>    H        6.20500        -7.32900        -0.43900
| 88>    H        5.39300        -7.91700         1.04200
| 89>    H        4.75900        -8.37300        -0.56400
| 90>    H        0.32900        -5.29000        -0.00800
| 91>    H        2.14600        -4.84200        -1.94000
| 92>    H        5.80800         4.98600        -1.95600
| 93>    H        4.78800        -2.28100        -0.18500
| 94>    H        4.86000         2.11400         1.91200
| 95>    H        6.90100         3.53100         1.77200
| 96>    H        7.38300         6.10900         0.35600
| 97>    H        8.41400         4.65200         0.43500
| 98>    H        7.92100         5.31000        -1.15000
| 99>    H        5.28300         0.33600        -0.17900
|100>    H        3.72000         3.63200        -1.96700
|101> *
|102>
|103>                          ****END OF INPUT****

CARTESIAN COORDINATES (ANGSTROEM)
---------------------------------
  C     -3.048000    6.481000    0.295000
  C      1.474000    4.041000    0.057000
  C     -2.802000    4.093000    0.049000
  C     -4.191000    4.021000   -0.141000
  C     -4.955000    5.170000   -0.109000
  C     -5.225000    7.594000    0.099000
  C      0.132000    4.307000    0.061000
  C     -0.569000    3.056000    0.047000
  C      1.649000    2.618000    0.023000
  C     -2.240000    5.361000    0.267000
  N     -4.383000    6.377000    0.110000
  N      0.388000    2.067000    0.025000
  N     -2.010000    0.395000   -0.075000
  N     -0.388000   -2.074000   -0.027000
  N      2.010000   -0.401000    0.065000
  C     -1.960000    2.861000    0.024000
  C     -2.623000    1.615000   -0.018000
  C     -5.573000   -4.329000    1.066000
  C     -4.073000    1.471000    0.056000
  C     -4.106000   -2.756000   -0.026000
  C     -4.995000   -2.757000   -1.111000
  C     -6.132000   -3.542000   -1.076000
  C     -7.651000   -5.113000    0.040000
  C     -4.324000    0.141000    0.037000
  C     -3.025000   -0.520000   -0.048000
  C     -4.422000   -3.566000    1.075000
  N     -6.407000   -4.313000    0.001000
  C     -2.867000   -1.922000   -0.040000
  C     -1.650000   -2.624000   -0.027000
  C      3.568000   -6.142000   -1.040000
  C     -1.476000   -4.049000   -0.034000
  C      2.803000   -4.099000   -0.008000
  C      3.657000   -4.384000    1.069000
  C      4.427000   -5.530000    1.059000
  C      5.245000   -7.588000    0.014000
  C     -0.134000   -4.315000   -0.022000
  C      0.568000   -3.064000   -0.027000
  C      2.775000   -5.012000   -1.074000
  N      4.376000   -6.391000    0.017000
  C      1.959000   -2.869000   -0.009000
  C      2.621000   -1.622000    0.009000
  C      5.543000    4.339000   -1.130000
  C      4.070000   -1.479000   -0.094000
  C      4.104000    2.751000   -0.021000
  C      5.027000    2.729000    1.036000
  C      6.166000    3.509000    0.978000
  C      7.619000    5.153000   -0.115000
  C      4.321000   -0.148000   -0.092000
  C      3.025000    0.514000    0.015000
  C      4.387000    3.582000   -1.115000
  C      2.866000    1.916000    0.013000
  N      6.413000    4.296000   -0.095000
  H     -2.659000    7.477000    0.473000
  H      2.274000    4.766000    0.081000
  H     -4.682000    3.073000   -0.323000
  H     -6.027000    5.166000   -0.259000
  H     -5.328000    7.947000   -0.929000
  H     -6.203000    7.348000    0.512000
  H     -4.744000    8.358000    0.710000
  H     -0.332000    5.282000    0.069000
  H     -1.176000    5.480000    0.434000
  H      0.182000    1.072000    0.005000
  H     -0.183000   -1.080000   -0.021000
  H     -5.864000   -4.962000    1.895000
  H     -4.794000    2.272000    0.139000
  H     -4.800000   -2.160000   -1.994000
  H     -6.841000   -3.582000   -1.893000
  H     -8.428000   -4.536000    0.546000
  H     -7.956000   -5.337000   -0.981000
  H     -7.456000   -6.037000    0.584000
  H     -5.287000   -0.344000    0.100000
  H     -3.780000   -3.601000    1.947000
  H      3.587000   -6.868000   -1.843000
  H     -2.276000   -4.774000   -0.050000
  H      3.714000   -3.724000    1.926000
  H      5.092000   -5.795000    1.871000
  H      6.205000   -7.329000   -0.439000
  H      5.393000   -7.917000    1.042000
  H      4.759000   -8.373000   -0.564000
  H      0.329000   -5.290000   -0.008000
  H      2.146000   -4.842000   -1.940000
  H      5.808000    4.986000   -1.956000
  H      4.788000   -2.281000   -0.185000
  H      4.860000    2.114000    1.912000
  H      6.901000    3.531000    1.772000
  H      7.383000    6.109000    0.356000
  H      8.414000    4.652000    0.435000
  H      7.921000    5.310000   -1.150000
  H      5.283000    0.336000   -0.179000
  H      3.720000    3.632000   -1.967000

 Total Charge           Charge          ....    0
 Multiplicity           Mult            ....    1
 Number of Electrons    NEL             ....  358
 Basis Dimension        Dim             ....  918

ORBITAL ENERGIES
----------------

  NO   OCC          E(Eh)            E(eV)
   0   2.0000     -15.680601      -426.6909
   1   2.0000     -15.634331      -425.4318
   2   2.0000     -15.631723      -425.3608
   3   2.0000     -15.587309      -424.1522
   4   2.0000     -15.525297      -422.4648
   5   2.0000     -15.515348      -422.1941
   6   2.0000     -15.453894      -420.5218
   7   2.0000     -15.439848      -420.1396
   8   2.0000     -11.330111      -308.3080
   9   2.0000     -11.329011      -308.2781
  10   2.0000     -11.328428      -308.2622
  11   2.0000     -11.299543      -307.4762
  12   2.0000     -11.298296      -307.4423
  13   2.0000     -11.293322      -307.3069
  14   2.0000     -11.291185      -307.2488
  15   2.0000     -11.286879      -307.1316
  16   2.0000     -11.286363      -307.1175
  17   2.0000     -11.282805      -307.0207
  18   2.0000     -11.269253      -306.6520
  19   2.0000     -11.263929      -306.5071
  20   2.0000     -11.262932      -306.4800
  21   2.0000     -11.251182      -306.1602
  22   2.0000     -11.247432      -306.0582
  23   2.0000     -11.238107      -305.8044
  24   2.0000     -11.236510      -305.7610
  25   2.0000     -11.231386      -305.6215
  26   2.0000     -11.230724      -305.6035
  27   2.0000     -11.229655      -305.5744
  28   2.0000     -11.229378      -305.5669
  29   2.0000     -11.211420      -305.0783
  30   2.0000     -11.210023      -305.0402
  31   2.0000     -11.193199      -304.5824
  32   2.0000     -11.191837      -304.5454
  33   2.0000     -11.191309      -304.5310
  34   2.0000     -11.188563      -304.4563
  35   2.0000     -11.188004      -304.4411
  36   2.0000     -11.187125      -304.4171
  37   2.0000     -11.175171      -304.0919
  38   2.0000     -11.173309      -304.0412
  39   2.0000     -11.172464      -304.0182
  40   2.0000     -11.170526      -303.9655
  41   2.0000     -11.169860      -303.9473
  42   2.0000     -11.168805      -303.9186
  43   2.0000     -11.162105      -303.7363
  44   2.0000     -11.160529      -303.6934
  45   2.0000     -11.156731      -303.5901
  46   2.0000     -11.156593      -303.5863
  47   2.0000     -11.151711      -303.4535
  48   2.0000     -11.146472      -303.3109
  49   2.0000     -11.134940      -302.9971
  50   2.0000     -11.129437      -302.8474
  51   2.0000     -11.116724      -302.5015
  52   2.0000      -1.361064       -37.0364
  53   2.0000      -1.321529       -35.9606
  54   2.0000      -1.319521       -35.9060
  55   2.0000      -1.279824       -34.8258
  56   2.0000      -1.226489       -33.3745
  57   2.0000      -1.210105       -32.9286
  58   2.0000      -1.173599       -31.9353
  59   2.0000      -1.150790       -31.3146
  60   2.0000      -1.144216       -31.1357
  61   2.0000      -1.110514       -30.2186
  62   2.0000      -1.108876       -30.1740
  63   2.0000      -1.082706       -29.4619
  64   2.0000      -1.076508       -29.2933
  65   2.0000      -1.045705       -28.4551
  66   2.0000      -1.044163       -28.4131
  67   2.0000      -1.041547       -28.3419
  68   2.0000      -1.015090       -27.6220
  69   2.0000      -1.013253       -27.5720
  70   2.0000      -1.008844       -27.4520
  71   2.0000      -0.993896       -27.0453
  72   2.0000      -0.985405       -26.8142
  73   2.0000      -0.982082       -26.7238
  74   2.0000      -0.973230       -26.4829
  75   2.0000      -0.962144       -26.1813
  76   2.0000      -0.954756       -25.9802
  77   2.0000      -0.945844       -25.7377
  78   2.0000      -0.937894       -25.5214
  79   2.0000      -0.916706       -24.9448
  80   2.0000      -0.911117       -24.7928
  81   2.0000      -0.897573       -24.4242
  82   2.0000      -0.877205       -23.8700
  83   2.0000      -0.872635       -23.7456
  84   2.0000      -0.870602       -23.6903
  85   2.0000      -0.860330       -23.4108
  86   2.0000      -0.842641       -22.9294
  87   2.0000      -0.837200       -22.7814
  88   2.0000      -0.828302       -22.5392
  89   2.0000      -0.796452       -21.6726
  90   2.0000      -0.788710       -21.4619
  91   2.0000      -0.767517       -20.8852
  92   2.0000      -0.753462       -20.5028
  93   2.0000      -0.734016       -19.9736
  94   2.0000      -0.727363       -19.7926
  95   2.0000      -0.724784       -19.7224
  96   2.0000      -0.719463       -19.5776
  97   2.0000      -0.717590       -19.5266
  98   2.0000      -0.713166       -19.4062
  99   2.0000      -0.698671       -19.0118
 100   2.0000      -0.697955       -18.9923
 101   2.0000      -0.693044       -18.8587
 102   2.0000      -0.685689       -18.6586
 103   2.0000      -0.684777       -18.6337
 104   2.0000      -0.678984       -18.4761
 105   2.0000      -0.674469       -18.3532
 106   2.0000      -0.672796       -18.3077
 107   2.0000      -0.660264       -17.9667
 108   2.0000      -0.658104       -17.9079
 109   2.0000      -0.653101       -17.7718
 110   2.0000      -0.651885       -17.7387
 111   2.0000      -0.646731       -17.5984
 112   2.0000      -0.645690       -17.5701
 113   2.0000      -0.637815       -17.3558
 114   2.0000      -0.635552       -17.2942
 115   2.0000      -0.628035       -17.0897
 116   2.0000      -0.622724       -16.9452
 117   2.0000      -0.620463       -16.8836
 118   2.0000      -0.613356       -16.6903
 119   2.0000      -0.612575       -16.6690
 120   2.0000      -0.611973       -16.6526
 121   2.0000      -0.611295       -16.6342
 122   2.0000      -0.600855       -16.3501
 123   2.0000      -0.588590       -16.0164
 124   2.0000      -0.581850       -15.8329
 125   2.0000      -0.580840       -15.8055
 126   2.0000      -0.580203       -15.7881
 127   2.0000      -0.571595       -15.5539
 128   2.0000      -0.567430       -15.4406
 129   2.0000      -0.559891       -15.2354
 130   2.0000      -0.554599       -15.0914
 131   2.0000      -0.548241       -14.9184
 132   2.0000      -0.543021       -14.7764
 133   2.0000      -0.540818       -14.7164
 134   2.0000      -0.538807       -14.6617
 135   2.0000      -0.535856       -14.5814
 136   2.0000      -0.531163       -14.4537
 137   2.0000      -0.518206       -14.1011
 138   2.0000      -0.517551       -14.0833
 139   2.0000      -0.514208       -13.9923
 140   2.0000      -0.512324       -13.9410
 141   2.0000      -0.510220       -13.8838
 142   2.0000      -0.508659       -13.8413
 143   2.0000      -0.504463       -13.7271
 144   2.0000      -0.501939       -13.6585
 145   2.0000      -0.495308       -13.4780
 146   2.0000      -0.488988       -13.3060
 147   2.0000      -0.481209       -13.0944
 148   2.0000      -0.476816       -12.9748
 149   2.0000      -0.467961       -12.7339
 150   2.0000      -0.466168       -12.6851
 151   2.0000      -0.456672       -12.4267
 152   2.0000      -0.451540       -12.2870
 153   2.0000      -0.445222       -12.1151
 154   2.0000      -0.438245       -11.9252
 155   2.0000      -0.427451       -11.6315
 156   2.0000      -0.409471       -11.1423
 157   2.0000      -0.394616       -10.7380
 158   2.0000      -0.390683       -10.6310
 159   2.0000      -0.388070       -10.5599
 160   2.0000      -0.379450       -10.3254
 161   2.0000      -0.375215       -10.2101
 162   2.0000      -0.368134       -10.0174
 163   2.0000      -0.356913        -9.7121
 164   2.0000      -0.355761        -9.6808
 165   2.0000      -0.341926        -9.3043
 166   2.0000      -0.337770        -9.1912
 167   2.0000      -0.325023        -8.8443
 168   2.0000      -0.320278        -8.7152
 169   2.0000      -0.305755        -8.3200
 170   2.0000      -0.299271        -8.1436
 171   2.0000      -0.285350        -7.7648
 172   2.0000      -0.278327        -7.5737
 173   2.0000      -0.263486        -7.1698
 174   2.0000      -0.241605        -6.5744
 175   2.0000      -0.190056        -5.1717
 176   2.0000      -0.181249        -4.9320
 177   2.0000      -0.080158        -2.1812
 178   2.0000      -0.059848        -1.6286
 179   0.0000       0.028257         0.7689
 180   0.0000       0.065114         1.7718
 181   0.0000       0.090103         2.4518
 182   0.0000       0.105722         2.8769
 183   0.0000       0.116131         3.1601

MULLIKEN ATOMIC CHARGES
-----------------------
   0 C :    0.225185
   1 N :   -0.456033
   2 C :   -0.076668
   3 N :   -0.341539
   4 C :   -0.079785
   5 N :   -0.568358
   6 C :   -0.108784
   7 N :   -0.341106
   8 C :    0.213991
   9 N :   -0.562358
  10 C :    0.119446
  11 N :   -0.438386
  12 C :   -0.048099
  13 N :   -0.429137
  14 C :    0.210196
  15 N :   -0.440953
  16 C :    0.234680
  17 C :   -0.122718
  18 C :   -0.158479
  19 C :    0.202139
  20 C :    0.214079
  21 C :   -0.054797
  22 C :   -0.089682
  23 C :   -0.039589
  24 C :    0.193517
  25 C :    0.114548
  26 C :   -0.093188
  27 C :    0.215796
  28 C :   -0.061847
  29 C :   -0.183785
  30 C :    0.246385
  31 C :    0.230778
  32 C :   -0.061509
  33 C :   -0.059717
  34 C :   -0.051093
  35 C :    0.228952
  36 C :    0.108101
  37 C :   -0.064229
  38 C :    0.230996
  39 C :   -0.057686
  40 C :   -0.181191
  41 C :    0.225863
  42 C :    0.197348
  43 C :   -0.072572
  44 C :   -0.089819
  45 C :   -0.061813
  46 C :    0.211831
  47 C :    0.115351
  48 C :   -0.066558
  49 C :    0.238362
  50 C :   -0.045927
  51 C :   -0.194517
  52 H :    0.035228
  53 H :   -0.018175
  54 H :    0.044716
  55 H :    0.033119
  56 H :    0.048977
  57 H :    0.048065
  58 H :    0.045967
  59 H :   -0.015348
  60 H :    0.045848
  61 H :    0.171025
  62 H :    0.175627
  63 H :    0.055435
  64 H :   -0.024093
  65 H :    0.046821
  66 H :    0.055612
  67 H :    0.062612
  68 H :    0.057231
  69 H :    0.056402
  70 H :   -0.030077
  71 H :    0.044948
  72 H :    0.071733
  73 H :   -0.007853
  74 H :    0.060805
  75 H :    0.071181
  76 H :    0.075335
  77 H :    0.068286
  78 H :    0.067574
  79 H :   -0.016662
  80 H :    0.061704
  81 H :    0.054532
  82 H :   -0.025055
  83 H :    0.041798
  84 H :    0.054196
  85 H :    0.060930
  86 H :    0.055511
  87 H :    0.057312
  88 H :   -0.014304
  89 H :    0.047414
Sum of atomic charges:   -0.0000000

LOEWDIN ATOMIC CHARGES
----------------------
   0 C :   -0.016996
   1 N :    0.121116
   2 C :   -0.101127
   3 N :    0.182543
   4 C :   -0.012526
   5 N :   -0.133845
   6 C :   -0.024398
   7 N :    0.174931
   8 C :   -0.023875
   9 N :   -0.140673
  10 C :    0.023013
  11 N :    0.142066
  12 C :   -0.101524
  13 N :    0.166927
  14 C :   -0.016798
  15 N :    0.138853
  16 C :   -0.060544
  17 C :   -0.033233
  18 C :   -0.111795
  19 C :   -0.074195
  20 C :    0.005164
  21 C :   -0.109135
  22 C :    0.037715
  23 C :   -0.014509
  24 C :   -0.012684
  25 C :    0.029846
  26 C :   -0.108762
  27 C :   -0.117405
  28 C :   -0.027605
  29 C :   -0.099325
  30 C :   -0.029541
  31 C :    0.025001
  32 C :   -0.094109
  33 C :    0.083147
  34 C :   -0.014959
  35 C :    0.023735
  36 C :    0.035390
  37 C :   -0.093814
  38 C :   -0.052316
  39 C :   -0.017456
  40 C :   -0.108644
  41 C :   -0.091491
  42 C :   -0.010457
  43 C :   -0.099203
  44 C :    0.033769
  45 C :   -0.028506
  46 C :    0.002179
  47 C :    0.029520
  48 C :   -0.094737
  49 C :   -0.068805
  50 C :   -0.018393
  51 C :   -0.109052
  52 H :    0.022473
  53 H :    0.002350
  54 H :    0.000716
  55 H :    0.021782
  56 H :    0.021632
  57 H :    0.026448
  58 H :    0.026511
  59 H :    0.004235
  60 H :    0.000866
  61 H :    0.060176
  62 H :    0.061943
  63 H :    0.030815
  64 H :    0.003466
  65 H :    0.045797
  66 H :    0.029224
  67 H :    0.028309
  68 H :    0.031626
  69 H :    0.030317
  70 H :   -0.004885
  71 H :    0.043543
  72 H :    0.037913
  73 H :    0.007208
  74 H :    0.050860
  75 H :    0.037598
  76 H :    0.035017
  77 H :    0.036322
  78 H :    0.036001
  79 H :    0.002933
  80 H :    0.050920
  81 H :    0.029145
  82 H :   -0.002834
  83 H :    0.042427
  84 H :    0.029900
  85 H :    0.027416
  86 H :    0.030167
  87 H :    0.031452
  88 H :    0.002480
  89 H :    0.045249

  Mayer bond orders larger than 0.100000
B(  0-C ,  1-N ) :   1.1023 B(  0-C , 17-C ) :   1.7185 B(  0-C , 52-H ) :   0.9610
B(  1-N ,  8-C ) :   1.0881 B(  1-N , 10-C ) :   0.9778 B(  2-C , 12-C ) :   1.4849
B(  2-C , 16-C ) :   1.3750 B(  2-C , 53-H ) :   0.9725 B(  3-N , 14-C ) :   1.2225
B(  3-N , 16-C ) :   1.1804 B(  3-N , 61-H ) :   0.8985 B(  4-C ,  6-C ) :   1.2195
B(  4-C , 17-C ) :   1.2207 B(  4-C , 18-C ) :   1.4798 B(  5-N , 19-C ) :   1.4589
B(  5-N , 27-C ) :   1.3699 B(  6-C ,  8-C ) :   1.7255 B(  6-C , 54-H ) :   0.8751
B(  7-N , 30-C ) :   1.1951 B(  7-N , 38-C ) :   1.1893 B(  7-N , 62-H ) :   0.8967
B(  8-C , 55-H ) :   0.9619 B(  9-N , 41-C ) :   1.3937 B(  9-N , 49-C ) :   1.4259
B( 10-C , 56-H ) :   0.9776 B( 10-C , 57-H ) :   0.9829 B( 10-C , 58-H ) :   0.9835
B( 11-N , 20-C ) :   1.1316 B( 11-N , 24-C ) :   1.1070 B( 11-N , 25-C ) :   0.9601
B( 12-C , 14-C ) :   1.3601 B( 12-C , 59-H ) :   0.9253 B( 13-N , 31-C ) :   1.1626
B( 13-N , 35-C ) :   1.1613 B( 13-N , 36-C ) :   0.9409 B( 14-C , 18-C ) :   1.1158
B( 15-N , 42-C ) :   1.1076 B( 15-N , 46-C ) :   1.1248 B( 15-N , 47-C ) :   0.9612
B( 16-C , 51-C ) :   1.1669 B( 17-C , 60-H ) :   0.8848 B( 18-C , 19-C ) :   1.1130
B( 19-C , 21-C ) :   1.2541 B( 20-C , 28-C ) :   1.6284 B( 20-C , 63-H ) :   0.9702
B( 21-C , 26-C ) :   1.5789 B( 21-C , 64-H ) :   0.9178 B( 22-C , 23-C ) :   1.2899
B( 22-C , 28-C ) :   1.2640 B( 22-C , 29-C ) :   1.2266 B( 23-C , 24-C ) :   1.6197
B( 23-C , 65-H ) :   0.9703 B( 24-C , 66-H ) :   0.9695 B( 25-C , 67-H ) :   0.9761
B( 25-C , 68-H ) :   0.9828 B( 25-C , 69-H ) :   0.9823 B( 26-C , 27-C ) :   1.2633
B( 26-C , 70-H ) :   0.9664 B( 27-C , 29-C ) :   1.2045 B( 28-C , 71-H ) :   0.9720
B( 29-C , 30-C ) :   1.2483 B( 30-C , 32-C ) :   1.2774 B( 31-C , 39-C ) :   1.5866
B( 31-C , 72-H ) :   0.9681 B( 32-C , 37-C ) :   1.5814 B( 32-C , 73-H ) :   0.9786
B( 33-C , 34-C ) :   1.3079 B( 33-C , 39-C ) :   1.3049 B( 33-C , 40-C ) :   1.1741
B( 34-C , 35-C ) :   1.5842 B( 34-C , 74-H ) :   0.9696 B( 35-C , 75-H ) :   0.9681
B( 36-C , 76-H ) :   0.9768 B( 36-C , 77-H ) :   0.9815 B( 36-C , 78-H ) :   0.9823
B( 37-C , 38-C ) :   1.2836 B( 37-C , 79-H ) :   0.9764 B( 38-C , 40-C ) :   1.2352
B( 39-C , 80-H ) :   0.9705 B( 40-C , 41-C ) :   1.2511 B( 41-C , 43-C ) :   1.1841
B( 42-C , 50-C ) :   1.6332 B( 42-C , 81-H ) :   0.9696 B( 43-C , 48-C ) :   1.6688
B( 43-C , 82-H ) :   0.9720 B( 44-C , 45-C ) :   1.2632 B( 44-C , 50-C ) :   1.2724
B( 44-C , 51-C ) :   1.2610 B( 45-C , 46-C ) :   1.6346 B( 45-C , 83-H ) :   0.9719
B( 46-C , 84-H ) :   0.9700 B( 47-C , 85-H ) :   0.9762 B( 47-C , 86-H ) :   0.9829
B( 47-C , 87-H ) :   0.9824 B( 48-C , 49-C ) :   1.1875 B( 48-C , 88-H ) :   0.9749
B( 49-C , 51-C ) :   1.2458 B( 50-C , 89-H ) :   0.9708

MP2 TOTAL ENERGY:    -2130.781882346 Eh
FINAL SINGLE POINT ENERGY     -2130.781882346421

DIPOLE MOMENT
-------------
                                X             Y             Z
Electronic contribution:      2.87552      -4.40083      -0.07705
Nuclear contribution   :     -0.02762       0.16967       0.09037
                        -----------------------------------------
Total Dipole Moment    :      2.84790      -4.23116       0.01332
                        -----------------------------------------
Magnitude (a.u.)       :      5.10034
Magnitude (Debye)      :     12.96403

Rotational constants in cm-1:     0.001503     0.001478     0.000760
Rotational constants in MHz :    45.072354    44.294584    22.782908

                             ****ORCA TERMINATED NORMALLY****
TOTAL RUN TIME: 0 days 1 hours 4 minutes 44 seconds 999 msec
