                         Program Version 5.0.4 -  RELEASE  -
|  1> ! PAL2
|  2> ! mp2 cc-pvdz TightSCF  NoKeepInts
|  3>
|  4> %scf
|  5>   MaxCore 2000
|  6> end
|  7> %mp2
|  8>   MaxCore 2000
|  9> end
| 10> * xyz 0 1
| 11>    C       -4.86700         5.23300         0.56100
| 12>    C        1.47400         4.04100         0.05700
| 13>    C       -2.80200         4.09300         0.04900
| 14>    C       -2.31300         5.31100        -0.44800
| 15>    C       -3.10700         6.44000        -0.42100
| 16>    C       -5.17700         7.62600         0.12300
| 17>    C        0.13200         4.30700         0.06100
| 18>    C       -0.56900         3.05600         0.04700
| 19>    C        1.64900         2.61800         0.02300
| 20>    C       -4.10800         4.07800         0.56200
| 21>    N       -4.36500         6.39000         0.07500
| 22>    N        0.38800         2.06700         0.02500
| 23>    N       -2.01000         0.39500        -0.07500
| 24>    N       -0.38800        -2.07400        -0.02700
| 25>    N        2.01000        -0.40100         0.06500
| 26>    C       -1.96000         2.86100         0.02400
| 27>    C       -2.62300         1.61500        -0.01800
| 28>    C       -5.57300        -4.32900         1.06600
| 29>    C       -4.07300         1.47100         0.05600
| 30>    C       -4.10600        -2.75600        -0.02600
| 31>    C       -4.99500        -2.75700        -1.11100
| 32>    C       -6.13200        -3.54200        -1.07600
| 33>    C       -7.65100        -5.11300         0.04000
| 34>    C       -4.32400         0.14100         0.03700
| 35>    C       -3.02500        -0.52000        -0.04800
| 36>    C       -4.42200        -3.56600         1.07500
| 37>    N       -6.40700        -4.31300         0.00100
| 38>    C       -2.86700        -1.92200        -0.04000
| 39>    C       -1.65000        -2.62400        -0.02700
| 40>    C        3.56800        -6.14200        -1.04000
| 41>    C       -1.47600        -4.04900        -0.03400
| 42>    C        2.80300        -4.09900        -0.00800
| 43>    C        3.65700        -4.38400         1.06900
| 44>    C        4.42700        -5.53000         1.05900
| 45>    C        5.24500        -7.58800         0.01400
| 46>    C       -0.13400        -4.31500        -0.02200
| 47>    C        0.56800        -3.06400        -0.02700
| 48>    C        2.77500        -5.01200        -1.07400
| 49>    N        4.37600        -6.39100         0.01700
| 50>    C        1.95900        -2.86900        -0.00900
| 51>    C        2.62100        -1.62200         0.00900
| 52>    C        5.54300         4.33900        -1.13000
| 53>    C        4.07000        -1.47900        -0.09400
| 54>    C        4.10400         2.75100        -0.02100
| 55>    C        5.02700         2.72900         1.03600
| 56>    C        6.16600         3.50900         0.97800
| 57>    C        7.61900         5.15300        -0.11500
| 58>    C        4.32100        -0.14800        -0.09200
| 59>    C        3.02500         0.51400         0.01500
| 60>    C        4.38700         3.58200        -1.11500
| 61>    C        2.86600         1.91600         0.01300
| 62>    N        6.41300         4.29600        -0.09500
| 63>    H       -5.88300         5.26400         0.93600
| 64>    H        2.27400         4.76600         0.08100
| 65>    H       -1.30900         5.38900        -0.84800
| 66>    H       -2.77100         7.40200        -0.78400
| 67>    H       -4.94800         8.16700         1.04400
| 68>    H       -4.93400         8.24100        -0.74300
| 69>    H       -6.23200         7.35300         0.10300
| 70>    H       -0.33200         5.28200         0.06900
| 71>    H       -4.54800         3.16500         0.94700
| 72>    H        0.18200         1.07200         0.00500
| 73>    H       -0.18300        -1.08000        -0.02100
| 74>    H       -5.86400        -4.96200         1.89500
| 75>    H       -4.79400         2.27200         0.13900
| 76>    H       -4.80000        -2.16000        -1.99400
| 77>    H       -6.84100        -3.58200        -1.89300
| 78>    H       -8.42800        -4.53600         0.54600
| 79>    H       -7.95600        -5.33700        -0.98100
| 80>    H       -7.45600        -6.03700         0.58400
| 81>    H       -5.28700        -0.34400         0.10000
| 82>    H       -3.78000        -3.60100         1.94700
| 83>    H        3.58700        -6.86800        -1.84300
| 84>    H       -2.27600        -4.77400        -0.05000
| 85>    H        3.71400        -3.72400         1.92600
| 86>    H        5.09200        -5.79500         1.87100
| 87>    H        6.20500        -7.32900        -0.43900
| 88>    H        5.39300        -7.91700         1.04200
| 89>    H        4.75900        -8.37300        -0.56400
| 90>    H        0.32900        -5.29000        -0.00800
| 91>    H        2.14600        -4.84200        -1.94000
| 92>    H        5.80800         4.98600        -1.95600
| 93>    H        4.78800        -2.28100        -0.18500
| 94>    H        4.86000         2.11400         1.91200
| 95>    H        6.90100         3.53100         1.77200
| 96>    H        7.38300         6.10900         0.35600
| 97>    H        8.41400         4.65200         0.43500
| 98>    H        7.92100         5.31000        -1.15000
| 99>    H        5.28300         0.33600        -0.17900
|100>    H        3.72000         3.63200        -1.96700
|101> *
|102>
|103>                          ****END OF INPUT****

CARTESIAN COORDINATES (ANGSTROEM)
---------------------------------
  C     -4.867000    5.233000    0.561000
  C      1.474000    4.041000    0.057000
  C     -2.802000    4.093000    0.049000
  C     -2.313000    5.311000   -0.448000
  C     -3.107000    6.440000   -0.421000
  C     -5.177000    7.626000    0.123000
  C      0.132000    4.307000    0.061000
  C     -0.569000    3.056000    0.047000
  C      1.649000    2.618000    0.023000
  C     -4.108000    4.078000    0.562000
  N     -4.365000    6.390000    0.075000
  N      0.388000    2.067000    0.025000
  N     -2.010000    0.395000   -0.075000
  N     -0.388000   -2.074000   -0.027000
  N      2.010000   -0.401000    0.065000
  C     -1.960000    2.861000    0.024000
  C     -2.623000    1.615000   -0.018000
  C     -5.573000   -4.329000    1.066000
  C     -4.073000    1.471000    0.056000
  C     -4.106000   -2.756000   -0.026000
  C     -4.995000   -2.757000   -1.111000
  C     -6.132000   -3.542000   -1.076000
  C     -7.651000   -5.113000    0.040000
  C     -4.324000    0.141000    0.037000
  C     -3.025000   -0.520000   -0.048000
  C     -4.422000   -3.566000    1.075000
  N     -6.407000   -4.313000    0.001000
  C     -2.867000   -1.922000   -0.040000
  C     -1.650000   -2.624000   -0.027000
  C      3.568000   -6.142000   -1.040000
  C     -1.476000   -4.049000   -0.034000
  C      2.803000   -4.099000   -0.008000
  C      3.657000   -4.384000    1.069000
  C      4.427000   -5.530000    1.059000
  C      5.245000   -7.588000    0.014000
  C     -0.134000   -4.315000   -0.022000
  C      0.568000   -3.064000   -0.027000
  C      2.775000   -5.012000   -1.074000
  N      4.376000   -6.391000    0.017000
  C      1.959000   -2.869000   -0.009000
  C      2.621000   -1.622000    0.009000
  C      5.543000    4.339000   -1.130000
  C      4.070000   -1.479000   -0.094000
  C      4.104000    2.751000   -0.021000
  C      5.027000    2.729000    1.036000
  C      6.166000    3.509000    0.978000
  C      7.619000    5.153000   -0.115000
  C      4.321000   -0.148000   -0.092000
  C      3.025000    0.514000    0.015000
  C      4.387000    3.582000   -1.115000
  C      2.866000    1.916000    0.013000
  N      6.413000    4.296000   -0.095000
  H     -5.883000    5.264000    0.936000
  H      2.274000    4.766000    0.081000
  H     -1.309000    5.389000   -0.848000
  H     -2.771000    7.402000   -0.784000
  H     -4.948000    8.167000    1.044000
  H     -4.934000    8.241000   -0.743000
  H     -6.232000    7.353000    0.103000
  H     -0.332000    5.282000    0.069000
  H     -4.548000    3.165000    0.947000
  H      0.182000    1.072000    0.005000
  H     -0.183000   -1.080000   -0.021000
  H     -5.864000   -4.962000    1.895000
  H     -4.794000    2.272000    0.139000
  H     -4.800000   -2.160000   -1.994000
  H     -6.841000   -3.582000   -1.893000
  H     -8.428000   -4.536000    0.546000
  H     -7.956000   -5.337000   -0.981000
  H     -7.456000   -6.037000    0.584000
  H     -5.287000   -0.344000    0.100000
  H     -3.780000   -3.601000    1.947000
  H      3.587000   -6.868000   -1.843000
  H     -2.276000   -4.774000   -0.050000
  H      3.714000   -3.724000    1.926000
  H      5.092000   -5.795000    1.871000
  H      6.205000   -7.329000   -0.439000
  H      5.393000   -7.917000    1.042000
  H      4.759000   -8.373000   -0.564000
  H      0.329000   -5.290000   -0.008000
  H      2.146000   -4.842000   -1.940000
  H      5.808000    4.986000   -1.956000
  H      4.788000   -2.281000   -0.185000
  H      4.860000    2.114000    1.912000
  H      6.901000    3.531000    1.772000
  H      7.383000    6.109000    0.356000
  H      8.414000    4.652000    0.435000
  H      7.921000    5.310000   -1.150000
  H      5.283000    0.336000   -0.179000
  H      3.720000    3.632000   -1.967000

 Total Charge           Charge          ....    0
 Multiplicity           Mult            ....    1
 Number of Electrons    NEL             ....  358
 Basis Dimension        Dim             ....  918

ORBITAL ENERGIES
----------------

  NO   OCC          E(Eh)            E(eV)
   0   2.0000     -15.675582      -426.5543
   1   2.0000     -15.634342      -425.4321
   2   2.0000     -15.631164      -425.3456
   3   2.0000     -15.590445      -424.2376
   4   2.0000     -15.524813      -422.4516
   5   2.0000     -15.516054      -422.2133
   6   2.0000     -15.452973      -420.4968
   7   2.0000     -15.440739      -420.1639
   8   2.0000     -11.326029      -308.1969
   9   2.0000     -11.325333      -308.1780
  10   2.0000     -11.324719      -308.1613
  11   2.0000     -11.299554      -307.4765
  12   2.0000     -11.297930      -307.4323
  13   2.0000     -11.293110      -307.3012
  14   2.0000     -11.290370      -307.2266
  15   2.0000     -11.287073      -307.1369
  16   2.0000     -11.286239      -307.1142
  17   2.0000     -11.278106      -306.8929
  18   2.0000     -11.272318      -306.7354
  19   2.0000     -11.260438      -306.4121
  20   2.0000     -11.259466      -306.3856
  21   2.0000     -11.254227      -306.2431
  22   2.0000     -11.253977      -306.2363
  23   2.0000     -11.238028      -305.8023
  24   2.0000     -11.235952      -305.7458
  25   2.0000     -11.231454      -305.6234
  26   2.0000     -11.230651      -305.6016
  27   2.0000     -11.229262      -305.5638
  28   2.0000     -11.229152      -305.5607
  29   2.0000     -11.210194      -305.0449
  30   2.0000     -11.208890      -305.0094
  31   2.0000     -11.198277      -304.7206
  32   2.0000     -11.190500      -304.5090
  33   2.0000     -11.189726      -304.4879
  34   2.0000     -11.189142      -304.4720
  35   2.0000     -11.188926      -304.4662
  36   2.0000     -11.186757      -304.4071
  37   2.0000     -11.185600      -304.3757
  38   2.0000     -11.185539      -304.3740
  39   2.0000     -11.173271      -304.0402
  40   2.0000     -11.172410      -304.0167
  41   2.0000     -11.170360      -303.9609
  42   2.0000     -11.167639      -303.8869
  43   2.0000     -11.160746      -303.6994
  44   2.0000     -11.160061      -303.6807
  45   2.0000     -11.158152      -303.6287
  46   2.0000     -11.156191      -303.5754
  47   2.0000     -11.155168      -303.5476
  48   2.0000     -11.147743      -303.3455
  49   2.0000     -11.138217      -303.0863
  50   2.0000     -11.131246      -302.8966
  51   2.0000     -11.120369      -302.6006
  52   2.0000      -1.356804       -36.9205
  53   2.0000      -1.321537       -35.9609
  54   2.0000      -1.319039       -35.8929
  55   2.0000      -1.284183       -34.9444
  56   2.0000      -1.225553       -33.3490
  57   2.0000      -1.210523       -32.9400
  58   2.0000      -1.172170       -31.8964
  59   2.0000      -1.151497       -31.3338
  60   2.0000      -1.140669       -31.0392
  61   2.0000      -1.110456       -30.2170
  62   2.0000      -1.108514       -30.1642
  63   2.0000      -1.079914       -29.3860
  64   2.0000      -1.078761       -29.3546
  65   2.0000      -1.045701       -28.4550
  66   2.0000      -1.043746       -28.4018
  67   2.0000      -1.039126       -28.2760
  68   2.0000      -1.014605       -27.6088
  69   2.0000      -1.013583       -27.5810
  70   2.0000      -1.009536       -27.4709
  71   2.0000      -0.992946       -27.0194
  72   2.0000      -0.986589       -26.8464
  73   2.0000      -0.980407       -26.6782
  74   2.0000      -0.972439       -26.4614
  75   2.0000      -0.961196       -26.1555
  76   2.0000      -0.953614       -25.9491
  77   2.0000      -0.946240       -25.7485
  78   2.0000      -0.935238       -25.4491
  79   2.0000      -0.918691       -24.9988
  80   2.0000      -0.907533       -24.6952
  81   2.0000      -0.894569       -24.3425
  82   2.0000      -0.874971       -23.8092
  83   2.0000      -0.872062       -23.7300
  84   2.0000      -0.869369       -23.6567
  85   2.0000      -0.857467       -23.3329
  86   2.0000      -0.841553       -22.8998
  87   2.0000      -0.835856       -22.7448
  88   2.0000      -0.824822       -22.4446
  89   2.0000      -0.797525       -21.7018
  90   2.0000      -0.791015       -21.5246
  91   2.0000      -0.751704       -20.4549
  92   2.0000      -0.745800       -20.2942
  93   2.0000      -0.733022       -19.9465
  94   2.0000      -0.724842       -19.7240
  95   2.0000      -0.722138       -19.6504
  96   2.0000      -0.716503       -19.4970
  97   2.0000      -0.712859       -19.3979
  98   2.0000      -0.708350       -19.2752
  99   2.0000      -0.697111       -18.9694
 100   2.0000      -0.696275       -18.9466
 101   2.0000      -0.685646       -18.6574
 102   2.0000      -0.681855       -18.5542
 103   2.0000      -0.681465       -18.5436
 104   2.0000      -0.678439       -18.4613
 105   2.0000      -0.673585       -18.3292
 106   2.0000      -0.670308       -18.2400
 107   2.0000      -0.660676       -17.9779
 108   2.0000      -0.656746       -17.8710
 109   2.0000      -0.653304       -17.7773
 110   2.0000      -0.651074       -17.7166
 111   2.0000      -0.643828       -17.5195
 112   2.0000      -0.643063       -17.4986
 113   2.0000      -0.639284       -17.3958
 114   2.0000      -0.637605       -17.3501
 115   2.0000      -0.627869       -17.0852
 116   2.0000      -0.623777       -16.9738
 117   2.0000      -0.620126       -16.8745
 118   2.0000      -0.612861       -16.6768
 119   2.0000      -0.612460       -16.6659
 120   2.0000      -0.610982       -16.6257
 121   2.0000      -0.608679       -16.5630
 122   2.0000      -0.600556       -16.3420
 123   2.0000      -0.586785       -15.9672
 124   2.0000      -0.581925       -15.8350
 125   2.0000      -0.580398       -15.7934
 126   2.0000      -0.579684       -15.7740
 127   2.0000      -0.573378       -15.6024
 128   2.0000      -0.568127       -15.4595
 129   2.0000      -0.559341       -15.2204
 130   2.0000      -0.551705       -15.0127
 131   2.0000      -0.547473       -14.8975
 132   2.0000      -0.542258       -14.7556
 133   2.0000      -0.541493       -14.7348
 134   2.0000      -0.538424       -14.6513
 135   2.0000      -0.535664       -14.5762
 136   2.0000      -0.529325       -14.4037
 137   2.0000      -0.522043       -14.2055
 138   2.0000      -0.516906       -14.0657
 139   2.0000      -0.514119       -13.9899
 140   2.0000      -0.512083       -13.9345
 141   2.0000      -0.511082       -13.9073
 142   2.0000      -0.509251       -13.8574
 143   2.0000      -0.503850       -13.7104
 144   2.0000      -0.502210       -13.6658
 145   2.0000      -0.496875       -13.5207
 146   2.0000      -0.491869       -13.3844
 147   2.0000      -0.483144       -13.1470
 148   2.0000      -0.479154       -13.0384
 149   2.0000      -0.466712       -12.6999
 150   2.0000      -0.466353       -12.6901
 151   2.0000      -0.457090       -12.4381
 152   2.0000      -0.450799       -12.2669
 153   2.0000      -0.445009       -12.1093
 154   2.0000      -0.440818       -11.9953
 155   2.0000      -0.428523       -11.6607
 156   2.0000      -0.424738       -11.5577
 157   2.0000      -0.409198       -11.1348
 158   2.0000      -0.403747       -10.9865
 159   2.0000      -0.388530       -10.5724
 160   2.0000      -0.384908       -10.4739
 161   2.0000      -0.378360       -10.2957
 162   2.0000      -0.370245       -10.0749
 163   2.0000      -0.356874        -9.7110
 164   2.0000      -0.355422        -9.6715
 165   2.0000      -0.340941        -9.2775
 166   2.0000      -0.337573        -9.1858
 167   2.0000      -0.325593        -8.8598
 168   2.0000      -0.323538        -8.8039
 169   2.0000      -0.304514        -8.2862
 170   2.0000      -0.299608        -8.1528
 171   2.0000      -0.285735        -7.7752
 172   2.0000      -0.280972        -7.6456
 173   2.0000      -0.263070        -7.1585
 174   2.0000      -0.242227        -6.5913
 175   2.0000      -0.189911        -5.1677
 176   2.0000      -0.180413        -4.9093
 177   2.0000      -0.076874        -2.0919
 178   2.0000      -0.058753        -1.5988
 179   0.0000       0.028427         0.7735
 180   0.0000       0.066007         1.7961
 181   0.0000       0.090971         2.4755
 182   0.0000       0.108947         2.9646
 183   0.0000       0.111550         3.0354

MULLIKEN ATOMIC CHARGES
-----------------------
   0 C :    0.209226
   1 N :   -0.454679
   2 C :   -0.068219
   3 N :   -0.338228
   4 C :   -0.048546
   5 N :   -0.565385
   6 C :   -0.117780
   7 N :   -0.340394
   8 C :    0.209168
   9 N :   -0.562303
  10 C :    0.118743
  11 N :   -0.438361
  12 C :   -0.078393
  13 N :   -0.430388
  14 C :    0.229831
  15 N :   -0.441065
  16 C :    0.228792
  17 C :   -0.114839
  18 C :   -0.191301
  19 C :    0.223106
  20 C :    0.213104
  21 C :   -0.087726
  22 C :   -0.091042
  23 C :   -0.040093
  24 C :    0.194464
  25 C :    0.114559
  26 C :   -0.084322
  27 C :    0.213544
  28 C :   -0.061101
  29 C :   -0.180552
  30 C :    0.245322
  31 C :    0.228608
  32 C :   -0.061979
  33 C :   -0.062217
  34 C :   -0.050928
  35 C :    0.226097
  36 C :    0.108770
  37 C :   -0.064497
  38 C :    0.231771
  39 C :   -0.058080
  40 C :   -0.181921
  41 C :    0.225490
  42 C :    0.197676
  43 C :   -0.072407
  44 C :   -0.089613
  45 C :   -0.060695
  46 C :    0.210806
  47 C :    0.115416
  48 C :   -0.067490
  49 C :    0.238002
  50 C :   -0.047008
  51 C :   -0.192217
  52 H :    0.039295
  53 H :   -0.016944
  54 H :    0.048670
  55 H :    0.037022
  56 H :    0.049572
  57 H :    0.047541
  58 H :    0.048016
  59 H :    0.000186
  60 H :    0.051089
  61 H :    0.171248
  62 H :    0.175304
  63 H :    0.055295
  64 H :   -0.011062
  65 H :    0.047361
  66 H :    0.055847
  67 H :    0.062370
  68 H :    0.057315
  69 H :    0.056497
  70 H :   -0.029837
  71 H :    0.044860
  72 H :    0.070075
  73 H :   -0.008353
  74 H :    0.059253
  75 H :    0.069456
  76 H :    0.073832
  77 H :    0.067161
  78 H :    0.066446
  79 H :   -0.016318
  80 H :    0.060116
  81 H :    0.054090
  82 H :   -0.024745
  83 H :    0.041992
  84 H :    0.054076
  85 H :    0.060718
  86 H :    0.055566
  87 H :    0.057065
  88 H :   -0.014902
  89 H :    0.046097
Sum of atomic charges:   -0.0000000

LOEWDIN ATOMIC CHARGES
----------------------
   0 C :   -0.020916
   1 N :    0.118603
   2 C :   -0.101576
   3 N :    0.183330
   4 C :   -0.009482
   5 N :   -0.133255
   6 C :   -0.042093
   7 N :    0.175565
   8 C :   -0.021848
   9 N :   -0.140446
  10 C :    0.023712
  11 N :    0.142066
  12 C :   -0.116557
  13 N :    0.164065
  14 C :   -0.025527
  15 N :    0.138588
  16 C :   -0.059151
  17 C :   -0.039453
  18 C :   -0.105010
  19 C :   -0.079775
  20 C :    0.004285
  21 C :   -0.122120
  22 C :    0.036946
  23 C :   -0.014796
  24 C :   -0.011837
  25 C :    0.029841
  26 C :   -0.108198
  27 C :   -0.115412
  28 C :   -0.027229
  29 C :   -0.100192
  30 C :   -0.030966
  31 C :    0.022439
  32 C :   -0.094686
  33 C :    0.078197
  34 C :   -0.015434
  35 C :    0.020537
  36 C :    0.034754
  37 C :   -0.094687
  38 C :   -0.051186
  39 C :   -0.018274
  40 C :   -0.108338
  41 C :   -0.091615
  42 C :   -0.010247
  43 C :   -0.099623
  44 C :    0.033124
  45 C :   -0.027680
  46 C :    0.001214
  47 C :    0.029457
  48 C :   -0.095507
  49 C :   -0.070912
  50 C :   -0.019336
  51 C :   -0.108714
  52 H :    0.023720
  53 H :    0.002932
  54 H :    0.036881
  55 H :    0.022885
  56 H :    0.021867
  57 H :    0.026199
  58 H :    0.027424
  59 H :    0.011382
  60 H :    0.035664
  61 H :    0.060107
  62 H :    0.061765
  63 H :    0.030714
  64 H :    0.005085
  65 H :    0.045962
  66 H :    0.029359
  67 H :    0.028201
  68 H :    0.031663
  69 H :    0.030348
  70 H :   -0.004551
  71 H :    0.043518
  72 H :    0.037134
  73 H :    0.006958
  74 H :    0.050204
  75 H :    0.036757
  76 H :    0.034235
  77 H :    0.035791
  78 H :    0.035471
  79 H :    0.003095
  80 H :    0.050217
  81 H :    0.028969
  82 H :   -0.002667
  83 H :    0.042577
  84 H :    0.029812
  85 H :    0.027305
  86 H :    0.030186
  87 H :    0.031336
  88 H :    0.002187
  89 H :    0.044660

  Mayer bond orders larger than 0.100000
B(  0-C ,  1-N ) :   1.0924 B(  0-C , 17-C ) :   1.7081 B(  0-C , 52-H ) :   0.9658
B(  1-N ,  8-C ) :   1.0918 B(  1-N , 10-C ) :   0.9773 B(  2-C , 12-C ) :   1.5026
B(  2-C , 16-C ) :   1.3599 B(  2-C , 53-H ) :   0.9746 B(  3-N , 14-C ) :   1.2193
B(  3-N , 16-C ) :   1.1876 B(  3-N , 61-H ) :   0.8990 B(  4-C ,  6-C ) :   1.2136
B(  4-C , 17-C ) :   1.2124 B(  4-C , 18-C ) :   1.4445 B(  5-N , 19-C ) :   1.4533
B(  5-N , 27-C ) :   1.3773 B(  6-C ,  8-C ) :   1.7057 B(  6-C , 54-H ) :   0.9475
B(  7-N , 30-C ) :   1.1956 B(  7-N , 38-C ) :   1.1908 B(  7-N , 62-H ) :   0.8969
B(  8-C , 55-H ) :   0.9667 B(  9-N , 41-C ) :   1.3949 B(  9-N , 49-C ) :   1.4250
B( 10-C , 56-H ) :   0.9772 B( 10-C , 57-H ) :   0.9822 B( 10-C , 58-H ) :   0.9843
B( 11-N , 20-C ) :   1.1306 B( 11-N , 24-C ) :   1.1079 B( 11-N , 25-C ) :   0.9601
B( 12-C , 14-C ) :   1.3563 B( 12-C , 59-H ) :   0.9687 B( 13-N , 31-C ) :   1.1581
B( 13-N , 35-C ) :   1.1560 B( 13-N , 36-C ) :   0.9430 B( 14-C , 18-C ) :   1.1280
B( 15-N , 42-C ) :   1.1081 B( 15-N , 46-C ) :   1.1231 B( 15-N , 47-C ) :   0.9615
B( 16-C , 51-C ) :   1.1708 B( 17-C , 60-H ) :   0.9410 B( 18-C , 19-C ) :   1.1311
B( 19-C , 21-C ) :   1.2474 B( 20-C , 28-C ) :   1.6283 B( 20-C , 63-H ) :   0.9703
B( 21-C , 26-C ) :   1.6000 B( 21-C , 64-H ) :   0.9596 B( 22-C , 23-C ) :   1.2890
B( 22-C , 28-C ) :   1.2645 B( 22-C , 29-C ) :   1.2242 B( 23-C , 24-C ) :   1.6201
B( 23-C , 65-H ) :   0.9703 B( 24-C , 66-H ) :   0.9695 B( 25-C , 67-H ) :   0.9760
B( 25-C , 68-H ) :   0.9828 B( 25-C , 69-H ) :   0.9823 B( 26-C , 27-C ) :   1.2467
B( 26-C , 70-H ) :   0.9700 B( 27-C , 29-C ) :   1.2112 B( 28-C , 71-H ) :   0.9719
B( 29-C , 30-C ) :   1.2424 B( 30-C , 32-C ) :   1.2824 B( 31-C , 39-C ) :   1.5917
B( 31-C , 72-H ) :   0.9682 B( 32-C , 37-C ) :   1.5764 B( 32-C , 73-H ) :   0.9786
B( 33-C , 34-C ) :   1.3044 B( 33-C , 39-C ) :   1.3007 B( 33-C , 40-C ) :   1.1824
B( 34-C , 35-C ) :   1.5891 B( 34-C , 74-H ) :   0.9697 B( 35-C , 75-H ) :   0.9682
B( 36-C , 76-H ) :   0.9767 B( 36-C , 77-H ) :   0.9816 B( 36-C , 78-H ) :   0.9824
B( 37-C , 38-C ) :   1.2876 B( 37-C , 79-H ) :   0.9766 B( 38-C , 40-C ) :   1.2313
B( 39-C , 80-H ) :   0.9706 B( 40-C , 41-C ) :   1.2482 B( 41-C , 43-C ) :   1.1868
B( 42-C , 50-C ) :   1.6335 B( 42-C , 81-H ) :   0.9697 B( 43-C , 48-C ) :   1.6658
B( 43-C , 82-H ) :   0.9723 B( 44-C , 45-C ) :   1.2639 B( 44-C , 50-C ) :   1.2717
B( 44-C , 51-C ) :   1.2608 B( 45-C , 46-C ) :   1.6349 B( 45-C , 83-H ) :   0.9718
B( 46-C , 84-H ) :   0.9700 B( 47-C , 85-H ) :   0.9762 B( 47-C , 86-H ) :   0.9829
B( 47-C , 87-H ) :   0.9825 B( 48-C , 49-C ) :   1.1902 B( 48-C , 88-H ) :   0.9748
B( 49-C , 51-C ) :   1.2414 B( 50-C , 89-H ) :   0.9710

MP2 TOTAL ENERGY:    -2130.863847255 Eh
FINAL SINGLE POINT ENERGY     -2130.863847255288

DIPOLE MOMENT
-------------
                                X             Y             Z
Electronic contribution:      2.44504      -4.05784      -0.17186
Nuclear contribution   :      0.07600       0.23848       0.17018
                        -----------------------------------------
Total Dipole Moment    :      2.52104      -3.81936      -0.00168
                        -----------------------------------------
Magnitude (a.u.)       :      4.57637
Magnitude (Debye)      :     11.63221

Rotational constants in cm-1:     0.001501     0.001479     0.000760
Rotational constants in MHz :    44.988642    44.327600    22.795374

                             ****ORCA TERMINATED NORMALLY****
TOTAL RUN TIME: 0 days 1 hours 19 minutes 11 seconds 657 msec
