 Gaussian 16, Revision C.01,
 Gaussian 16:  ES64L-G16RevC.01  3-Jul-2019

 ----------------------------------------------------------------------
 # opt hf/6-31g(d) scrf=(smd,solvent=water) nosymm pop=mk geom=connecti
 vity iop(6/33=2,6/42=6)
 ----------------------------------------------------------------------

 ---
 EWV
 ---
 Symbolic Z-matrix:
 Charge =  1 Multiplicity = 1

 SCF Done:  E(RHF) =  -1121.60254212     A.U. after   16 cycles
 SCF Done:  E(RHF) =  -1121.61052129     A.U. after   13 cycles
 SCF Done:  E(RHF) =  -1121.61083428     A.U. after   12 cycles
 SCF Done:  E(RHF) =  -1121.61086474     A.U. after   11 cycles
 SCF Done:  E(RHF) =  -1121.61087266     A.U. after   10 cycles
 SCF Done:  E(RHF) =  -1121.61088201     A.U. after   10 cycles
 SCF Done:  E(RHF) =  -1121.61089029     A.U. after   10 cycles
 SCF Done:  E(RHF) =  -1121.61089931     A.U. after   11 cycles
 SCF Done:  E(RHF) =  -1121.61090574     A.U. after   10 cycles
 SCF Done:  E(RHF) =  -1121.61090888     A.U. after   10 cycles
 SCF Done:  E(RHF) =  -1121.61090903     A.U. after   10 cycles
 SCF Done:  E(RHF) =  -1121.61090916     A.U. after    7 cycles
 Optimization completed.
    -- Stationary point found.

                          Input orientation:
 ---------------------------------------------------------------------
 Center     Atomic      Atomic             Coordinates (Angstroms)
 Number     Number       Type             X           Y           Z
 ---------------------------------------------------------------------
      1          6           0       -0.664324   -1.007525    0.182174
      2          6           0        1.549332    0.140326   -0.050365
      3          6           0        2.200306    1.339725    0.161060
      4          6           0       -2.865480   -2.131240    0.415656
      5          6           0       -4.829776   -0.840175    0.085023
      6          6           0        1.384911    2.601825    0.265363
      7          6           0        0.199868    2.505650   -0.671214
      8          6           0        4.327527    0.207861    0.137141
      9          8           0        5.669787    0.139128    0.215654
     10          6           0        6.411144    1.318180    0.460681
     11          6           0        3.592127    1.364155    0.258752
     12          7           0       -0.595687    1.289334   -0.359372
     13          6           0       -1.898729    1.363692   -0.390316
     14          6           0       -2.706679    0.246849   -0.143630
     15          6           0       -4.105851    0.273866   -0.168508
     16          8           0       -4.921328    1.313897   -0.443114
     17          6           0       -6.240141    0.857095   -0.157109
     18          8           0       -6.159166   -0.550616   -0.027240
     19          6           0       -4.237899   -2.065741    0.381176
     20          6           0       -2.084146   -0.988787    0.153127
     21          6           0        0.069841    0.099138   -0.081128
     22          6           0        2.298955   -1.039269   -0.197076
     23          6           0        3.666208   -1.014032   -0.104788
     24          8           0        4.469493   -2.095221   -0.239254
     25          6           0        3.889689   -3.352942   -0.516508
     26          1           0       -0.172454   -1.924639    0.435120
     27          1           0       -2.375326   -3.058800    0.642608
     28          1           0        1.042092    2.758201    1.284062
     29          1           0        1.975855    3.463158   -0.018198
     30          1           0       -0.459402    3.351520   -0.574009
     31          1           0        0.525190    2.421975   -1.698724
     32          1           0        6.135635    1.758382    1.410561
     33          1           0        7.446268    1.014962    0.490257
     34          1           0        6.267823    2.038426   -0.334600
     35          1           0        4.081281    2.303678    0.425083
     36          1           0       -2.329823    2.318383   -0.614920
     37          1           0       -6.570732    1.292218    0.773851
     38          1           0       -6.890805    1.111934   -0.974336
     39          1           0       -4.843125   -2.931031    0.574765
     40          1           0        1.801735   -1.965394   -0.398294
     41          1           0        4.711196   -4.049569   -0.585450
     42          1           0        3.223448   -3.658840    0.280598
     43          1           0        3.352164   -3.334739   -1.456559
 ---------------------------------------------------------------------

 Alpha  occ. eigenvalues --  -20.62247 -20.61442 -20.59810 -20.59413 -15.68739
 Alpha  occ. eigenvalues --  -11.35061 -11.34217 -11.32451 -11.31994 -11.30970
 Alpha  occ. eigenvalues --  -11.30914 -11.30276 -11.28546 -11.28386 -11.27909
 Alpha  occ. eigenvalues --  -11.27118 -11.27020 -11.26820 -11.25982 -11.25582
 Alpha  occ. eigenvalues --  -11.25323 -11.25006 -11.24223 -11.23695 -11.23427
 Alpha  occ. eigenvalues --   -1.50174  -1.43359  -1.40697  -1.39188  -1.36649
 Alpha  occ. eigenvalues --   -1.19892  -1.17821  -1.11980  -1.10344  -1.06857
 Alpha  occ. eigenvalues --   -1.05684  -1.01990  -1.01519  -0.95745  -0.95186
 Alpha  occ. eigenvalues --   -0.93925  -0.91984  -0.89438  -0.88710  -0.85448
 Alpha  occ. eigenvalues --   -0.82862  -0.80406  -0.76781  -0.75833  -0.73939
 Alpha  occ. eigenvalues --   -0.72785  -0.72581  -0.70435  -0.69527  -0.69311
 Alpha  occ. eigenvalues --   -0.67907  -0.66894  -0.66335  -0.65236  -0.64641
 Alpha  occ. eigenvalues --   -0.63259  -0.62496  -0.62190  -0.61382  -0.60767
 Alpha  occ. eigenvalues --   -0.59445  -0.58765  -0.58466  -0.58194  -0.56456
 Alpha  occ. eigenvalues --   -0.55993  -0.55271  -0.54968  -0.54438  -0.53044
 Alpha  occ. eigenvalues --   -0.52684  -0.52012  -0.51165  -0.49346  -0.48697
 Alpha  occ. eigenvalues --   -0.48307  -0.47717  -0.46572  -0.40905  -0.37013
 Alpha  occ. eigenvalues --   -0.34196  -0.31707  -0.27749
 Alpha virt. eigenvalues --    0.04550   0.07069   0.14220   0.16306   0.17224
 Alpha virt. eigenvalues --    0.24304   0.24591   0.25612   0.25974   0.26320
 Alpha virt. eigenvalues --    0.27129   0.27605   0.27833   0.28983   0.29616

 Mulliken charges:
               1
     1  C   -0.285624
     2  C   -0.042647
     3  C    0.018374
     4  C   -0.238688
     5  C    0.353299
     6  C   -0.353013
     7  C   -0.139626
     8  C    0.414858
     9  O   -0.693236
    10  C   -0.214277
    11  C   -0.326739
    12  N   -0.717843
    13  C    0.295309
    14  C   -0.171851
    15  C    0.391647
    16  O   -0.701861
    17  C    0.301063
    18  O   -0.705066
    19  C   -0.195160
    20  C    0.087460
    21  C    0.412291
    22  C   -0.291197
    23  C    0.382176
    24  O   -0.700372
    25  C   -0.214127
    26  H    0.296877
    27  H    0.270360
    28  H    0.224736
    29  H    0.232121
    30  H    0.256021
    31  H    0.249752
    32  H    0.190879
    33  H    0.212302
    34  H    0.190886
    35  H    0.267226
    36  H    0.343468
    37  H    0.215033
    38  H    0.228180
    39  H    0.287255
    40  H    0.282522
    41  H    0.210950
    42  H    0.187992
    43  H    0.188287
 Sum of Mulliken charges =   1.00000

 Dipole moment (field-independent basis, Debye):
    X=             -6.0223    Y=              5.2221    Z=             -0.5461  Tot=              7.9898
 Quadrupole moment (field-independent basis, Debye-Ang):
   XX=           -100.1854   YY=            -97.0226   ZZ=           -142.7799
   XY=              7.7431   XZ=              0.5416   YZ=             -2.0971

 ESP charges:
               1
     1  C   -0.482630
     2  C   -0.324097
     3  C    0.146070
     4  C   -0.351146
     5  C    0.282750
     6  C    0.017279
     7  C   -0.083889
     8  C    0.395119
     9  O   -0.441056
    10  C    0.025981
    11  C   -0.449796
    12  N   -0.119640
    13  C    0.325430
    14  C   -0.409958
    15  C    0.402774
    16  O   -0.456074
    17  C    0.378995
    18  O   -0.472102
    19  C   -0.225327
    20  C    0.370665
    21  C    0.466719
    22  C   -0.204376
    23  C    0.225641
    24  O   -0.438514
    25  C    0.043066
    26  H    0.257253
    27  H    0.233539
    28  H    0.051210
    29  H    0.081290
    30  H    0.127984
    31  H    0.121729
    32  H    0.078669
    33  H    0.094119
    34  H    0.083269
    35  H    0.223300
    36  H    0.169746
    37  H    0.073433
    38  H    0.103403
    39  H    0.246632
    40  H    0.196118
    41  H    0.089080
    42  H    0.074026
    43  H    0.073315
 Sum of ESP charges =   1.00000

 Normal termination of Gaussian 16 at Tue Mar 25 17:55:45 2025.
