                         Program Version 5.0.4 -  RELEASE  -
|  1> ! PAL2
|  2> ! mp2 cc-pvdz TightSCF  NoKeepInts
|  3>
|  4> %scf
|  5>   MaxCore 2000
|  6> end
|  7> %mp2
|  8>   MaxCore 2000
|  9> end
| 10> * xyz 0 1
| 11>    C       -4.67200         5.35900         0.90100
| 12>    C        1.47400         4.04100         0.05700
| 13>    C       -2.80200         4.09300         0.04900
| 14>    C       -2.51800         5.17800        -0.79500
| 15>    C       -3.31100         6.30800        -0.76300
| 16>    C       -5.17800         7.62600         0.11200
| 17>    C        0.13200         4.30700         0.06100
| 18>    C       -0.56900         3.05600         0.04700
| 19>    C        1.64900         2.61800         0.02300
| 20>    C       -3.90500         4.21000         0.90900
| 21>    N       -4.37200         6.38600         0.07400
| 22>    N        0.38800         2.06700         0.02500
| 23>    N       -2.01000         0.39500        -0.07500
| 24>    N       -0.38800        -2.07400        -0.02700
| 25>    N        2.01000        -0.40100         0.06500
| 26>    C       -1.96000         2.86100         0.02400
| 27>    C       -2.62300         1.61500        -0.01800
| 28>    C       -5.57300        -4.32900         1.06600
| 29>    C       -4.07300         1.47100         0.05600
| 30>    C       -4.10600        -2.75600        -0.02600
| 31>    C       -4.99500        -2.75700        -1.11100
| 32>    C       -6.13200        -3.54200        -1.07600
| 33>    C       -7.65100        -5.11300         0.04000
| 34>    C       -4.32400         0.14100         0.03700
| 35>    C       -3.02500        -0.52000        -0.04800
| 36>    C       -4.42200        -3.56600         1.07500
| 37>    N       -6.40700        -4.31300         0.00100
| 38>    C       -2.86700        -1.92200        -0.04000
| 39>    C       -1.65000        -2.62400        -0.02700
| 40>    C        3.56800        -6.14200        -1.04000
| 41>    C       -1.47600        -4.04900        -0.03400
| 42>    C        2.80300        -4.09900        -0.00800
| 43>    C        3.65700        -4.38400         1.06900
| 44>    C        4.42700        -5.53000         1.05900
| 45>    C        5.24500        -7.58800         0.01400
| 46>    C       -0.13400        -4.31500        -0.02200
| 47>    C        0.56800        -3.06400        -0.02700
| 48>    C        2.77500        -5.01200        -1.07400
| 49>    N        4.37600        -6.39100         0.01700
| 50>    C        1.95900        -2.86900        -0.00900
| 51>    C        2.62100        -1.62200         0.00900
| 52>    C        5.54300         4.33900        -1.13000
| 53>    C        4.07000        -1.47900        -0.09400
| 54>    C        4.10400         2.75100        -0.02100
| 55>    C        5.02700         2.72900         1.03600
| 56>    C        6.16600         3.50900         0.97800
| 57>    C        7.61900         5.15300        -0.11500
| 58>    C        4.32100        -0.14800        -0.09200
| 59>    C        3.02500         0.51400         0.01500
| 60>    C        4.38700         3.58200        -1.11500
| 61>    C        2.86600         1.91600         0.01300
| 62>    N        6.41300         4.29600        -0.09500
| 63>    H       -5.53800         5.48700         1.53800
| 64>    H        2.27400         4.76600         0.08100
| 65>    H       -1.67500         5.15200        -1.47400
| 66>    H       -3.12600         7.17200        -1.38800
| 67>    H       -4.71300         8.33200         0.80400
| 68>    H       -5.21500         8.05200        -0.89100
| 69>    H       -6.18500         7.37900         0.45000
| 70>    H       -0.33200         5.28200         0.06900
| 71>    H       -4.18400         3.40100         1.57400
| 72>    H        0.18200         1.07200         0.00500
| 73>    H       -0.18300        -1.08000        -0.02100
| 74>    H       -5.86400        -4.96200         1.89500
| 75>    H       -4.79400         2.27200         0.13900
| 76>    H       -4.80000        -2.16000        -1.99400
| 77>    H       -6.84100        -3.58200        -1.89300
| 78>    H       -8.42800        -4.53600         0.54600
| 79>    H       -7.95600        -5.33700        -0.98100
| 80>    H       -7.45600        -6.03700         0.58400
| 81>    H       -5.28700        -0.34400         0.10000
| 82>    H       -3.78000        -3.60100         1.94700
| 83>    H        3.58700        -6.86800        -1.84300
| 84>    H       -2.27600        -4.77400        -0.05000
| 85>    H        3.71400        -3.72400         1.92600
| 86>    H        5.09200        -5.79500         1.87100
| 87>    H        6.20500        -7.32900        -0.43900
| 88>    H        5.39300        -7.91700         1.04200
| 89>    H        4.75900        -8.37300        -0.56400
| 90>    H        0.32900        -5.29000        -0.00800
| 91>    H        2.14600        -4.84200        -1.94000
| 92>    H        5.80800         4.98600        -1.95600
| 93>    H        4.78800        -2.28100        -0.18500
| 94>    H        4.86000         2.11400         1.91200
| 95>    H        6.90100         3.53100         1.77200
| 96>    H        7.38300         6.10900         0.35600
| 97>    H        8.41400         4.65200         0.43500
| 98>    H        7.92100         5.31000        -1.15000
| 99>    H        5.28300         0.33600        -0.17900
|100>    H        3.72000         3.63200        -1.96700
|101> *
|102>
|103>                          ****END OF INPUT****

CARTESIAN COORDINATES (ANGSTROEM)
---------------------------------
  C     -4.672000    5.359000    0.901000
  C      1.474000    4.041000    0.057000
  C     -2.802000    4.093000    0.049000
  C     -2.518000    5.178000   -0.795000
  C     -3.311000    6.308000   -0.763000
  C     -5.178000    7.626000    0.112000
  C      0.132000    4.307000    0.061000
  C     -0.569000    3.056000    0.047000
  C      1.649000    2.618000    0.023000
  C     -3.905000    4.210000    0.909000
  N     -4.372000    6.386000    0.074000
  N      0.388000    2.067000    0.025000
  N     -2.010000    0.395000   -0.075000
  N     -0.388000   -2.074000   -0.027000
  N      2.010000   -0.401000    0.065000
  C     -1.960000    2.861000    0.024000
  C     -2.623000    1.615000   -0.018000
  C     -5.573000   -4.329000    1.066000
  C     -4.073000    1.471000    0.056000
  C     -4.106000   -2.756000   -0.026000
  C     -4.995000   -2.757000   -1.111000
  C     -6.132000   -3.542000   -1.076000
  C     -7.651000   -5.113000    0.040000
  C     -4.324000    0.141000    0.037000
  C     -3.025000   -0.520000   -0.048000
  C     -4.422000   -3.566000    1.075000
  N     -6.407000   -4.313000    0.001000
  C     -2.867000   -1.922000   -0.040000
  C     -1.650000   -2.624000   -0.027000
  C      3.568000   -6.142000   -1.040000
  C     -1.476000   -4.049000   -0.034000
  C      2.803000   -4.099000   -0.008000
  C      3.657000   -4.384000    1.069000
  C      4.427000   -5.530000    1.059000
  C      5.245000   -7.588000    0.014000
  C     -0.134000   -4.315000   -0.022000
  C      0.568000   -3.064000   -0.027000
  C      2.775000   -5.012000   -1.074000
  N      4.376000   -6.391000    0.017000
  C      1.959000   -2.869000   -0.009000
  C      2.621000   -1.622000    0.009000
  C      5.543000    4.339000   -1.130000
  C      4.070000   -1.479000   -0.094000
  C      4.104000    2.751000   -0.021000
  C      5.027000    2.729000    1.036000
  C      6.166000    3.509000    0.978000
  C      7.619000    5.153000   -0.115000
  C      4.321000   -0.148000   -0.092000
  C      3.025000    0.514000    0.015000
  C      4.387000    3.582000   -1.115000
  C      2.866000    1.916000    0.013000
  N      6.413000    4.296000   -0.095000
  H     -5.538000    5.487000    1.538000
  H      2.274000    4.766000    0.081000
  H     -1.675000    5.152000   -1.474000
  H     -3.126000    7.172000   -1.388000
  H     -4.713000    8.332000    0.804000
  H     -5.215000    8.052000   -0.891000
  H     -6.185000    7.379000    0.450000
  H     -0.332000    5.282000    0.069000
  H     -4.184000    3.401000    1.574000
  H      0.182000    1.072000    0.005000
  H     -0.183000   -1.080000   -0.021000
  H     -5.864000   -4.962000    1.895000
  H     -4.794000    2.272000    0.139000
  H     -4.800000   -2.160000   -1.994000
  H     -6.841000   -3.582000   -1.893000
  H     -8.428000   -4.536000    0.546000
  H     -7.956000   -5.337000   -0.981000
  H     -7.456000   -6.037000    0.584000
  H     -5.287000   -0.344000    0.100000
  H     -3.780000   -3.601000    1.947000
  H      3.587000   -6.868000   -1.843000
  H     -2.276000   -4.774000   -0.050000
  H      3.714000   -3.724000    1.926000
  H      5.092000   -5.795000    1.871000
  H      6.205000   -7.329000   -0.439000
  H      5.393000   -7.917000    1.042000
  H      4.759000   -8.373000   -0.564000
  H      0.329000   -5.290000   -0.008000
  H      2.146000   -4.842000   -1.940000
  H      5.808000    4.986000   -1.956000
  H      4.788000   -2.281000   -0.185000
  H      4.860000    2.114000    1.912000
  H      6.901000    3.531000    1.772000
  H      7.383000    6.109000    0.356000
  H      8.414000    4.652000    0.435000
  H      7.921000    5.310000   -1.150000
  H      5.283000    0.336000   -0.179000
  H      3.720000    3.632000   -1.967000

 Total Charge           Charge          ....    0
 Multiplicity           Mult            ....    1
 Number of Electrons    NEL             ....  358
 Basis Dimension        Dim             ....  918

ORBITAL ENERGIES
----------------

  NO   OCC          E(Eh)            E(eV)
   0   2.0000     -15.657509      -426.0625
   1   2.0000     -15.637191      -425.5096
   2   2.0000     -15.629718      -425.3063
   3   2.0000     -15.605087      -424.6360
   4   2.0000     -15.522282      -422.3828
   5   2.0000     -15.516350      -422.2214
   6   2.0000     -15.448660      -420.3794
   7   2.0000     -15.443007      -420.2256
   8   2.0000     -11.314141      -307.8734
   9   2.0000     -11.311191      -307.7932
  10   2.0000     -11.309166      -307.7381
  11   2.0000     -11.301293      -307.5238
  12   2.0000     -11.296850      -307.4029
  13   2.0000     -11.294417      -307.3367
  14   2.0000     -11.290588      -307.2325
  15   2.0000     -11.287961      -307.1610
  16   2.0000     -11.285730      -307.1003
  17   2.0000     -11.282311      -307.0073
  18   2.0000     -11.268054      -306.6193
  19   2.0000     -11.267290      -306.5986
  20   2.0000     -11.261050      -306.4288
  21   2.0000     -11.247608      -306.0630
  22   2.0000     -11.246696      -306.0382
  23   2.0000     -11.240623      -305.8729
  24   2.0000     -11.234359      -305.7025
  25   2.0000     -11.233348      -305.6750
  26   2.0000     -11.232564      -305.6536
  27   2.0000     -11.227926      -305.5274
  28   2.0000     -11.227798      -305.5239
  29   2.0000     -11.214039      -305.1495
  30   2.0000     -11.209310      -305.0208
  31   2.0000     -11.207533      -304.9725
  32   2.0000     -11.205517      -304.9176
  33   2.0000     -11.204710      -304.8957
  34   2.0000     -11.191955      -304.5486
  35   2.0000     -11.191428      -304.5342
  36   2.0000     -11.181159      -304.2548
  37   2.0000     -11.179260      -304.2031
  38   2.0000     -11.178699      -304.1879
  39   2.0000     -11.172675      -304.0239
  40   2.0000     -11.168646      -303.9143
  41   2.0000     -11.166421      -303.8538
  42   2.0000     -11.165898      -303.8395
  43   2.0000     -11.164376      -303.7981
  44   2.0000     -11.163601      -303.7770
  45   2.0000     -11.162435      -303.7453
  46   2.0000     -11.151845      -303.4571
  47   2.0000     -11.150499      -303.4205
  48   2.0000     -11.148522      -303.3667
  49   2.0000     -11.146376      -303.3083
  50   2.0000     -11.137859      -303.0765
  51   2.0000     -11.132296      -302.9252
  52   2.0000      -1.341399       -36.5013
  53   2.0000      -1.323954       -36.0266
  54   2.0000      -1.317649       -35.8550
  55   2.0000      -1.297353       -35.3028
  56   2.0000      -1.221835       -33.2478
  57   2.0000      -1.211719       -32.9726
  58   2.0000      -1.166340       -31.7377
  59   2.0000      -1.155330       -31.4381
  60   2.0000      -1.127576       -30.6829
  61   2.0000      -1.112316       -30.2677
  62   2.0000      -1.107080       -30.1252
  63   2.0000      -1.090749       -29.6808
  64   2.0000      -1.064418       -28.9643
  65   2.0000      -1.047932       -28.5157
  66   2.0000      -1.042344       -28.3636
  67   2.0000      -1.031289       -28.0628
  68   2.0000      -1.024320       -27.8732
  69   2.0000      -1.012644       -27.5554
  70   2.0000      -1.009706       -27.4755
  71   2.0000      -0.993999       -27.0481
  72   2.0000      -0.986117       -26.8336
  73   2.0000      -0.974993       -26.5309
  74   2.0000      -0.973255       -26.4836
  75   2.0000      -0.959356       -26.1054
  76   2.0000      -0.950873       -25.8746
  77   2.0000      -0.947725       -25.7889
  78   2.0000      -0.937567       -25.5125
  79   2.0000      -0.922316       -25.0975
  80   2.0000      -0.897210       -24.4143
  81   2.0000      -0.888076       -24.1658
  82   2.0000      -0.875134       -23.8136
  83   2.0000      -0.869974       -23.6732
  84   2.0000      -0.863595       -23.4996
  85   2.0000      -0.855616       -23.2825
  86   2.0000      -0.847472       -23.0609
  87   2.0000      -0.839676       -22.8487
  88   2.0000      -0.822299       -22.3759
  89   2.0000      -0.798747       -21.7350
  90   2.0000      -0.796060       -21.6619
  91   2.0000      -0.742485       -20.2040
  92   2.0000      -0.735845       -20.0234
  93   2.0000      -0.730786       -19.8857
  94   2.0000      -0.722207       -19.6522
  95   2.0000      -0.720481       -19.6053
  96   2.0000      -0.713297       -19.4098
  97   2.0000      -0.706438       -19.2232
  98   2.0000      -0.701346       -19.0846
  99   2.0000      -0.695182       -18.9169
 100   2.0000      -0.691684       -18.8217
 101   2.0000      -0.681452       -18.5432
 102   2.0000      -0.678809       -18.4713
 103   2.0000      -0.674872       -18.3642
 104   2.0000      -0.671185       -18.2639
 105   2.0000      -0.669713       -18.2238
 106   2.0000      -0.663741       -18.0613
 107   2.0000      -0.662190       -18.0191
 108   2.0000      -0.656007       -17.8509
 109   2.0000      -0.654782       -17.8175
 110   2.0000      -0.651489       -17.7279
 111   2.0000      -0.648528       -17.6473
 112   2.0000      -0.644511       -17.5380
 113   2.0000      -0.637134       -17.3373
 114   2.0000      -0.633984       -17.2516
 115   2.0000      -0.629888       -17.1401
 116   2.0000      -0.624617       -16.9967
 117   2.0000      -0.614950       -16.7336
 118   2.0000      -0.614055       -16.7093
 119   2.0000      -0.610784       -16.6203
 120   2.0000      -0.609542       -16.5865
 121   2.0000      -0.602365       -16.3912
 122   2.0000      -0.597075       -16.2472
 123   2.0000      -0.591972       -16.1084
 124   2.0000      -0.589099       -16.0302
 125   2.0000      -0.583498       -15.8778
 126   2.0000      -0.579186       -15.7604
 127   2.0000      -0.575644       -15.6641
 128   2.0000      -0.564418       -15.3586
 129   2.0000      -0.558738       -15.2040
 130   2.0000      -0.554220       -15.0811
 131   2.0000      -0.549347       -14.9485
 132   2.0000      -0.541284       -14.7291
 133   2.0000      -0.537346       -14.6219
 134   2.0000      -0.534815       -14.5531
 135   2.0000      -0.531338       -14.4584
 136   2.0000      -0.526425       -14.3248
 137   2.0000      -0.523819       -14.2538
 138   2.0000      -0.518004       -14.0956
 139   2.0000      -0.516575       -14.0567
 140   2.0000      -0.510760       -13.8985
 141   2.0000      -0.508347       -13.8328
 142   2.0000      -0.507310       -13.8046
 143   2.0000      -0.501649       -13.6506
 144   2.0000      -0.501163       -13.6373
 145   2.0000      -0.498235       -13.5577
 146   2.0000      -0.494400       -13.4533
 147   2.0000      -0.488225       -13.2853
 148   2.0000      -0.488065       -13.2809
 149   2.0000      -0.469360       -12.7719
 150   2.0000      -0.462752       -12.5921
 151   2.0000      -0.454810       -12.3760
 152   2.0000      -0.447931       -12.1888
 153   2.0000      -0.446940       -12.1619
 154   2.0000      -0.446199       -12.1417
 155   2.0000      -0.440377       -11.9833
 156   2.0000      -0.433725       -11.8023
 157   2.0000      -0.428717       -11.6660
 158   2.0000      -0.397219       -10.8089
 159   2.0000      -0.386648       -10.5212
 160   2.0000      -0.378093       -10.2884
 161   2.0000      -0.372604       -10.1391
 162   2.0000      -0.370967       -10.0945
 163   2.0000      -0.358622        -9.7586
 164   2.0000      -0.354063        -9.6345
 165   2.0000      -0.337435        -9.1821
 166   2.0000      -0.336453        -9.1554
 167   2.0000      -0.336008        -9.1432
 168   2.0000      -0.328249        -8.9321
 169   2.0000      -0.300377        -8.1737
 170   2.0000      -0.299638        -8.1536
 171   2.0000      -0.287839        -7.8325
 172   2.0000      -0.285743        -7.7755
 173   2.0000      -0.258724        -7.0402
 174   2.0000      -0.246596        -6.7102
 175   2.0000      -0.189133        -5.1466
 176   2.0000      -0.179259        -4.8779
 177   2.0000      -0.070450        -1.9170
 178   2.0000      -0.056224        -1.5299
 179   0.0000       0.029623         0.8061
 180   0.0000       0.069085         1.8799
 181   0.0000       0.092420         2.5149
 182   0.0000       0.102431         2.7873
 183   0.0000       0.121235         3.2990

MULLIKEN ATOMIC CHARGES
-----------------------
   0 C :    0.208716
   1 N :   -0.449931
   2 C :   -0.062794
   3 N :   -0.336028
   4 C :   -0.052284
   5 N :   -0.562791
   6 C :   -0.093979
   7 N :   -0.339037
   8 C :    0.202857
   9 N :   -0.562832
  10 C :    0.116625
  11 N :   -0.437704
  12 C :   -0.080848
  13 N :   -0.434694
  14 C :    0.243316
  15 N :   -0.441021
  16 C :    0.229211
  17 C :   -0.098632
  18 C :   -0.212809
  19 C :    0.238029
  20 C :    0.211312
  21 C :   -0.093512
  22 C :   -0.089254
  23 C :   -0.043673
  24 C :    0.199454
  25 C :    0.114143
  26 C :   -0.073038
  27 C :    0.216074
  28 C :   -0.057411
  29 C :   -0.181636
  30 C :    0.240833
  31 C :    0.220833
  32 C :   -0.063507
  33 C :   -0.070903
  34 C :   -0.050373
  35 C :    0.216063
  36 C :    0.111169
  37 C :   -0.065661
  38 C :    0.234280
  39 C :   -0.059652
  40 C :   -0.185196
  41 C :    0.223476
  42 C :    0.199895
  43 C :   -0.072842
  44 C :   -0.089580
  45 C :   -0.057083
  46 C :    0.207390
  47 C :    0.115550
  48 C :   -0.070559
  49 C :    0.232783
  50 C :   -0.049631
  51 C :   -0.190157
  52 H :    0.046224
  53 H :   -0.015182
  54 H :    0.047313
  55 H :    0.044296
  56 H :    0.053083
  57 H :    0.051550
  58 H :    0.051200
  59 H :   -0.003586
  60 H :    0.050701
  61 H :    0.171881
  62 H :    0.174223
  63 H :    0.056175
  64 H :   -0.011101
  65 H :    0.047656
  66 H :    0.057005
  67 H :    0.062739
  68 H :    0.057931
  69 H :    0.057721
  70 H :   -0.026879
  71 H :    0.046387
  72 H :    0.063971
  73 H :   -0.010966
  74 H :    0.053624
  75 H :    0.063169
  76 H :    0.068486
  77 H :    0.063096
  78 H :    0.062333
  79 H :   -0.015149
  80 H :    0.054241
  81 H :    0.053569
  82 H :   -0.024128
  83 H :    0.042430
  84 H :    0.053607
  85 H :    0.059901
  86 H :    0.055824
  87 H :    0.056740
  88 H :   -0.017833
  89 H :    0.044787
Sum of atomic charges:    0.0000000

LOEWDIN ATOMIC CHARGES
----------------------
   0 C :   -0.013919
   1 N :    0.123300
   2 C :   -0.100853
   3 N :    0.181783
   4 C :    0.010446
   5 N :   -0.134779
   6 C :   -0.032376
   7 N :    0.176805
   8 C :   -0.017544
   9 N :   -0.139935
  10 C :    0.025495
  11 N :    0.143715
  12 C :   -0.106510
  13 N :    0.153981
  14 C :   -0.036854
  15 N :    0.138340
  16 C :   -0.053743
  17 C :   -0.034503
  18 C :   -0.104088
  19 C :   -0.084144
  20 C :    0.003170
  21 C :   -0.112257
  22 C :    0.039791
  23 C :   -0.016801
  24 C :   -0.006969
  25 C :    0.030209
  26 C :   -0.104472
  27 C :   -0.106946
  28 C :   -0.024479
  29 C :   -0.103165
  30 C :   -0.037685
  31 C :    0.013173
  32 C :   -0.096834
  33 C :    0.061164
  34 C :   -0.017248
  35 C :    0.009197
  36 C :    0.032476
  37 C :   -0.097792
  38 C :   -0.046694
  39 C :   -0.021417
  40 C :   -0.108471
  41 C :   -0.092593
  42 C :   -0.008530
  43 C :   -0.101732
  44 C :    0.032973
  45 C :   -0.025361
  46 C :   -0.001837
  47 C :    0.029332
  48 C :   -0.099333
  49 C :   -0.079057
  50 C :   -0.021256
  51 C :   -0.108594
  52 H :    0.026290
  53 H :    0.003761
  54 H :    0.040786
  55 H :    0.025503
  56 H :    0.023416
  57 H :    0.028106
  58 H :    0.028856
  59 H :    0.007171
  60 H :    0.042525
  61 H :    0.060257
  62 H :    0.061218
  63 H :    0.031010
  64 H :    0.002261
  65 H :    0.045889
  66 H :    0.030037
  67 H :    0.028431
  68 H :    0.031941
  69 H :    0.030888
  70 H :   -0.003157
  71 H :    0.044369
  72 H :    0.034276
  73 H :    0.005687
  74 H :    0.047844
  75 H :    0.033713
  76 H :    0.031461
  77 H :    0.033877
  78 H :    0.033544
  79 H :    0.003680
  80 H :    0.047631
  81 H :    0.028833
  82 H :   -0.002290
  83 H :    0.042971
  84 H :    0.029482
  85 H :    0.026924
  86 H :    0.030274
  87 H :    0.031180
  88 H :    0.000789
  89 H :    0.043991

  Mayer bond orders larger than 0.100000
B(  0-C ,  1-N ) :   1.0999 B(  0-C , 17-C ) :   1.6775 B(  0-C , 52-H ) :   0.9686
B(  1-N ,  8-C ) :   1.0951 B(  1-N , 10-C ) :   0.9720 B(  2-C , 12-C ) :   1.5215
B(  2-C , 16-C ) :   1.3419 B(  2-C , 53-H ) :   0.9767 B(  3-N , 14-C ) :   1.2124
B(  3-N , 16-C ) :   1.1936 B(  3-N , 61-H ) :   0.8989 B(  4-C ,  6-C ) :   1.2309
B(  4-C , 17-C ) :   1.2305 B(  4-C , 18-C ) :   1.3692 B(  5-N , 19-C ) :   1.4401
B(  5-N , 27-C ) :   1.3886 B(  6-C ,  8-C ) :   1.6775 B(  6-C , 54-H ) :   0.9676
B(  7-N , 30-C ) :   1.1949 B(  7-N , 38-C ) :   1.1960 B(  7-N , 62-H ) :   0.8975
B(  8-C , 55-H ) :   0.9693 B(  9-N , 41-C ) :   1.4002 B(  9-N , 49-C ) :   1.4213
B( 10-C , 56-H ) :   0.9765 B( 10-C , 57-H ) :   0.9820 B( 10-C , 58-H ) :   0.9841
B( 11-N , 20-C ) :   1.1289 B( 11-N , 24-C ) :   1.1147 B( 11-N , 25-C ) :   0.9589
B( 12-C , 14-C ) :   1.3433 B( 12-C , 59-H ) :   0.9745 B( 13-N , 31-C ) :   1.1426
B( 13-N , 35-C ) :   1.1377 B( 13-N , 36-C ) :   0.9505 B( 14-C , 18-C ) :   1.1576
B( 15-N , 42-C ) :   1.1110 B( 15-N , 46-C ) :   1.1188 B( 15-N , 47-C ) :   0.9620
B( 16-C , 51-C ) :   1.1830 B( 17-C , 60-H ) :   0.9671 B( 18-C , 19-C ) :   1.1677
B( 19-C , 21-C ) :   1.2279 B( 20-C , 28-C ) :   1.6252 B( 20-C , 63-H ) :   0.9702
B( 21-C , 26-C ) :   1.6290 B( 21-C , 64-H ) :   0.9700 B( 22-C , 23-C ) :   1.2881
B( 22-C , 28-C ) :   1.2695 B( 22-C , 29-C ) :   1.2231 B( 23-C , 24-C ) :   1.6180
B( 23-C , 65-H ) :   0.9706 B( 24-C , 66-H ) :   0.9693 B( 25-C , 67-H ) :   0.9761
B( 25-C , 68-H ) :   0.9828 B( 25-C , 69-H ) :   0.9822 B( 26-C , 27-C ) :   1.2248
B( 26-C , 70-H ) :   0.9722 B( 27-C , 29-C ) :   1.2246 B( 28-C , 71-H ) :   0.9717
B( 29-C , 30-C ) :   1.2261 B( 30-C , 32-C ) :   1.2972 B( 31-C , 39-C ) :   1.6094
B( 31-C , 72-H ) :   0.9689 B( 32-C , 37-C ) :   1.5615 B( 32-C , 73-H ) :   0.9782
B( 33-C , 34-C ) :   1.2916 B( 33-C , 39-C ) :   1.2857 B( 33-C , 40-C ) :   1.2119
B( 34-C , 35-C ) :   1.6063 B( 34-C , 74-H ) :   0.9701 B( 35-C , 75-H ) :   0.9689
B( 36-C , 76-H ) :   0.9765 B( 36-C , 77-H ) :   0.9818 B( 36-C , 78-H ) :   0.9827
B( 37-C , 38-C ) :   1.3001 B( 37-C , 79-H ) :   0.9771 B( 38-C , 40-C ) :   1.2198
B( 39-C , 80-H ) :   0.9710 B( 40-C , 41-C ) :   1.2357 B( 41-C , 43-C ) :   1.1987
B( 42-C , 50-C ) :   1.6338 B( 42-C , 81-H ) :   0.9697 B( 43-C , 48-C ) :   1.6533
B( 43-C , 82-H ) :   0.9729 B( 44-C , 45-C ) :   1.2665 B( 44-C , 50-C ) :   1.2693
B( 44-C , 51-C ) :   1.2590 B( 45-C , 46-C ) :   1.6344 B( 45-C , 83-H ) :   0.9715
B( 46-C , 84-H ) :   0.9701 B( 47-C , 85-H ) :   0.9761 B( 47-C , 86-H ) :   0.9829
B( 47-C , 87-H ) :   0.9825 B( 48-C , 49-C ) :   1.2006 B( 48-C , 88-H ) :   0.9744
B( 49-C , 51-C ) :   1.2311 B( 50-C , 89-H ) :   0.9712

MP2 TOTAL ENERGY:    -2130.910595114 Eh
FINAL SINGLE POINT ENERGY     -2130.910595114119

DIPOLE MOMENT
-------------
                                X             Y             Z
Electronic contribution:      1.17735      -2.68358      -0.13539
Nuclear contribution   :      0.07896       0.24052       0.14195
                        -----------------------------------------
Total Dipole Moment    :      1.25630      -2.44306       0.00656
                        -----------------------------------------
Magnitude (a.u.)       :      2.74716
Magnitude (Debye)      :      6.98272

Rotational constants in cm-1:     0.001499     0.001476     0.000761
Rotational constants in MHz :    44.947251    44.258146    22.823751

                             ****ORCA TERMINATED NORMALLY****
TOTAL RUN TIME: 0 days 1 hours 20 minutes 15 seconds 44 msec
