                         Program Version 5.0.4 -  RELEASE  -
|  1> ! PAL2
|  2> ! mp2 cc-pvdz TightSCF  NoKeepInts
|  3>
|  4> %scf
|  5>   MaxCore 2000
|  6> end
|  7> %mp2
|  8>   MaxCore 2000
|  9> end
| 10> * xyz 0 1
| 11>    C       -4.93600         5.20000        -0.16300
| 12>    C        1.47400         4.04100         0.05700
| 13>    C       -2.80200         4.09300         0.04900
| 14>    C       -2.23200         5.35100         0.30000
| 15>    C       -3.02500         6.48100         0.31500
| 16>    C       -5.18400         7.62100         0.14200
| 17>    C        0.13200         4.30700         0.06100
| 18>    C       -0.56900         3.05600         0.04700
| 19>    C        1.64900         2.61800         0.02300
| 20>    C       -4.18500         4.04000        -0.18200
| 21>    N       -4.35600         6.39600         0.08200
| 22>    N        0.38800         2.06700         0.02500
| 23>    N       -2.01000         0.39500        -0.07500
| 24>    N       -0.38800        -2.07400        -0.02700
| 25>    N        2.01000        -0.40100         0.06500
| 26>    C       -1.96000         2.86100         0.02400
| 27>    C       -2.62300         1.61500        -0.01800
| 28>    C       -5.57300        -4.32900         1.06600
| 29>    C       -4.07300         1.47100         0.05600
| 30>    C       -4.10600        -2.75600        -0.02600
| 31>    C       -4.99500        -2.75700        -1.11100
| 32>    C       -6.13200        -3.54200        -1.07600
| 33>    C       -7.65100        -5.11300         0.04000
| 34>    C       -4.32400         0.14100         0.03700
| 35>    C       -3.02500        -0.52000        -0.04800
| 36>    C       -4.42200        -3.56600         1.07500
| 37>    N       -6.40700        -4.31300         0.00100
| 38>    C       -2.86700        -1.92200        -0.04000
| 39>    C       -1.65000        -2.62400        -0.02700
| 40>    C        3.56800        -6.14200        -1.04000
| 41>    C       -1.47600        -4.04900        -0.03400
| 42>    C        2.80300        -4.09900        -0.00800
| 43>    C        3.65700        -4.38400         1.06900
| 44>    C        4.42700        -5.53000         1.05900
| 45>    C        5.24500        -7.58800         0.01400
| 46>    C       -0.13400        -4.31500        -0.02200
| 47>    C        0.56800        -3.06400        -0.02700
| 48>    C        2.77500        -5.01200        -1.07400
| 49>    N        4.37600        -6.39100         0.01700
| 50>    C        1.95900        -2.86900        -0.00900
| 51>    C        2.62100        -1.62200         0.00900
| 52>    C        5.54300         4.33900        -1.13000
| 53>    C        4.07000        -1.47900        -0.09400
| 54>    C        4.10400         2.75100        -0.02100
| 55>    C        5.02700         2.72900         1.03600
| 56>    C        6.16600         3.50900         0.97800
| 57>    C        7.61900         5.15300        -0.11500
| 58>    C        4.32100        -0.14800        -0.09200
| 59>    C        3.02500         0.51400         0.01500
| 60>    C        4.38700         3.58200        -1.11500
| 61>    C        2.86600         1.91600         0.01300
| 62>    N        6.41300         4.29600        -0.09500
| 63>    H       -6.00300         5.20800        -0.34700
| 64>    H        2.27400         4.76600         0.08100
| 65>    H       -1.17200         5.45500         0.49500
| 66>    H       -2.63300         7.47000         0.51200
| 67>    H       -5.48200         7.79900         1.17800
| 68>    H       -4.59600         8.46100        -0.22800
| 69>    H       -6.06600         7.47900        -0.48200
| 70>    H       -0.33200         5.28200         0.06900
| 71>    H       -4.68200         3.10100        -0.39500
| 72>    H        0.18200         1.07200         0.00500
| 73>    H       -0.18300        -1.08000        -0.02100
| 74>    H       -5.86400        -4.96200         1.89500
| 75>    H       -4.79400         2.27200         0.13900
| 76>    H       -4.80000        -2.16000        -1.99400
| 77>    H       -6.84100        -3.58200        -1.89300
| 78>    H       -8.42800        -4.53600         0.54600
| 79>    H       -7.95600        -5.33700        -0.98100
| 80>    H       -7.45600        -6.03700         0.58400
| 81>    H       -5.28700        -0.34400         0.10000
| 82>    H       -3.78000        -3.60100         1.94700
| 83>    H        3.58700        -6.86800        -1.84300
| 84>    H       -2.27600        -4.77400        -0.05000
| 85>    H        3.71400        -3.72400         1.92600
| 86>    H        5.09200        -5.79500         1.87100
| 87>    H        6.20500        -7.32900        -0.43900
| 88>    H        5.39300        -7.91700         1.04200
| 89>    H        4.75900        -8.37300        -0.56400
| 90>    H        0.32900        -5.29000        -0.00800
| 91>    H        2.14600        -4.84200        -1.94000
| 92>    H        5.80800         4.98600        -1.95600
| 93>    H        4.78800        -2.28100        -0.18500
| 94>    H        4.86000         2.11400         1.91200
| 95>    H        6.90100         3.53100         1.77200
| 96>    H        7.38300         6.10900         0.35600
| 97>    H        8.41400         4.65200         0.43500
| 98>    H        7.92100         5.31000        -1.15000
| 99>    H        5.28300         0.33600        -0.17900
|100>    H        3.72000         3.63200        -1.96700
|101> *
|102>
|103>                          ****END OF INPUT****

CARTESIAN COORDINATES (ANGSTROEM)
---------------------------------
  C     -4.936000    5.200000   -0.163000
  C      1.474000    4.041000    0.057000
  C     -2.802000    4.093000    0.049000
  C     -2.232000    5.351000    0.300000
  C     -3.025000    6.481000    0.315000
  C     -5.184000    7.621000    0.142000
  C      0.132000    4.307000    0.061000
  C     -0.569000    3.056000    0.047000
  C      1.649000    2.618000    0.023000
  C     -4.185000    4.040000   -0.182000
  N     -4.356000    6.396000    0.082000
  N      0.388000    2.067000    0.025000
  N     -2.010000    0.395000   -0.075000
  N     -0.388000   -2.074000   -0.027000
  N      2.010000   -0.401000    0.065000
  C     -1.960000    2.861000    0.024000
  C     -2.623000    1.615000   -0.018000
  C     -5.573000   -4.329000    1.066000
  C     -4.073000    1.471000    0.056000
  C     -4.106000   -2.756000   -0.026000
  C     -4.995000   -2.757000   -1.111000
  C     -6.132000   -3.542000   -1.076000
  C     -7.651000   -5.113000    0.040000
  C     -4.324000    0.141000    0.037000
  C     -3.025000   -0.520000   -0.048000
  C     -4.422000   -3.566000    1.075000
  N     -6.407000   -4.313000    0.001000
  C     -2.867000   -1.922000   -0.040000
  C     -1.650000   -2.624000   -0.027000
  C      3.568000   -6.142000   -1.040000
  C     -1.476000   -4.049000   -0.034000
  C      2.803000   -4.099000   -0.008000
  C      3.657000   -4.384000    1.069000
  C      4.427000   -5.530000    1.059000
  C      5.245000   -7.588000    0.014000
  C     -0.134000   -4.315000   -0.022000
  C      0.568000   -3.064000   -0.027000
  C      2.775000   -5.012000   -1.074000
  N      4.376000   -6.391000    0.017000
  C      1.959000   -2.869000   -0.009000
  C      2.621000   -1.622000    0.009000
  C      5.543000    4.339000   -1.130000
  C      4.070000   -1.479000   -0.094000
  C      4.104000    2.751000   -0.021000
  C      5.027000    2.729000    1.036000
  C      6.166000    3.509000    0.978000
  C      7.619000    5.153000   -0.115000
  C      4.321000   -0.148000   -0.092000
  C      3.025000    0.514000    0.015000
  C      4.387000    3.582000   -1.115000
  C      2.866000    1.916000    0.013000
  N      6.413000    4.296000   -0.095000
  H     -6.003000    5.208000   -0.347000
  H      2.274000    4.766000    0.081000
  H     -1.172000    5.455000    0.495000
  H     -2.633000    7.470000    0.512000
  H     -5.482000    7.799000    1.178000
  H     -4.596000    8.461000   -0.228000
  H     -6.066000    7.479000   -0.482000
  H     -0.332000    5.282000    0.069000
  H     -4.682000    3.101000   -0.395000
  H      0.182000    1.072000    0.005000
  H     -0.183000   -1.080000   -0.021000
  H     -5.864000   -4.962000    1.895000
  H     -4.794000    2.272000    0.139000
  H     -4.800000   -2.160000   -1.994000
  H     -6.841000   -3.582000   -1.893000
  H     -8.428000   -4.536000    0.546000
  H     -7.956000   -5.337000   -0.981000
  H     -7.456000   -6.037000    0.584000
  H     -5.287000   -0.344000    0.100000
  H     -3.780000   -3.601000    1.947000
  H      3.587000   -6.868000   -1.843000
  H     -2.276000   -4.774000   -0.050000
  H      3.714000   -3.724000    1.926000
  H      5.092000   -5.795000    1.871000
  H      6.205000   -7.329000   -0.439000
  H      5.393000   -7.917000    1.042000
  H      4.759000   -8.373000   -0.564000
  H      0.329000   -5.290000   -0.008000
  H      2.146000   -4.842000   -1.940000
  H      5.808000    4.986000   -1.956000
  H      4.788000   -2.281000   -0.185000
  H      4.860000    2.114000    1.912000
  H      6.901000    3.531000    1.772000
  H      7.383000    6.109000    0.356000
  H      8.414000    4.652000    0.435000
  H      7.921000    5.310000   -1.150000
  H      5.283000    0.336000   -0.179000
  H      3.720000    3.632000   -1.967000

 Total Charge           Charge          ....    0
 Multiplicity           Mult            ....    1
 Number of Electrons    NEL             ....  358
 Basis Dimension        Dim             ....  918

ORBITAL ENERGIES
----------------

  NO   OCC          E(Eh)            E(eV)
   0   2.0000     -15.680233      -426.6808
   1   2.0000     -15.635314      -425.4585
   2   2.0000     -15.630749      -425.3343
   3   2.0000     -15.587499      -424.1574
   4   2.0000     -15.525504      -422.4705
   5   2.0000     -15.515401      -422.1955
   6   2.0000     -15.453569      -420.5130
   7   2.0000     -15.440102      -420.1465
   8   2.0000     -11.329930      -308.3031
   9   2.0000     -11.328556      -308.2657
  10   2.0000     -11.328194      -308.2558
  11   2.0000     -11.300143      -307.4925
  12   2.0000     -11.297695      -307.4259
  13   2.0000     -11.294127      -307.3288
  14   2.0000     -11.290321      -307.2252
  15   2.0000     -11.287725      -307.1546
  16   2.0000     -11.285591      -307.0966
  17   2.0000     -11.282463      -307.0114
  18   2.0000     -11.269533      -306.6596
  19   2.0000     -11.263668      -306.5000
  20   2.0000     -11.262681      -306.4731
  21   2.0000     -11.250557      -306.1432
  22   2.0000     -11.248925      -306.0988
  23   2.0000     -11.239039      -305.8298
  24   2.0000     -11.235584      -305.7358
  25   2.0000     -11.232121      -305.6416
  26   2.0000     -11.231465      -305.6237
  27   2.0000     -11.228936      -305.5549
  28   2.0000     -11.228650      -305.5471
  29   2.0000     -11.211731      -305.0867
  30   2.0000     -11.210246      -305.0463
  31   2.0000     -11.193434      -304.5888
  32   2.0000     -11.191679      -304.5411
  33   2.0000     -11.191214      -304.5284
  34   2.0000     -11.187996      -304.4408
  35   2.0000     -11.187940      -304.4393
  36   2.0000     -11.186606      -304.4030
  37   2.0000     -11.175315      -304.0958
  38   2.0000     -11.174090      -304.0625
  39   2.0000     -11.173140      -304.0366
  40   2.0000     -11.172543      -304.0203
  41   2.0000     -11.169864      -303.9474
  42   2.0000     -11.169239      -303.9304
  43   2.0000     -11.161594      -303.7224
  44   2.0000     -11.160512      -303.6930
  45   2.0000     -11.157032      -303.5983
  46   2.0000     -11.156101      -303.5730
  47   2.0000     -11.152274      -303.4688
  48   2.0000     -11.146085      -303.3004
  49   2.0000     -11.134728      -302.9913
  50   2.0000     -11.129929      -302.8608
  51   2.0000     -11.117265      -302.5161
  52   2.0000      -1.360746       -37.0278
  53   2.0000      -1.322366       -35.9834
  54   2.0000      -1.318691       -35.8834
  55   2.0000      -1.280115       -34.8337
  56   2.0000      -1.226708       -33.3804
  57   2.0000      -1.210081       -32.9280
  58   2.0000      -1.173187       -31.9240
  59   2.0000      -1.150970       -31.3195
  60   2.0000      -1.143932       -31.1280
  61   2.0000      -1.111096       -30.2345
  62   2.0000      -1.108281       -30.1579
  63   2.0000      -1.082410       -29.4539
  64   2.0000      -1.076848       -29.3025
  65   2.0000      -1.046494       -28.4765
  66   2.0000      -1.043383       -28.3919
  67   2.0000      -1.041378       -28.3373
  68   2.0000      -1.015216       -27.6254
  69   2.0000      -1.013034       -27.5661
  70   2.0000      -1.008801       -27.4509
  71   2.0000      -0.994111       -27.0511
  72   2.0000      -0.985376       -26.8135
  73   2.0000      -0.982067       -26.7234
  74   2.0000      -0.973201       -26.4821
  75   2.0000      -0.961782       -26.1714
  76   2.0000      -0.954429       -25.9713
  77   2.0000      -0.945805       -25.7367
  78   2.0000      -0.936998       -25.4970
  79   2.0000      -0.916839       -24.9485
  80   2.0000      -0.910855       -24.7856
  81   2.0000      -0.897326       -24.4175
  82   2.0000      -0.877059       -23.8660
  83   2.0000      -0.873265       -23.7627
  84   2.0000      -0.869936       -23.6722
  85   2.0000      -0.859961       -23.4007
  86   2.0000      -0.841514       -22.8988
  87   2.0000      -0.837596       -22.7922
  88   2.0000      -0.827747       -22.5241
  89   2.0000      -0.796546       -21.6751
  90   2.0000      -0.788827       -21.4651
  91   2.0000      -0.765148       -20.8207
  92   2.0000      -0.753207       -20.4958
  93   2.0000      -0.734125       -19.9766
  94   2.0000      -0.727290       -19.7906
  95   2.0000      -0.724476       -19.7140
  96   2.0000      -0.718906       -19.5624
  97   2.0000      -0.717164       -19.5150
  98   2.0000      -0.712071       -19.3764
  99   2.0000      -0.698645       -19.0111
 100   2.0000      -0.697297       -18.9744
 101   2.0000      -0.691445       -18.8152
 102   2.0000      -0.685537       -18.6544
 103   2.0000      -0.684501       -18.6262
 104   2.0000      -0.679304       -18.4848
 105   2.0000      -0.674213       -18.3463
 106   2.0000      -0.672408       -18.2972
 107   2.0000      -0.660492       -17.9729
 108   2.0000      -0.657772       -17.8989
 109   2.0000      -0.653701       -17.7881
 110   2.0000      -0.651258       -17.7216
 111   2.0000      -0.646467       -17.5913
 112   2.0000      -0.645512       -17.5653
 113   2.0000      -0.638004       -17.3610
 114   2.0000      -0.635864       -17.3027
 115   2.0000      -0.627683       -17.0801
 116   2.0000      -0.622395       -16.9362
 117   2.0000      -0.620455       -16.8834
 118   2.0000      -0.613639       -16.6980
 119   2.0000      -0.613043       -16.6817
 120   2.0000      -0.611823       -16.6485
 121   2.0000      -0.610612       -16.6156
 122   2.0000      -0.600595       -16.3430
 123   2.0000      -0.588520       -16.0144
 124   2.0000      -0.582460       -15.8496
 125   2.0000      -0.580792       -15.8042
 126   2.0000      -0.579835       -15.7781
 127   2.0000      -0.571484       -15.5509
 128   2.0000      -0.568083       -15.4583
 129   2.0000      -0.559702       -15.2303
 130   2.0000      -0.554502       -15.0888
 131   2.0000      -0.548156       -14.9161
 132   2.0000      -0.543054       -14.7772
 133   2.0000      -0.541306       -14.7297
 134   2.0000      -0.539281       -14.6746
 135   2.0000      -0.535415       -14.5694
 136   2.0000      -0.531194       -14.4545
 137   2.0000      -0.518274       -14.1030
 138   2.0000      -0.517858       -14.0916
 139   2.0000      -0.514043       -13.9878
 140   2.0000      -0.511854       -13.9282
 141   2.0000      -0.510568       -13.8933
 142   2.0000      -0.509036       -13.8516
 143   2.0000      -0.504808       -13.7365
 144   2.0000      -0.501401       -13.6438
 145   2.0000      -0.495469       -13.4824
 146   2.0000      -0.489569       -13.3219
 147   2.0000      -0.481455       -13.1011
 148   2.0000      -0.476748       -12.9730
 149   2.0000      -0.467774       -12.7288
 150   2.0000      -0.466137       -12.6842
 151   2.0000      -0.456468       -12.4211
 152   2.0000      -0.451184       -12.2773
 153   2.0000      -0.445293       -12.1170
 154   2.0000      -0.438649       -11.9363
 155   2.0000      -0.427498       -11.6328
 156   2.0000      -0.409249       -11.1362
 157   2.0000      -0.396510       -10.7896
 158   2.0000      -0.391677       -10.6581
 159   2.0000      -0.387841       -10.5537
 160   2.0000      -0.381047       -10.3688
 161   2.0000      -0.376926       -10.2567
 162   2.0000      -0.370186       -10.0733
 163   2.0000      -0.357544        -9.7293
 164   2.0000      -0.355131        -9.6636
 165   2.0000      -0.341591        -9.2952
 166   2.0000      -0.337818        -9.1925
 167   2.0000      -0.325218        -8.8496
 168   2.0000      -0.320372        -8.7178
 169   2.0000      -0.305984        -8.3263
 170   2.0000      -0.299202        -8.1417
 171   2.0000      -0.285257        -7.7622
 172   2.0000      -0.278501        -7.5784
 173   2.0000      -0.263219        -7.1626
 174   2.0000      -0.241658        -6.5758
 175   2.0000      -0.190077        -5.1723
 176   2.0000      -0.181177        -4.9301
 177   2.0000      -0.080051        -2.1783
 178   2.0000      -0.059700        -1.6245
 179   0.0000       0.028242         0.7685
 180   0.0000       0.065145         1.7727
 181   0.0000       0.090232         2.4553
 182   0.0000       0.105950         2.8831
 183   0.0000       0.115664         3.1474

MULLIKEN ATOMIC CHARGES
-----------------------
   0 C :    0.217533
   1 N :   -0.456124
   2 C :   -0.077961
   3 N :   -0.341446
   4 C :   -0.073078
   5 N :   -0.567879
   6 C :   -0.118369
   7 N :   -0.341017
   8 C :    0.219854
   9 N :   -0.562526
  10 C :    0.119092
  11 N :   -0.438153
  12 C :   -0.047876
  13 N :   -0.429211
  14 C :    0.209264
  15 N :   -0.441179
  16 C :    0.234501
  17 C :   -0.117636
  18 C :   -0.157145
  19 C :    0.202951
  20 C :    0.214481
  21 C :   -0.062989
  22 C :   -0.089328
  23 C :   -0.039568
  24 C :    0.194023
  25 C :    0.114420
  26 C :   -0.091993
  27 C :    0.215350
  28 C :   -0.061697
  29 C :   -0.183154
  30 C :    0.246117
  31 C :    0.231013
  32 C :   -0.061324
  33 C :   -0.059924
  34 C :   -0.050665
  35 C :    0.228310
  36 C :    0.108154
  37 C :   -0.064293
  38 C :    0.231501
  39 C :   -0.058076
  40 C :   -0.181100
  41 C :    0.225380
  42 C :    0.197046
  43 C :   -0.072678
  44 C :   -0.090195
  45 C :   -0.061727
  46 C :    0.211235
  47 C :    0.115476
  48 C :   -0.066795
  49 C :    0.238299
  50 C :   -0.046109
  51 C :   -0.195130
  52 H :    0.035383
  53 H :   -0.018018
  54 H :    0.044144
  55 H :    0.033587
  56 H :    0.049346
  57 H :    0.047348
  58 H :    0.046502
  59 H :   -0.013792
  60 H :    0.047306
  61 H :    0.171049
  62 H :    0.175711
  63 H :    0.055789
  64 H :   -0.018804
  65 H :    0.047116
  66 H :    0.055957
  67 H :    0.062916
  68 H :    0.057436
  69 H :    0.056635
  70 H :   -0.030072
  71 H :    0.045300
  72 H :    0.071633
  73 H :   -0.007876
  74 H :    0.060731
  75 H :    0.071031
  76 H :    0.075252
  77 H :    0.068208
  78 H :    0.067451
  79 H :   -0.016487
  80 H :    0.061547
  81 H :    0.054195
  82 H :   -0.025227
  83 H :    0.041480
  84 H :    0.053841
  85 H :    0.060621
  86 H :    0.055308
  87 H :    0.057094
  88 H :   -0.014373
  89 H :    0.047076
Sum of atomic charges:   -0.0000000

LOEWDIN ATOMIC CHARGES
----------------------
   0 C :   -0.022388
   1 N :    0.120620
   2 C :   -0.101678
   3 N :    0.182698
   4 C :   -0.013087
   5 N :   -0.133619
   6 C :   -0.030788
   7 N :    0.175021
   8 C :   -0.018356
   9 N :   -0.140739
  10 C :    0.022906
  11 N :    0.142623
  12 C :   -0.103587
  13 N :    0.166734
  14 C :   -0.017684
  15 N :    0.138312
  16 C :   -0.059906
  17 C :   -0.032487
  18 C :   -0.110721
  19 C :   -0.074886
  20 C :    0.005655
  21 C :   -0.113500
  22 C :    0.038459
  23 C :   -0.014368
  24 C :   -0.012100
  25 C :    0.029973
  26 C :   -0.108877
  27 C :   -0.117383
  28 C :   -0.027363
  29 C :   -0.098886
  30 C :   -0.030013
  31 C :    0.025163
  32 C :   -0.093759
  33 C :    0.082809
  34 C :   -0.014731
  35 C :    0.023114
  36 C :    0.035344
  37 C :   -0.093912
  38 C :   -0.051543
  39 C :   -0.017739
  40 C :   -0.108561
  41 C :   -0.092247
  42 C :   -0.010844
  43 C :   -0.099392
  44 C :    0.032953
  45 C :   -0.028584
  46 C :    0.001517
  47 C :    0.029396
  48 C :   -0.095106
  49 C :   -0.068867
  50 C :   -0.018649
  51 C :   -0.109574
  52 H :    0.022161
  53 H :    0.002399
  54 H :    0.003505
  55 H :    0.022033
  56 H :    0.021873
  57 H :    0.026150
  58 H :    0.026651
  59 H :    0.005894
  60 H :    0.010878
  61 H :    0.060172
  62 H :    0.061979
  63 H :    0.030979
  64 H :    0.004400
  65 H :    0.045920
  66 H :    0.029386
  67 H :    0.028463
  68 H :    0.031721
  69 H :    0.030428
  70 H :   -0.004876
  71 H :    0.043694
  72 H :    0.037881
  73 H :    0.007196
  74 H :    0.050852
  75 H :    0.037508
  76 H :    0.034971
  77 H :    0.036285
  78 H :    0.035946
  79 H :    0.003013
  80 H :    0.050832
  81 H :    0.028994
  82 H :   -0.002916
  83 H :    0.042302
  84 H :    0.029729
  85 H :    0.027260
  86 H :    0.030070
  87 H :    0.031350
  88 H :    0.002448
  89 H :    0.045099

  Mayer bond orders larger than 0.100000
B(  0-C ,  1-N ) :   1.0932 B(  0-C , 17-C ) :   1.7204 B(  0-C , 52-H ) :   0.9616
B(  1-N ,  8-C ) :   1.0960 B(  1-N , 10-C ) :   0.9778 B(  2-C , 12-C ) :   1.4840
B(  2-C , 16-C ) :   1.3749 B(  2-C , 53-H ) :   0.9728 B(  3-N , 14-C ) :   1.2219
B(  3-N , 16-C ) :   1.1813 B(  3-N , 61-H ) :   0.8987 B(  4-C ,  6-C ) :   1.2184
B(  4-C , 17-C ) :   1.2188 B(  4-C , 18-C ) :   1.4768 B(  5-N , 19-C ) :   1.4584
B(  5-N , 27-C ) :   1.3706 B(  6-C ,  8-C ) :   1.7200 B(  6-C , 54-H ) :   0.8887
B(  7-N , 30-C ) :   1.1947 B(  7-N , 38-C ) :   1.1899 B(  7-N , 62-H ) :   0.8966
B(  8-C , 55-H ) :   0.9626 B(  9-N , 41-C ) :   1.3929 B(  9-N , 49-C ) :   1.4267
B( 10-C , 56-H ) :   0.9775 B( 10-C , 57-H ) :   0.9831 B( 10-C , 58-H ) :   0.9834
B( 11-N , 20-C ) :   1.1323 B( 11-N , 24-C ) :   1.1078 B( 11-N , 25-C ) :   0.9597
B( 12-C , 14-C ) :   1.3604 B( 12-C , 59-H ) :   0.9282 B( 13-N , 31-C ) :   1.1628
B( 13-N , 35-C ) :   1.1604 B( 13-N , 36-C ) :   0.9410 B( 14-C , 18-C ) :   1.1153
B( 15-N , 42-C ) :   1.1069 B( 15-N , 46-C ) :   1.1239 B( 15-N , 47-C ) :   0.9616
B( 16-C , 51-C ) :   1.1664 B( 17-C , 60-H ) :   0.8912 B( 18-C , 19-C ) :   1.1149
B( 19-C , 21-C ) :   1.2522 B( 20-C , 28-C ) :   1.6274 B( 20-C , 63-H ) :   0.9702
B( 21-C , 26-C ) :   1.5843 B( 21-C , 64-H ) :   0.9314 B( 22-C , 23-C ) :   1.2908
B( 22-C , 28-C ) :   1.2648 B( 22-C , 29-C ) :   1.2242 B( 23-C , 24-C ) :   1.6187
B( 23-C , 65-H ) :   0.9703 B( 24-C , 66-H ) :   0.9695 B( 25-C , 67-H ) :   0.9761
B( 25-C , 68-H ) :   0.9828 B( 25-C , 69-H ) :   0.9823 B( 26-C , 27-C ) :   1.2594
B( 26-C , 70-H ) :   0.9669 B( 27-C , 29-C ) :   1.2064 B( 28-C , 71-H ) :   0.9720
B( 29-C , 30-C ) :   1.2483 B( 30-C , 32-C ) :   1.2772 B( 31-C , 39-C ) :   1.5871
B( 31-C , 72-H ) :   0.9681 B( 32-C , 37-C ) :   1.5818 B( 32-C , 73-H ) :   0.9786
B( 33-C , 34-C ) :   1.3082 B( 33-C , 39-C ) :   1.3043 B( 33-C , 40-C ) :   1.1743
B( 34-C , 35-C ) :   1.5843 B( 34-C , 74-H ) :   0.9696 B( 35-C , 75-H ) :   0.9681
B( 36-C , 76-H ) :   0.9768 B( 36-C , 77-H ) :   0.9815 B( 36-C , 78-H ) :   0.9823
B( 37-C , 38-C ) :   1.2830 B( 37-C , 79-H ) :   0.9765 B( 38-C , 40-C ) :   1.2355
B( 39-C , 80-H ) :   0.9705 B( 40-C , 41-C ) :   1.2507 B( 41-C , 43-C ) :   1.1850
B( 42-C , 50-C ) :   1.6343 B( 42-C , 81-H ) :   0.9697 B( 43-C , 48-C ) :   1.6677
B( 43-C , 82-H ) :   0.9720 B( 44-C , 45-C ) :   1.2625 B( 44-C , 50-C ) :   1.2714
B( 44-C , 51-C ) :   1.2632 B( 45-C , 46-C ) :   1.6355 B( 45-C , 83-H ) :   0.9719
B( 46-C , 84-H ) :   0.9700 B( 47-C , 85-H ) :   0.9762 B( 47-C , 86-H ) :   0.9829
B( 47-C , 87-H ) :   0.9825 B( 48-C , 49-C ) :   1.1885 B( 48-C , 88-H ) :   0.9749
B( 49-C , 51-C ) :   1.2443 B( 50-C , 89-H ) :   0.9708

MP2 TOTAL ENERGY:    -2130.795325133 Eh
FINAL SINGLE POINT ENERGY     -2130.795325133162

DIPOLE MOMENT
-------------
                                X             Y             Z
Electronic contribution:      2.69440      -4.47532      -0.21482
Nuclear contribution   :      0.05514       0.22386       0.21200
                        -----------------------------------------
Total Dipole Moment    :      2.74954      -4.25146      -0.00282
                        -----------------------------------------
Magnitude (a.u.)       :      5.06309
Magnitude (Debye)      :     12.86936

Rotational constants in cm-1:     0.001501     0.001479     0.000760
Rotational constants in MHz :    45.007724    44.353434    22.783966

                             ****ORCA TERMINATED NORMALLY****
TOTAL RUN TIME: 0 days 1 hours 18 minutes 20 seconds 923 msec
