                         Program Version 5.0.4 -  RELEASE  -
|  1> ! PAL2
|  2> ! mp2 cc-pvdz TightSCF  NoKeepInts
|  3>
|  4> %scf
|  5>   MaxCore 2000
|  6> end
|  7> %mp2
|  8>   MaxCore 2000
|  9> end
| 10> * xyz 0 1
| 11>    C       -4.95600         5.18100         0.09200
| 12>    C        1.47400         4.04100         0.05700
| 13>    C       -2.80200         4.09300         0.04900
| 14>    C       -2.21500         5.36800         0.03700
| 15>    C       -3.00900         6.49700         0.05500
| 16>    C       -5.18100         7.62400         0.13600
| 17>    C        0.13200         4.30700         0.06100
| 18>    C       -0.56900         3.05600         0.04700
| 19>    C        1.64900         2.61800         0.02300
| 20>    C       -4.20300         4.02300         0.08000
| 21>    N       -4.35900         6.39500         0.07900
| 22>    N        0.38800         2.06700         0.02500
| 23>    N       -2.01000         0.39500        -0.07500
| 24>    N       -0.38800        -2.07400        -0.02700
| 25>    N        2.01000        -0.40100         0.06500
| 26>    C       -1.96000         2.86100         0.02400
| 27>    C       -2.62300         1.61500        -0.01800
| 28>    C       -5.57300        -4.32900         1.06600
| 29>    C       -4.07300         1.47100         0.05600
| 30>    C       -4.10600        -2.75600        -0.02600
| 31>    C       -4.99500        -2.75700        -1.11100
| 32>    C       -6.13200        -3.54200        -1.07600
| 33>    C       -7.65100        -5.11300         0.04000
| 34>    C       -4.32400         0.14100         0.03700
| 35>    C       -3.02500        -0.52000        -0.04800
| 36>    C       -4.42200        -3.56600         1.07500
| 37>    N       -6.40700        -4.31300         0.00100
| 38>    C       -2.86700        -1.92200        -0.04000
| 39>    C       -1.65000        -2.62400        -0.02700
| 40>    C        3.56800        -6.14200        -1.04000
| 41>    C       -1.47600        -4.04900        -0.03400
| 42>    C        2.80300        -4.09900        -0.00800
| 43>    C        3.65700        -4.38400         1.06900
| 44>    C        4.42700        -5.53000         1.05900
| 45>    C        5.24500        -7.58800         0.01400
| 46>    C       -0.13400        -4.31500        -0.02200
| 47>    C        0.56800        -3.06400        -0.02700
| 48>    C        2.77500        -5.01200        -1.07400
| 49>    N        4.37600        -6.39100         0.01700
| 50>    C        1.95900        -2.86900        -0.00900
| 51>    C        2.62100        -1.62200         0.00900
| 52>    C        5.54300         4.33900        -1.13000
| 53>    C        4.07000        -1.47900        -0.09400
| 54>    C        4.10400         2.75100        -0.02100
| 55>    C        5.02700         2.72900         1.03600
| 56>    C        6.16600         3.50900         0.97800
| 57>    C        7.61900         5.15300        -0.11500
| 58>    C        4.32100        -0.14800        -0.09200
| 59>    C        3.02500         0.51400         0.01500
| 60>    C        4.38700         3.58200        -1.11500
| 61>    C        2.86600         1.91600         0.01300
| 62>    N        6.41300         4.29600        -0.09500
| 63>    H       -6.03900         5.17500         0.10300
| 64>    H        2.27400         4.76600         0.08100
| 65>    H       -1.13900         5.48700         0.02300
| 66>    H       -2.60300         7.50000         0.05600
| 67>    H       -5.29000         7.93000         1.17900
| 68>    H       -4.68200         8.40700        -0.43400
| 69>    H       -6.15800         7.41200        -0.29600
| 70>    H       -0.33200         5.28200         0.06900
| 71>    H       -4.71600         3.06800         0.07600
| 72>    H        0.18200         1.07200         0.00500
| 73>    H       -0.18300        -1.08000        -0.02100
| 74>    H       -5.86400        -4.96200         1.89500
| 75>    H       -4.79400         2.27200         0.13900
| 76>    H       -4.80000        -2.16000        -1.99400
| 77>    H       -6.84100        -3.58200        -1.89300
| 78>    H       -8.42800        -4.53600         0.54600
| 79>    H       -7.95600        -5.33700        -0.98100
| 80>    H       -7.45600        -6.03700         0.58400
| 81>    H       -5.28700        -0.34400         0.10000
| 82>    H       -3.78000        -3.60100         1.94700
| 83>    H        3.58700        -6.86800        -1.84300
| 84>    H       -2.27600        -4.77400        -0.05000
| 85>    H        3.71400        -3.72400         1.92600
| 86>    H        5.09200        -5.79500         1.87100
| 87>    H        6.20500        -7.32900        -0.43900
| 88>    H        5.39300        -7.91700         1.04200
| 89>    H        4.75900        -8.37300        -0.56400
| 90>    H        0.32900        -5.29000        -0.00800
| 91>    H        2.14600        -4.84200        -1.94000
| 92>    H        5.80800         4.98600        -1.95600
| 93>    H        4.78800        -2.28100        -0.18500
| 94>    H        4.86000         2.11400         1.91200
| 95>    H        6.90100         3.53100         1.77200
| 96>    H        7.38300         6.10900         0.35600
| 97>    H        8.41400         4.65200         0.43500
| 98>    H        7.92100         5.31000        -1.15000
| 99>    H        5.28300         0.33600        -0.17900
|100>    H        3.72000         3.63200        -1.96700
|101> *
|102>
|103>                          ****END OF INPUT****

CARTESIAN COORDINATES (ANGSTROEM)
---------------------------------
  C     -4.956000    5.181000    0.092000
  C      1.474000    4.041000    0.057000
  C     -2.802000    4.093000    0.049000
  C     -2.215000    5.368000    0.037000
  C     -3.009000    6.497000    0.055000
  C     -5.181000    7.624000    0.136000
  C      0.132000    4.307000    0.061000
  C     -0.569000    3.056000    0.047000
  C      1.649000    2.618000    0.023000
  C     -4.203000    4.023000    0.080000
  N     -4.359000    6.395000    0.079000
  N      0.388000    2.067000    0.025000
  N     -2.010000    0.395000   -0.075000
  N     -0.388000   -2.074000   -0.027000
  N      2.010000   -0.401000    0.065000
  C     -1.960000    2.861000    0.024000
  C     -2.623000    1.615000   -0.018000
  C     -5.573000   -4.329000    1.066000
  C     -4.073000    1.471000    0.056000
  C     -4.106000   -2.756000   -0.026000
  C     -4.995000   -2.757000   -1.111000
  C     -6.132000   -3.542000   -1.076000
  C     -7.651000   -5.113000    0.040000
  C     -4.324000    0.141000    0.037000
  C     -3.025000   -0.520000   -0.048000
  C     -4.422000   -3.566000    1.075000
  N     -6.407000   -4.313000    0.001000
  C     -2.867000   -1.922000   -0.040000
  C     -1.650000   -2.624000   -0.027000
  C      3.568000   -6.142000   -1.040000
  C     -1.476000   -4.049000   -0.034000
  C      2.803000   -4.099000   -0.008000
  C      3.657000   -4.384000    1.069000
  C      4.427000   -5.530000    1.059000
  C      5.245000   -7.588000    0.014000
  C     -0.134000   -4.315000   -0.022000
  C      0.568000   -3.064000   -0.027000
  C      2.775000   -5.012000   -1.074000
  N      4.376000   -6.391000    0.017000
  C      1.959000   -2.869000   -0.009000
  C      2.621000   -1.622000    0.009000
  C      5.543000    4.339000   -1.130000
  C      4.070000   -1.479000   -0.094000
  C      4.104000    2.751000   -0.021000
  C      5.027000    2.729000    1.036000
  C      6.166000    3.509000    0.978000
  C      7.619000    5.153000   -0.115000
  C      4.321000   -0.148000   -0.092000
  C      3.025000    0.514000    0.015000
  C      4.387000    3.582000   -1.115000
  C      2.866000    1.916000    0.013000
  N      6.413000    4.296000   -0.095000
  H     -6.039000    5.175000    0.103000
  H      2.274000    4.766000    0.081000
  H     -1.139000    5.487000    0.023000
  H     -2.603000    7.500000    0.056000
  H     -5.290000    7.930000    1.179000
  H     -4.682000    8.407000   -0.434000
  H     -6.158000    7.412000   -0.296000
  H     -0.332000    5.282000    0.069000
  H     -4.716000    3.068000    0.076000
  H      0.182000    1.072000    0.005000
  H     -0.183000   -1.080000   -0.021000
  H     -5.864000   -4.962000    1.895000
  H     -4.794000    2.272000    0.139000
  H     -4.800000   -2.160000   -1.994000
  H     -6.841000   -3.582000   -1.893000
  H     -8.428000   -4.536000    0.546000
  H     -7.956000   -5.337000   -0.981000
  H     -7.456000   -6.037000    0.584000
  H     -5.287000   -0.344000    0.100000
  H     -3.780000   -3.601000    1.947000
  H      3.587000   -6.868000   -1.843000
  H     -2.276000   -4.774000   -0.050000
  H      3.714000   -3.724000    1.926000
  H      5.092000   -5.795000    1.871000
  H      6.205000   -7.329000   -0.439000
  H      5.393000   -7.917000    1.042000
  H      4.759000   -8.373000   -0.564000
  H      0.329000   -5.290000   -0.008000
  H      2.146000   -4.842000   -1.940000
  H      5.808000    4.986000   -1.956000
  H      4.788000   -2.281000   -0.185000
  H      4.860000    2.114000    1.912000
  H      6.901000    3.531000    1.772000
  H      7.383000    6.109000    0.356000
  H      8.414000    4.652000    0.435000
  H      7.921000    5.310000   -1.150000
  H      5.283000    0.336000   -0.179000
  H      3.720000    3.632000   -1.967000

 Total Charge           Charge          ....    0
 Multiplicity           Mult            ....    1
 Number of Electrons    NEL             ....  358
 Basis Dimension        Dim             ....  918

ORBITAL ENERGIES
----------------

  NO   OCC          E(Eh)            E(eV)
   0   2.0000     -15.679617      -426.6641
   1   2.0000     -15.633992      -425.4226
   2   2.0000     -15.631538      -425.3558
   3   2.0000     -15.587991      -424.1708
   4   2.0000     -15.524999      -422.4567
   5   2.0000     -15.515375      -422.1948
   6   2.0000     -15.453555      -420.5126
   7   2.0000     -15.439492      -420.1299
   8   2.0000     -11.329283      -308.2855
   9   2.0000     -11.328170      -308.2552
  10   2.0000     -11.327805      -308.2452
  11   2.0000     -11.299356      -307.4711
  12   2.0000     -11.298209      -307.4399
  13   2.0000     -11.293044      -307.2994
  14   2.0000     -11.290982      -307.2432
  15   2.0000     -11.286540      -307.1224
  16   2.0000     -11.286262      -307.1148
  17   2.0000     -11.281867      -306.9952
  18   2.0000     -11.269365      -306.6550
  19   2.0000     -11.263165      -306.4863
  20   2.0000     -11.262172      -306.4593
  21   2.0000     -11.250187      -306.1332
  22   2.0000     -11.248556      -306.0888
  23   2.0000     -11.237760      -305.7950
  24   2.0000     -11.236324      -305.7559
  25   2.0000     -11.231166      -305.6156
  26   2.0000     -11.230495      -305.5973
  27   2.0000     -11.229537      -305.5712
  28   2.0000     -11.229359      -305.5664
  29   2.0000     -11.211059      -305.0684
  30   2.0000     -11.209453      -305.0247
  31   2.0000     -11.194142      -304.6081
  32   2.0000     -11.192410      -304.5610
  33   2.0000     -11.191041      -304.5237
  34   2.0000     -11.188106      -304.4439
  35   2.0000     -11.187889      -304.4379
  36   2.0000     -11.186583      -304.4024
  37   2.0000     -11.174516      -304.0740
  38   2.0000     -11.172489      -304.0189
  39   2.0000     -11.170645      -303.9687
  40   2.0000     -11.169921      -303.9490
  41   2.0000     -11.168449      -303.9089
  42   2.0000     -11.166295      -303.8503
  43   2.0000     -11.161509      -303.7201
  44   2.0000     -11.161362      -303.7161
  45   2.0000     -11.156583      -303.5861
  46   2.0000     -11.156346      -303.5796
  47   2.0000     -11.150664      -303.4250
  48   2.0000     -11.147058      -303.3269
  49   2.0000     -11.135898      -303.0232
  50   2.0000     -11.130049      -302.8640
  51   2.0000     -11.118288      -302.5440
  52   2.0000      -1.360216       -37.0134
  53   2.0000      -1.321241       -35.9528
  54   2.0000      -1.319371       -35.9019
  55   2.0000      -1.279593       -34.8195
  56   2.0000      -1.226097       -33.3638
  57   2.0000      -1.210358       -32.9355
  58   2.0000      -1.173179       -31.9238
  59   2.0000      -1.150895       -31.3175
  60   2.0000      -1.143457       -31.1150
  61   2.0000      -1.110313       -30.2131
  62   2.0000      -1.108736       -30.1702
  63   2.0000      -1.081899       -29.4400
  64   2.0000      -1.077573       -29.3223
  65   2.0000      -1.045432       -28.4476
  66   2.0000      -1.044039       -28.4098
  67   2.0000      -1.040939       -28.3254
  68   2.0000      -1.015422       -27.6310
  69   2.0000      -1.014773       -27.6134
  70   2.0000      -1.009111       -27.4593
  71   2.0000      -0.993486       -27.0341
  72   2.0000      -0.985603       -26.8196
  73   2.0000      -0.981786       -26.7158
  74   2.0000      -0.974376       -26.5141
  75   2.0000      -0.962098       -26.1800
  76   2.0000      -0.954676       -25.9781
  77   2.0000      -0.947012       -25.7695
  78   2.0000      -0.939596       -25.5677
  79   2.0000      -0.916674       -24.9440
  80   2.0000      -0.910497       -24.7759
  81   2.0000      -0.898751       -24.4563
  82   2.0000      -0.877425       -23.8759
  83   2.0000      -0.872306       -23.7366
  84   2.0000      -0.870793       -23.6955
  85   2.0000      -0.861880       -23.4530
  86   2.0000      -0.845679       -23.0121
  87   2.0000      -0.839310       -22.8388
  88   2.0000      -0.829562       -22.5735
  89   2.0000      -0.796289       -21.6681
  90   2.0000      -0.789470       -21.4826
  91   2.0000      -0.777028       -21.1440
  92   2.0000      -0.752927       -20.4882
  93   2.0000      -0.734463       -19.9857
  94   2.0000      -0.729409       -19.8482
  95   2.0000      -0.726922       -19.7805
  96   2.0000      -0.720664       -19.6103
  97   2.0000      -0.717817       -19.5328
  98   2.0000      -0.714057       -19.4305
  99   2.0000      -0.700179       -19.0528
 100   2.0000      -0.698298       -19.0017
 101   2.0000      -0.694635       -18.9020
 102   2.0000      -0.685331       -18.6488
 103   2.0000      -0.684178       -18.6174
 104   2.0000      -0.678971       -18.4757
 105   2.0000      -0.674377       -18.3507
 106   2.0000      -0.672745       -18.3063
 107   2.0000      -0.660985       -17.9863
 108   2.0000      -0.658211       -17.9108
 109   2.0000      -0.652911       -17.7666
 110   2.0000      -0.651931       -17.7400
 111   2.0000      -0.646107       -17.5815
 112   2.0000      -0.645665       -17.5694
 113   2.0000      -0.638262       -17.3680
 114   2.0000      -0.635367       -17.2892
 115   2.0000      -0.628729       -17.1086
 116   2.0000      -0.623108       -16.9556
 117   2.0000      -0.620467       -16.8838
 118   2.0000      -0.612923       -16.6785
 119   2.0000      -0.612309       -16.6618
 120   2.0000      -0.611691       -16.6450
 121   2.0000      -0.611182       -16.6311
 122   2.0000      -0.601464       -16.3667
 123   2.0000      -0.589526       -16.0418
 124   2.0000      -0.581695       -15.8287
 125   2.0000      -0.580660       -15.8006
 126   2.0000      -0.580339       -15.7918
 127   2.0000      -0.570933       -15.5359
 128   2.0000      -0.566561       -15.4169
 129   2.0000      -0.559862       -15.2346
 130   2.0000      -0.556045       -15.1308
 131   2.0000      -0.547687       -14.9033
 132   2.0000      -0.542700       -14.7676
 133   2.0000      -0.540306       -14.7025
 134   2.0000      -0.538851       -14.6629
 135   2.0000      -0.535991       -14.5850
 136   2.0000      -0.532041       -14.4776
 137   2.0000      -0.518033       -14.0964
 138   2.0000      -0.516794       -14.0627
 139   2.0000      -0.514061       -13.9883
 140   2.0000      -0.511662       -13.9230
 141   2.0000      -0.510070       -13.8797
 142   2.0000      -0.507160       -13.8005
 143   2.0000      -0.505861       -13.7652
 144   2.0000      -0.502138       -13.6639
 145   2.0000      -0.495560       -13.4849
 146   2.0000      -0.488432       -13.2909
 147   2.0000      -0.481300       -13.0968
 148   2.0000      -0.476236       -12.9590
 149   2.0000      -0.467637       -12.7251
 150   2.0000      -0.466103       -12.6833
 151   2.0000      -0.456004       -12.4085
 152   2.0000      -0.451195       -12.2776
 153   2.0000      -0.445283       -12.1168
 154   2.0000      -0.438099       -11.9213
 155   2.0000      -0.427882       -11.6433
 156   2.0000      -0.408987       -11.1291
 157   2.0000      -0.390808       -10.6344
 158   2.0000      -0.387618       -10.5476
 159   2.0000      -0.382890       -10.4190
 160   2.0000      -0.378200       -10.2914
 161   2.0000      -0.373112       -10.1529
 162   2.0000      -0.358269        -9.7490
 163   2.0000      -0.356671        -9.7055
 164   2.0000      -0.355654        -9.6778
 165   2.0000      -0.341570        -9.2946
 166   2.0000      -0.337502        -9.1839
 167   2.0000      -0.324803        -8.8383
 168   2.0000      -0.321685        -8.7535
 169   2.0000      -0.305316        -8.3081
 170   2.0000      -0.299197        -8.1416
 171   2.0000      -0.286138        -7.7862
 172   2.0000      -0.278144        -7.5687
 173   2.0000      -0.263268        -7.1639
 174   2.0000      -0.242381        -6.5955
 175   2.0000      -0.189992        -5.1699
 176   2.0000      -0.181449        -4.9375
 177   2.0000      -0.080267        -2.1842
 178   2.0000      -0.059616        -1.6222
 179   0.0000       0.028511         0.7758
 180   0.0000       0.065470         1.7815
 181   0.0000       0.090331         2.4580
 182   0.0000       0.106402         2.8954
 183   0.0000       0.117145         3.1877

MULLIKEN ATOMIC CHARGES
-----------------------
   0 C :    0.225354
   1 N :   -0.456094
   2 C :   -0.063739
   3 N :   -0.340820
   4 C :   -0.142951
   5 N :   -0.568888
   6 C :   -0.096127
   7 N :   -0.341060
   8 C :    0.227812
   9 N :   -0.562498
  10 C :    0.120195
  11 N :   -0.438397
  12 C :   -0.059667
  13 N :   -0.429371
  14 C :    0.211509
  15 N :   -0.440974
  16 C :    0.235160
  17 C :   -0.094433
  18 C :   -0.178368
  19 C :    0.211196
  20 C :    0.213814
  21 C :   -0.060455
  22 C :   -0.090512
  23 C :   -0.039534
  24 C :    0.193232
  25 C :    0.114608
  26 C :   -0.080853
  27 C :    0.219269
  28 C :   -0.061829
  29 C :   -0.183059
  30 C :    0.245208
  31 C :    0.230407
  32 C :   -0.061141
  33 C :   -0.059970
  34 C :   -0.051113
  35 C :    0.228540
  36 C :    0.108216
  37 C :   -0.064751
  38 C :    0.231465
  39 C :   -0.057739
  40 C :   -0.182019
  41 C :    0.225944
  42 C :    0.197040
  43 C :   -0.072876
  44 C :   -0.089676
  45 C :   -0.061641
  46 C :    0.211644
  47 C :    0.115389
  48 C :   -0.066502
  49 C :    0.237586
  50 C :   -0.046134
  51 C :   -0.192808
  52 H :    0.031666
  53 H :   -0.019085
  54 H :    0.062325
  55 H :    0.030013
  56 H :    0.049344
  57 H :    0.046767
  58 H :    0.046729
  59 H :   -0.019551
  60 H :    0.073656
  61 H :    0.170907
  62 H :    0.175447
  63 H :    0.055284
  64 H :   -0.044373
  65 H :    0.046864
  66 H :    0.055488
  67 H :    0.062381
  68 H :    0.057187
  69 H :    0.056348
  70 H :   -0.031101
  71 H :    0.044839
  72 H :    0.071421
  73 H :   -0.007942
  74 H :    0.060524
  75 H :    0.070861
  76 H :    0.075066
  77 H :    0.068080
  78 H :    0.067371
  79 H :   -0.016748
  80 H :    0.061424
  81 H :    0.054303
  82 H :   -0.025113
  83 H :    0.041886
  84 H :    0.054156
  85 H :    0.060792
  86 H :    0.055524
  87 H :    0.057226
  88 H :   -0.014466
  89 H :    0.046914
Sum of atomic charges:   -0.0000000

LOEWDIN ATOMIC CHARGES
----------------------
   0 C :   -0.020525
   1 N :    0.122451
   2 C :   -0.099841
   3 N :    0.182295
   4 C :   -0.009820
   5 N :   -0.134926
   6 C :   -0.019014
   7 N :    0.175027
   8 C :   -0.017541
   9 N :   -0.140701
  10 C :    0.022719
  11 N :    0.141883
  12 C :   -0.089702
  13 N :    0.166415
  14 C :   -0.014702
  15 N :    0.138724
  16 C :   -0.060987
  17 C :   -0.014946
  18 C :   -0.116368
  19 C :   -0.072195
  20 C :    0.004887
  21 C :   -0.092275
  22 C :    0.037231
  23 C :   -0.014533
  24 C :   -0.013086
  25 C :    0.029794
  26 C :   -0.107130
  27 C :   -0.117258
  28 C :   -0.027693
  29 C :   -0.098691
  30 C :   -0.030416
  31 C :    0.024567
  32 C :   -0.093899
  33 C :    0.082485
  34 C :   -0.015098
  35 C :    0.023260
  36 C :    0.035272
  37 C :   -0.094419
  38 C :   -0.051799
  39 C :   -0.017611
  40 C :   -0.109297
  41 C :   -0.091251
  42 C :   -0.010796
  43 C :   -0.099605
  44 C :    0.033613
  45 C :   -0.028348
  46 C :    0.001990
  47 C :    0.029487
  48 C :   -0.094691
  49 C :   -0.069785
  50 C :   -0.018616
  51 C :   -0.108155
  52 H :    0.021674
  53 H :    0.002424
  54 H :   -0.019026
  55 H :    0.021420
  56 H :    0.021949
  57 H :    0.025890
  58 H :    0.026683
  59 H :    0.002187
  60 H :   -0.022138
  61 H :    0.060348
  62 H :    0.061909
  63 H :    0.030741
  64 H :   -0.002807
  65 H :    0.045807
  66 H :    0.029162
  67 H :    0.028197
  68 H :    0.031603
  69 H :    0.030287
  70 H :   -0.004940
  71 H :    0.043490
  72 H :    0.037767
  73 H :    0.007178
  74 H :    0.050744
  75 H :    0.037446
  76 H :    0.034880
  77 H :    0.036226
  78 H :    0.035906
  79 H :    0.002890
  80 H :    0.050803
  81 H :    0.029039
  82 H :   -0.002856
  83 H :    0.042481
  84 H :    0.029877
  85 H :    0.027347
  86 H :    0.030171
  87 H :    0.031409
  88 H :    0.002413
  89 H :    0.045041

  Mayer bond orders larger than 0.100000
B(  0-C ,  1-N ) :   1.0953 B(  0-C , 17-C ) :   1.7374 B(  0-C , 52-H ) :   0.9574
B(  1-N ,  8-C ) :   1.0998 B(  1-N , 10-C ) :   0.9771 B(  2-C , 12-C ) :   1.4828
B(  2-C , 16-C ) :   1.3820 B(  2-C , 53-H ) :   0.9697 B(  3-N , 14-C ) :   1.2276
B(  3-N , 16-C ) :   1.1767 B(  3-N , 61-H ) :   0.8969 B(  4-C ,  6-C ) :   1.2320
B(  4-C , 17-C ) :   1.2328 B(  4-C , 18-C ) :   1.4918 B(  5-N , 19-C ) :   1.4662
B(  5-N , 27-C ) :   1.3668 B(  6-C ,  8-C ) :   1.7347 B(  6-C , 54-H ) :   0.8532
B(  7-N , 30-C ) :   1.1945 B(  7-N , 38-C ) :   1.1901 B(  7-N , 62-H ) :   0.8967
B(  8-C , 55-H ) :   0.9591 B(  9-N , 41-C ) :   1.3950 B(  9-N , 49-C ) :   1.4244
B( 10-C , 56-H ) :   0.9777 B( 10-C , 57-H ) :   0.9825 B( 10-C , 58-H ) :   0.9835
B( 11-N , 20-C ) :   1.1313 B( 11-N , 24-C ) :   1.1066 B( 11-N , 25-C ) :   0.9602
B( 12-C , 14-C ) :   1.3654 B( 12-C , 59-H ) :   0.8944 B( 13-N , 31-C ) :   1.1618
B( 13-N , 35-C ) :   1.1605 B( 13-N , 36-C ) :   0.9413 B( 14-C , 18-C ) :   1.1157
B( 15-N , 42-C ) :   1.1074 B( 15-N , 46-C ) :   1.1245 B( 15-N , 47-C ) :   0.9614
B( 16-C , 51-C ) :   1.1678 B( 17-C , 60-H ) :   0.8349 B( 18-C , 19-C ) :   1.1150
B( 19-C , 21-C ) :   1.2545 B( 20-C , 28-C ) :   1.6286 B( 20-C , 63-H ) :   0.9702
B( 21-C , 26-C ) :   1.5804 B( 21-C , 64-H ) :   0.8831 B( 22-C , 23-C ) :   1.2898
B( 22-C , 28-C ) :   1.2636 B( 22-C , 29-C ) :   1.2259 B( 23-C , 24-C ) :   1.6198
B( 23-C , 65-H ) :   0.9703 B( 24-C , 66-H ) :   0.9696 B( 25-C , 67-H ) :   0.9760
B( 25-C , 68-H ) :   0.9828 B( 25-C , 69-H ) :   0.9823 B( 26-C , 27-C ) :   1.2680
B( 26-C , 70-H ) :   0.9648 B( 27-C , 29-C ) :   1.2070 B( 28-C , 71-H ) :   0.9720
B( 29-C , 30-C ) :   1.2472 B( 30-C , 32-C ) :   1.2786 B( 31-C , 39-C ) :   1.5876
B( 31-C , 72-H ) :   0.9681 B( 32-C , 37-C ) :   1.5804 B( 32-C , 73-H ) :   0.9786
B( 33-C , 34-C ) :   1.3071 B( 33-C , 39-C ) :   1.3041 B( 33-C , 40-C ) :   1.1762
B( 34-C , 35-C ) :   1.5852 B( 34-C , 74-H ) :   0.9696 B( 35-C , 75-H ) :   0.9681
B( 36-C , 76-H ) :   0.9768 B( 36-C , 77-H ) :   0.9816 B( 36-C , 78-H ) :   0.9823
B( 37-C , 38-C ) :   1.2844 B( 37-C , 79-H ) :   0.9764 B( 38-C , 40-C ) :   1.2343
B( 39-C , 80-H ) :   0.9705 B( 40-C , 41-C ) :   1.2498 B( 41-C , 43-C ) :   1.1847
B( 42-C , 50-C ) :   1.6331 B( 42-C , 81-H ) :   0.9697 B( 43-C , 48-C ) :   1.6682
B( 43-C , 82-H ) :   0.9721 B( 44-C , 45-C ) :   1.2632 B( 44-C , 50-C ) :   1.2725
B( 44-C , 51-C ) :   1.2611 B( 45-C , 46-C ) :   1.6347 B( 45-C , 83-H ) :   0.9718
B( 46-C , 84-H ) :   0.9700 B( 47-C , 85-H ) :   0.9762 B( 47-C , 86-H ) :   0.9829
B( 47-C , 87-H ) :   0.9824 B( 48-C , 49-C ) :   1.1881 B( 48-C , 88-H ) :   0.9749
B( 49-C , 51-C ) :   1.2459 B( 50-C , 89-H ) :   0.9708 B( 54-H , 59-H ) :   0.1202
B( 60-H , 64-H ) :   0.1376

MP2 TOTAL ENERGY:    -2130.728867079 Eh
FINAL SINGLE POINT ENERGY     -2130.728867079175

DIPOLE MOMENT
-------------
                                X             Y             Z
Electronic contribution:      2.72149      -4.34228      -0.19674
Nuclear contribution   :      0.06479       0.22990       0.19876
                        -----------------------------------------
Total Dipole Moment    :      2.78628      -4.11238       0.00202
                        -----------------------------------------
Magnitude (a.u.)       :      4.96740
Magnitude (Debye)      :     12.62612

Rotational constants in cm-1:     0.001502     0.001480     0.000760
Rotational constants in MHz :    45.014082    44.359617    22.779932

                             ****ORCA TERMINATED NORMALLY****
TOTAL RUN TIME: 0 days 1 hours 18 minutes 25 seconds 479 msec
