                         Program Version 5.0.4 -  RELEASE  -
|  1> ! PAL2
|  2> ! mp2 cc-pvdz TightSCF  NoKeepInts
|  3>
|  4> %scf
|  5>   MaxCore 2000
|  6> end
|  7> %mp2
|  8>   MaxCore 2000
|  9> end
| 10> * xyz 0 1
| 11>    C       -4.91200         5.21800        -0.27400
| 12>    C        1.47400         4.04100         0.05700
| 13>    C       -2.80200         4.09300         0.04900
| 14>    C       -2.25600         5.33300         0.41600
| 15>    C       -3.04800         6.46300         0.42900
| 16>    C       -5.18600         7.62000         0.14400
| 17>    C        0.13200         4.30700         0.06100
| 18>    C       -0.56900         3.05600         0.04700
| 19>    C        1.64900         2.61800         0.02300
| 20>    C       -4.16200         4.05900        -0.29700
| 21>    N       -4.35500         6.39700         0.08400
| 22>    N        0.38800         2.06700         0.02500
| 23>    N       -2.01000         0.39500        -0.07500
| 24>    N       -0.38800        -2.07400        -0.02700
| 25>    N        2.01000        -0.40100         0.06500
| 26>    C       -1.96000         2.86100         0.02400
| 27>    C       -2.62300         1.61500        -0.01800
| 28>    C       -5.57300        -4.32900         1.06600
| 29>    C       -4.07300         1.47100         0.05600
| 30>    C       -4.10600        -2.75600        -0.02600
| 31>    C       -4.99500        -2.75700        -1.11100
| 32>    C       -6.13200        -3.54200        -1.07600
| 33>    C       -7.65100        -5.11300         0.04000
| 34>    C       -4.32400         0.14100         0.03700
| 35>    C       -3.02500        -0.52000        -0.04800
| 36>    C       -4.42200        -3.56600         1.07500
| 37>    N       -6.40700        -4.31300         0.00100
| 38>    C       -2.86700        -1.92200        -0.04000
| 39>    C       -1.65000        -2.62400        -0.02700
| 40>    C        3.56800        -6.14200        -1.04000
| 41>    C       -1.47600        -4.04900        -0.03400
| 42>    C        2.80300        -4.09900        -0.00800
| 43>    C        3.65700        -4.38400         1.06900
| 44>    C        4.42700        -5.53000         1.05900
| 45>    C        5.24500        -7.58800         0.01400
| 46>    C       -0.13400        -4.31500        -0.02200
| 47>    C        0.56800        -3.06400        -0.02700
| 48>    C        2.77500        -5.01200        -1.07400
| 49>    N        4.37600        -6.39100         0.01700
| 50>    C        1.95900        -2.86900        -0.00900
| 51>    C        2.62100        -1.62200         0.00900
| 52>    C        5.54300         4.33900        -1.13000
| 53>    C        4.07000        -1.47900        -0.09400
| 54>    C        4.10400         2.75100        -0.02100
| 55>    C        5.02700         2.72900         1.03600
| 56>    C        6.16600         3.50900         0.97800
| 57>    C        7.61900         5.15300        -0.11500
| 58>    C        4.32100        -0.14800        -0.09200
| 59>    C        3.02500         0.51400         0.01500
| 60>    C        4.38700         3.58200        -1.11500
| 61>    C        2.86600         1.91600         0.01300
| 62>    N        6.41300         4.29600        -0.09500
| 63>    H       -5.96100         5.24100        -0.54500
| 64>    H        2.27400         4.76600         0.08100
| 65>    H       -1.21500         5.42200         0.70200
| 66>    H       -2.67400         7.43800         0.71300
| 67>    H       -5.56800         7.74000         1.16100
| 68>    H       -4.57000         8.47700        -0.12900
| 69>    H       -6.01400         7.51600        -0.55700
| 70>    H       -0.33200         5.28200         0.06900
| 71>    H       -4.63900         3.13500        -0.60300
| 72>    H        0.18200         1.07200         0.00500
| 73>    H       -0.18300        -1.08000        -0.02100
| 74>    H       -5.86400        -4.96200         1.89500
| 75>    H       -4.79400         2.27200         0.13900
| 76>    H       -4.80000        -2.16000        -1.99400
| 77>    H       -6.84100        -3.58200        -1.89300
| 78>    H       -8.42800        -4.53600         0.54600
| 79>    H       -7.95600        -5.33700        -0.98100
| 80>    H       -7.45600        -6.03700         0.58400
| 81>    H       -5.28700        -0.34400         0.10000
| 82>    H       -3.78000        -3.60100         1.94700
| 83>    H        3.58700        -6.86800        -1.84300
| 84>    H       -2.27600        -4.77400        -0.05000
| 85>    H        3.71400        -3.72400         1.92600
| 86>    H        5.09200        -5.79500         1.87100
| 87>    H        6.20500        -7.32900        -0.43900
| 88>    H        5.39300        -7.91700         1.04200
| 89>    H        4.75900        -8.37300        -0.56400
| 90>    H        0.32900        -5.29000        -0.00800
| 91>    H        2.14600        -4.84200        -1.94000
| 92>    H        5.80800         4.98600        -1.95600
| 93>    H        4.78800        -2.28100        -0.18500
| 94>    H        4.86000         2.11400         1.91200
| 95>    H        6.90100         3.53100         1.77200
| 96>    H        7.38300         6.10900         0.35600
| 97>    H        8.41400         4.65200         0.43500
| 98>    H        7.92100         5.31000        -1.15000
| 99>    H        5.28300         0.33600        -0.17900
|100>    H        3.72000         3.63200        -1.96700
|101> *
|102>
|103>                          ****END OF INPUT****

CARTESIAN COORDINATES (ANGSTROEM)
---------------------------------
  C     -4.912000    5.218000   -0.274000
  C      1.474000    4.041000    0.057000
  C     -2.802000    4.093000    0.049000
  C     -2.256000    5.333000    0.416000
  C     -3.048000    6.463000    0.429000
  C     -5.186000    7.620000    0.144000
  C      0.132000    4.307000    0.061000
  C     -0.569000    3.056000    0.047000
  C      1.649000    2.618000    0.023000
  C     -4.162000    4.059000   -0.297000
  N     -4.355000    6.397000    0.084000
  N      0.388000    2.067000    0.025000
  N     -2.010000    0.395000   -0.075000
  N     -0.388000   -2.074000   -0.027000
  N      2.010000   -0.401000    0.065000
  C     -1.960000    2.861000    0.024000
  C     -2.623000    1.615000   -0.018000
  C     -5.573000   -4.329000    1.066000
  C     -4.073000    1.471000    0.056000
  C     -4.106000   -2.756000   -0.026000
  C     -4.995000   -2.757000   -1.111000
  C     -6.132000   -3.542000   -1.076000
  C     -7.651000   -5.113000    0.040000
  C     -4.324000    0.141000    0.037000
  C     -3.025000   -0.520000   -0.048000
  C     -4.422000   -3.566000    1.075000
  N     -6.407000   -4.313000    0.001000
  C     -2.867000   -1.922000   -0.040000
  C     -1.650000   -2.624000   -0.027000
  C      3.568000   -6.142000   -1.040000
  C     -1.476000   -4.049000   -0.034000
  C      2.803000   -4.099000   -0.008000
  C      3.657000   -4.384000    1.069000
  C      4.427000   -5.530000    1.059000
  C      5.245000   -7.588000    0.014000
  C     -0.134000   -4.315000   -0.022000
  C      0.568000   -3.064000   -0.027000
  C      2.775000   -5.012000   -1.074000
  N      4.376000   -6.391000    0.017000
  C      1.959000   -2.869000   -0.009000
  C      2.621000   -1.622000    0.009000
  C      5.543000    4.339000   -1.130000
  C      4.070000   -1.479000   -0.094000
  C      4.104000    2.751000   -0.021000
  C      5.027000    2.729000    1.036000
  C      6.166000    3.509000    0.978000
  C      7.619000    5.153000   -0.115000
  C      4.321000   -0.148000   -0.092000
  C      3.025000    0.514000    0.015000
  C      4.387000    3.582000   -1.115000
  C      2.866000    1.916000    0.013000
  N      6.413000    4.296000   -0.095000
  H     -5.961000    5.241000   -0.545000
  H      2.274000    4.766000    0.081000
  H     -1.215000    5.422000    0.702000
  H     -2.674000    7.438000    0.713000
  H     -5.568000    7.740000    1.161000
  H     -4.570000    8.477000   -0.129000
  H     -6.014000    7.516000   -0.557000
  H     -0.332000    5.282000    0.069000
  H     -4.639000    3.135000   -0.603000
  H      0.182000    1.072000    0.005000
  H     -0.183000   -1.080000   -0.021000
  H     -5.864000   -4.962000    1.895000
  H     -4.794000    2.272000    0.139000
  H     -4.800000   -2.160000   -1.994000
  H     -6.841000   -3.582000   -1.893000
  H     -8.428000   -4.536000    0.546000
  H     -7.956000   -5.337000   -0.981000
  H     -7.456000   -6.037000    0.584000
  H     -5.287000   -0.344000    0.100000
  H     -3.780000   -3.601000    1.947000
  H      3.587000   -6.868000   -1.843000
  H     -2.276000   -4.774000   -0.050000
  H      3.714000   -3.724000    1.926000
  H      5.092000   -5.795000    1.871000
  H      6.205000   -7.329000   -0.439000
  H      5.393000   -7.917000    1.042000
  H      4.759000   -8.373000   -0.564000
  H      0.329000   -5.290000   -0.008000
  H      2.146000   -4.842000   -1.940000
  H      5.808000    4.986000   -1.956000
  H      4.788000   -2.281000   -0.185000
  H      4.860000    2.114000    1.912000
  H      6.901000    3.531000    1.772000
  H      7.383000    6.109000    0.356000
  H      8.414000    4.652000    0.435000
  H      7.921000    5.310000   -1.150000
  H      5.283000    0.336000   -0.179000
  H      3.720000    3.632000   -1.967000

 Total Charge           Charge          ....    0
 Multiplicity           Mult            ....    1
 Number of Electrons    NEL             ....  358
 Basis Dimension        Dim             ....  918

ORBITAL ENERGIES
----------------

  NO   OCC          E(Eh)            E(eV)
   0   2.0000     -15.679373      -426.6574
   1   2.0000     -15.635897      -425.4744
   2   2.0000     -15.630063      -425.3156
   3   2.0000     -15.587244      -424.1505
   4   2.0000     -15.525671      -422.4750
   5   2.0000     -15.515480      -422.1977
   6   2.0000     -15.453310      -420.5059
   7   2.0000     -15.440822      -420.1661
   8   2.0000     -11.329320      -308.2865
   9   2.0000     -11.327736      -308.2434
  10   2.0000     -11.327666      -308.2415
  11   2.0000     -11.300516      -307.5027
  12   2.0000     -11.297259      -307.4140
  13   2.0000     -11.294576      -307.3410
  14   2.0000     -11.289677      -307.2077
  15   2.0000     -11.288314      -307.1707
  16   2.0000     -11.285071      -307.0824
  17   2.0000     -11.281673      -306.9899
  18   2.0000     -11.270033      -306.6732
  19   2.0000     -11.263096      -306.4844
  20   2.0000     -11.262119      -306.4578
  21   2.0000     -11.251319      -306.1640
  22   2.0000     -11.249701      -306.1199
  23   2.0000     -11.239612      -305.8454
  24   2.0000     -11.234916      -305.7176
  25   2.0000     -11.232608      -305.6548
  26   2.0000     -11.231971      -305.6375
  27   2.0000     -11.228436      -305.5413
  28   2.0000     -11.228120      -305.5327
  29   2.0000     -11.211857      -305.0901
  30   2.0000     -11.210352      -305.0492
  31   2.0000     -11.194281      -304.6119
  32   2.0000     -11.191426      -304.5342
  33   2.0000     -11.190331      -304.5044
  34   2.0000     -11.188017      -304.4414
  35   2.0000     -11.187451      -304.4260
  36   2.0000     -11.186133      -304.3902
  37   2.0000     -11.178899      -304.1933
  38   2.0000     -11.178188      -304.1740
  39   2.0000     -11.175261      -304.0943
  40   2.0000     -11.173669      -304.0510
  41   2.0000     -11.169451      -303.9362
  42   2.0000     -11.169415      -303.9352
  43   2.0000     -11.161061      -303.7079
  44   2.0000     -11.160386      -303.6895
  45   2.0000     -11.157624      -303.6144
  46   2.0000     -11.155535      -303.5576
  47   2.0000     -11.154044      -303.5170
  48   2.0000     -11.145931      -303.2962
  49   2.0000     -11.135052      -303.0002
  50   2.0000     -11.130620      -302.8796
  51   2.0000     -11.118537      -302.5508
  52   2.0000      -1.360019       -37.0080
  53   2.0000      -1.322881       -35.9974
  54   2.0000      -1.318100       -35.8673
  55   2.0000      -1.280619       -34.8474
  56   2.0000      -1.226824       -33.3836
  57   2.0000      -1.209928       -32.9238
  58   2.0000      -1.172789       -31.9132
  59   2.0000      -1.151348       -31.3298
  60   2.0000      -1.143336       -31.1118
  61   2.0000      -1.111540       -30.2465
  62   2.0000      -1.107789       -30.1445
  63   2.0000      -1.081745       -29.4358
  64   2.0000      -1.077177       -29.3115
  65   2.0000      -1.046999       -28.4903
  66   2.0000      -1.042827       -28.3768
  67   2.0000      -1.041011       -28.3273
  68   2.0000      -1.015320       -27.6283
  69   2.0000      -1.012245       -27.5446
  70   2.0000      -1.008687       -27.4478
  71   2.0000      -0.994197       -27.0535
  72   2.0000      -0.985542       -26.8180
  73   2.0000      -0.981828       -26.7169
  74   2.0000      -0.972406       -26.4605
  75   2.0000      -0.961396       -26.1609
  76   2.0000      -0.954090       -25.9621
  77   2.0000      -0.945572       -25.7303
  78   2.0000      -0.935706       -25.4618
  79   2.0000      -0.917295       -24.9609
  80   2.0000      -0.910215       -24.7682
  81   2.0000      -0.896187       -24.3865
  82   2.0000      -0.876404       -23.8482
  83   2.0000      -0.873584       -23.7714
  84   2.0000      -0.869243       -23.6533
  85   2.0000      -0.858493       -23.3608
  86   2.0000      -0.839873       -22.8541
  87   2.0000      -0.836762       -22.7695
  88   2.0000      -0.826154       -22.4808
  89   2.0000      -0.796854       -21.6835
  90   2.0000      -0.789251       -21.4766
  91   2.0000      -0.756308       -20.5802
  92   2.0000      -0.751802       -20.4576
  93   2.0000      -0.734026       -19.9739
  94   2.0000      -0.726225       -19.7616
  95   2.0000      -0.723589       -19.6899
  96   2.0000      -0.717890       -19.5348
  97   2.0000      -0.715676       -19.4745
  98   2.0000      -0.710051       -19.3215
  99   2.0000      -0.698411       -19.0047
 100   2.0000      -0.696551       -18.9541
 101   2.0000      -0.686905       -18.6916
 102   2.0000      -0.684354       -18.6222
 103   2.0000      -0.683902       -18.6099
 104   2.0000      -0.679413       -18.4878
 105   2.0000      -0.673666       -18.3314
 106   2.0000      -0.671697       -18.2778
 107   2.0000      -0.660483       -17.9727
 108   2.0000      -0.656699       -17.8697
 109   2.0000      -0.654111       -17.7993
 110   2.0000      -0.650579       -17.7032
 111   2.0000      -0.645839       -17.5742
 112   2.0000      -0.644871       -17.5478
 113   2.0000      -0.637880       -17.3576
 114   2.0000      -0.636491       -17.3198
 115   2.0000      -0.627258       -17.0686
 116   2.0000      -0.621589       -16.9143
 117   2.0000      -0.620443       -16.8831
 118   2.0000      -0.613992       -16.7076
 119   2.0000      -0.613227       -16.6868
 120   2.0000      -0.611192       -16.6314
 121   2.0000      -0.610090       -16.6014
 122   2.0000      -0.599918       -16.3246
 123   2.0000      -0.587444       -15.9852
 124   2.0000      -0.582763       -15.8578
 125   2.0000      -0.580630       -15.7997
 126   2.0000      -0.579317       -15.7640
 127   2.0000      -0.571835       -15.5604
 128   2.0000      -0.569186       -15.4883
 129   2.0000      -0.559470       -15.2240
 130   2.0000      -0.553026       -15.0486
 131   2.0000      -0.547985       -14.9114
 132   2.0000      -0.543024       -14.7764
 133   2.0000      -0.542164       -14.7530
 134   2.0000      -0.539504       -14.6806
 135   2.0000      -0.534999       -14.5581
 136   2.0000      -0.530111       -14.4251
 137   2.0000      -0.518804       -14.1174
 138   2.0000      -0.518387       -14.1060
 139   2.0000      -0.514266       -13.9939
 140   2.0000      -0.511768       -13.9259
 141   2.0000      -0.510743       -13.8980
 142   2.0000      -0.509721       -13.8702
 143   2.0000      -0.504467       -13.7273
 144   2.0000      -0.500874       -13.6295
 145   2.0000      -0.495578       -13.4854
 146   2.0000      -0.490988       -13.3605
 147   2.0000      -0.481778       -13.1098
 148   2.0000      -0.477232       -12.9861
 149   2.0000      -0.467556       -12.7229
 150   2.0000      -0.466060       -12.6821
 151   2.0000      -0.456726       -12.4282
 152   2.0000      -0.450932       -12.2705
 153   2.0000      -0.445483       -12.1222
 154   2.0000      -0.439537       -11.9604
 155   2.0000      -0.427568       -11.6347
 156   2.0000      -0.409285       -11.1372
 157   2.0000      -0.406986       -11.0747
 158   2.0000      -0.399792       -10.8789
 159   2.0000      -0.387370       -10.5409
 160   2.0000      -0.386406       -10.5146
 161   2.0000      -0.377789       -10.2802
 162   2.0000      -0.371256       -10.1024
 163   2.0000      -0.357977        -9.7410
 164   2.0000      -0.354661        -9.6508
 165   2.0000      -0.341303        -9.2873
 166   2.0000      -0.337886        -9.1943
 167   2.0000      -0.325671        -8.8619
 168   2.0000      -0.320766        -8.7285
 169   2.0000      -0.306061        -8.3283
 170   2.0000      -0.299245        -8.1429
 171   2.0000      -0.285018        -7.7557
 172   2.0000      -0.279147        -7.5960
 173   2.0000      -0.263052        -7.1580
 174   2.0000      -0.241792        -6.5795
 175   2.0000      -0.190138        -5.1739
 176   2.0000      -0.180928        -4.9233
 177   2.0000      -0.079332        -2.1587
 178   2.0000      -0.059453        -1.6178
 179   0.0000       0.028174         0.7667
 180   0.0000       0.065205         1.7743
 181   0.0000       0.090468         2.4618
 182   0.0000       0.106484         2.8976
 183   0.0000       0.114311         3.1106

MULLIKEN ATOMIC CHARGES
-----------------------
   0 C :    0.213277
   1 N :   -0.456838
   2 C :   -0.076361
   3 N :   -0.340320
   4 C :   -0.062611
   5 N :   -0.566136
   6 C :   -0.122803
   7 N :   -0.340883
   8 C :    0.216218
   9 N :   -0.562558
  10 C :    0.118777
  11 N :   -0.438057
  12 C :   -0.061428
  13 N :   -0.429422
  14 C :    0.212118
  15 N :   -0.441330
  16 C :    0.232793
  17 C :   -0.119898
  18 C :   -0.155054
  19 C :    0.202588
  20 C :    0.214563
  21 C :   -0.077063
  22 C :   -0.089182
  23 C :   -0.039746
  24 C :    0.194489
  25 C :    0.114347
  26 C :   -0.088463
  27 C :    0.213753
  28 C :   -0.061473
  29 C :   -0.182546
  30 C :    0.246008
  31 C :    0.230887
  32 C :   -0.061280
  33 C :   -0.060460
  34 C :   -0.050350
  35 C :    0.227505
  36 C :    0.108274
  37 C :   -0.064264
  38 C :    0.231846
  39 C :   -0.058388
  40 C :   -0.180892
  41 C :    0.224962
  42 C :    0.196949
  43 C :   -0.072650
  44 C :   -0.090551
  45 C :   -0.061584
  46 C :    0.210705
  47 C :    0.115562
  48 C :   -0.067109
  49 C :    0.238312
  50 C :   -0.046276
  51 C :   -0.195257
  52 H :    0.036685
  53 H :   -0.017851
  54 H :    0.047139
  55 H :    0.034906
  56 H :    0.049262
  57 H :    0.047602
  58 H :    0.046554
  59 H :   -0.005444
  60 H :    0.050928
  61 H :    0.170980
  62 H :    0.175733
  63 H :    0.055999
  64 H :   -0.010030
  65 H :    0.047155
  66 H :    0.056140
  67 H :    0.063084
  68 H :    0.057538
  69 H :    0.056788
  70 H :   -0.029771
  71 H :    0.045525
  72 H :    0.071360
  73 H :   -0.007897
  74 H :    0.060480
  75 H :    0.070715
  76 H :    0.075006
  77 H :    0.068014
  78 H :    0.067227
  79 H :   -0.016275
  80 H :    0.061233
  81 H :    0.054009
  82 H :   -0.025266
  83 H :    0.041245
  84 H :    0.053577
  85 H :    0.060402
  86 H :    0.055170
  87 H :    0.056952
  88 H :   -0.014463
  89 H :    0.046888
Sum of atomic charges:   -0.0000000

LOEWDIN ATOMIC CHARGES
----------------------
   0 C :   -0.023821
   1 N :    0.118413
   2 C :   -0.102468
   3 N :    0.183060
   4 C :   -0.013612
   5 N :   -0.132441
   6 C :   -0.039884
   7 N :    0.175147
   8 C :   -0.019380
   9 N :   -0.140700
  10 C :    0.023076
  11 N :    0.142902
  12 C :   -0.112203
  13 N :    0.166237
  14 C :   -0.021525
  15 N :    0.137951
  16 C :   -0.059214
  17 C :   -0.040121
  18 C :   -0.107013
  19 C :   -0.077697
  20 C :    0.005797
  21 C :   -0.121105
  22 C :    0.038665
  23 C :   -0.014451
  24 C :   -0.011633
  25 C :    0.030044
  26 C :   -0.109211
  27 C :   -0.117242
  28 C :   -0.027115
  29 C :   -0.098686
  30 C :   -0.030459
  31 C :    0.024934
  32 C :   -0.093562
  33 C :    0.081887
  34 C :   -0.014631
  35 C :    0.022277
  36 C :    0.035233
  37 C :   -0.093999
  38 C :   -0.050919
  39 C :   -0.018030
  40 C :   -0.108315
  41 C :   -0.092801
  42 C :   -0.010964
  43 C :   -0.099522
  44 C :    0.032265
  45 C :   -0.028578
  46 C :    0.000948
  47 C :    0.029313
  48 C :   -0.095466
  49 C :   -0.069041
  50 C :   -0.018857
  51 C :   -0.109983
  52 H :    0.022643
  53 H :    0.002479
  54 H :    0.022182
  55 H :    0.022499
  56 H :    0.021802
  57 H :    0.026231
  58 H :    0.026665
  59 H :    0.009763
  60 H :    0.028671
  61 H :    0.060069
  62 H :    0.061979
  63 H :    0.031070
  64 H :    0.007795
  65 H :    0.045923
  66 H :    0.029479
  67 H :    0.028546
  68 H :    0.031769
  69 H :    0.030499
  70 H :   -0.004709
  71 H :    0.043795
  72 H :    0.037762
  73 H :    0.007180
  74 H :    0.050761
  75 H :    0.037341
  76 H :    0.034840
  77 H :    0.036193
  78 H :    0.035843
  79 H :    0.003112
  80 H :    0.050679
  81 H :    0.028915
  82 H :   -0.002934
  83 H :    0.042210
  84 H :    0.029598
  85 H :    0.027149
  86 H :    0.030003
  87 H :    0.031284
  88 H :    0.002402
  89 H :    0.045009

  Mayer bond orders larger than 0.100000
B(  0-C ,  1-N ) :   1.0898 B(  0-C , 17-C ) :   1.7185 B(  0-C , 52-H ) :   0.9635
B(  1-N ,  8-C ) :   1.0942 B(  1-N , 10-C ) :   0.9782 B(  2-C , 12-C ) :   1.4902
B(  2-C , 16-C ) :   1.3697 B(  2-C , 53-H ) :   0.9740 B(  3-N , 14-C ) :   1.2204
B(  3-N , 16-C ) :   1.1848 B(  3-N , 61-H ) :   0.8991 B(  4-C ,  6-C ) :   1.2136
B(  4-C , 17-C ) :   1.2138 B(  4-C , 18-C ) :   1.4677 B(  5-N , 19-C ) :   1.4567
B(  5-N , 27-C ) :   1.3734 B(  6-C ,  8-C ) :   1.7162 B(  6-C , 54-H ) :   0.9170
B(  7-N , 30-C ) :   1.1945 B(  7-N , 38-C ) :   1.1904 B(  7-N , 62-H ) :   0.8966
B(  8-C , 55-H ) :   0.9644 B(  9-N , 41-C ) :   1.3923 B(  9-N , 49-C ) :   1.4276
B( 10-C , 56-H ) :   0.9774 B( 10-C , 57-H ) :   0.9832 B( 10-C , 58-H ) :   0.9834
B( 11-N , 20-C ) :   1.1325 B( 11-N , 24-C ) :   1.1085 B( 11-N , 25-C ) :   0.9594
B( 12-C , 14-C ) :   1.3592 B( 12-C , 59-H ) :   0.9509 B( 13-N , 31-C ) :   1.1623
B( 13-N , 35-C ) :   1.1591 B( 13-N , 36-C ) :   0.9414 B( 14-C , 18-C ) :   1.1179
B( 15-N , 42-C ) :   1.1067 B( 15-N , 46-C ) :   1.1230 B( 15-N , 47-C ) :   0.9619
B( 16-C , 51-C ) :   1.1670 B( 17-C , 60-H ) :   0.9210 B( 18-C , 19-C ) :   1.1185
B( 19-C , 21-C ) :   1.2507 B( 20-C , 28-C ) :   1.6269 B( 20-C , 63-H ) :   0.9702
B( 21-C , 26-C ) :   1.5922 B( 21-C , 64-H ) :   0.9533 B( 22-C , 23-C ) :   1.2910
B( 22-C , 28-C ) :   1.2655 B( 22-C , 29-C ) :   1.2228 B( 23-C , 24-C ) :   1.6183
B( 23-C , 65-H ) :   0.9703 B( 24-C , 66-H ) :   0.9695 B( 25-C , 67-H ) :   0.9760
B( 25-C , 68-H ) :   0.9828 B( 25-C , 69-H ) :   0.9823 B( 26-C , 27-C ) :   1.2530
B( 26-C , 70-H ) :   0.9681 B( 27-C , 29-C ) :   1.2080 B( 28-C , 71-H ) :   0.9720
B( 29-C , 30-C ) :   1.2476 B( 30-C , 32-C ) :   1.2776 B( 31-C , 39-C ) :   1.5880
B( 31-C , 72-H ) :   0.9681 B( 32-C , 37-C ) :   1.5816 B( 32-C , 73-H ) :   0.9786
B( 33-C , 34-C ) :   1.3080 B( 33-C , 39-C ) :   1.3033 B( 33-C , 40-C ) :   1.1752
B( 34-C , 35-C ) :   1.5850 B( 34-C , 74-H ) :   0.9696 B( 35-C , 75-H ) :   0.9681
B( 36-C , 76-H ) :   0.9767 B( 36-C , 77-H ) :   0.9815 B( 36-C , 78-H ) :   0.9823
B( 37-C , 38-C ) :   1.2831 B( 37-C , 79-H ) :   0.9765 B( 38-C , 40-C ) :   1.2353
B( 39-C , 80-H ) :   0.9705 B( 40-C , 41-C ) :   1.2504 B( 41-C , 43-C ) :   1.1859
B( 42-C , 50-C ) :   1.6350 B( 42-C , 81-H ) :   0.9697 B( 43-C , 48-C ) :   1.6666
B( 43-C , 82-H ) :   0.9720 B( 44-C , 45-C ) :   1.2622 B( 44-C , 50-C ) :   1.2706
B( 44-C , 51-C ) :   1.2644 B( 45-C , 46-C ) :   1.6362 B( 45-C , 83-H ) :   0.9719
B( 46-C , 84-H ) :   0.9701 B( 47-C , 85-H ) :   0.9762 B( 47-C , 86-H ) :   0.9829
B( 47-C , 87-H ) :   0.9825 B( 48-C , 49-C ) :   1.1895 B( 48-C , 88-H ) :   0.9749
B( 49-C , 51-C ) :   1.2424 B( 50-C , 89-H ) :   0.9708

MP2 TOTAL ENERGY:    -2130.834278814 Eh
FINAL SINGLE POINT ENERGY     -2130.834278814497

DIPOLE MOMENT
-------------
                                X             Y             Z
Electronic contribution:      2.59505      -4.44847      -0.21861
Nuclear contribution   :      0.04948       0.21959       0.21472
                        -----------------------------------------
Total Dipole Moment    :      2.64453      -4.22888      -0.00389
                        -----------------------------------------
Magnitude (a.u.)       :      4.98768
Magnitude (Debye)      :     12.67768

Rotational constants in cm-1:     0.001501     0.001479     0.000760
Rotational constants in MHz :    44.999877    44.344070    22.787985

                             ****ORCA TERMINATED NORMALLY****
TOTAL RUN TIME: 0 days 1 hours 12 minutes 24 seconds 682 msec
