                         Program Version 5.0.4 -  RELEASE  -
|  1> ! PAL2
|  2> ! mp2 cc-pvdz TightSCF  NoKeepInts
|  3>
|  4> %scf
|  5>   MaxCore 2000
|  6> end
|  7> %mp2
|  8>   MaxCore 2000
|  9> end
| 10> * xyz 0 1
| 11>    C       -3.18700         6.37700         0.72600
| 12>    C        1.47400         4.04100         0.05700
| 13>    C       -2.80200         4.09300         0.04900
| 14>    C       -4.05200         4.12500        -0.58900
| 15>    C       -4.82000         5.27200        -0.55100
| 16>    C       -5.21700         7.60000         0.09100
| 17>    C        0.13200         4.30700         0.06100
| 18>    C       -0.56900         3.05600         0.04700
| 19>    C        1.64900         2.61800         0.02300
| 20>    C       -2.38000         5.25600         0.71200
| 21>    N       -4.38700         6.37500         0.10200
| 22>    N        0.38800         2.06700         0.02500
| 23>    N       -2.01000         0.39500        -0.07500
| 24>    N       -0.38800        -2.07400        -0.02700
| 25>    N        2.01000        -0.40100         0.06500
| 26>    C       -1.96000         2.86100         0.02400
| 27>    C       -2.62300         1.61500        -0.01800
| 28>    C       -5.57300        -4.32900         1.06600
| 29>    C       -4.07300         1.47100         0.05600
| 30>    C       -4.10600        -2.75600        -0.02600
| 31>    C       -4.99500        -2.75700        -1.11100
| 32>    C       -6.13200        -3.54200        -1.07600
| 33>    C       -7.65100        -5.11300         0.04000
| 34>    C       -4.32400         0.14100         0.03700
| 35>    C       -3.02500        -0.52000        -0.04800
| 36>    C       -4.42200        -3.56600         1.07500
| 37>    N       -6.40700        -4.31300         0.00100
| 38>    C       -2.86700        -1.92200        -0.04000
| 39>    C       -1.65000        -2.62400        -0.02700
| 40>    C        3.56800        -6.14200        -1.04000
| 41>    C       -1.47600        -4.04900        -0.03400
| 42>    C        2.80300        -4.09900        -0.00800
| 43>    C        3.65700        -4.38400         1.06900
| 44>    C        4.42700        -5.53000         1.05900
| 45>    C        5.24500        -7.58800         0.01400
| 46>    C       -0.13400        -4.31500        -0.02200
| 47>    C        0.56800        -3.06400        -0.02700
| 48>    C        2.77500        -5.01200        -1.07400
| 49>    N        4.37600        -6.39100         0.01700
| 50>    C        1.95900        -2.86900        -0.00900
| 51>    C        2.62100        -1.62200         0.00900
| 52>    C        5.54300         4.33900        -1.13000
| 53>    C        4.07000        -1.47900        -0.09400
| 54>    C        4.10400         2.75100        -0.02100
| 55>    C        5.02700         2.72900         1.03600
| 56>    C        6.16600         3.50900         0.97800
| 57>    C        7.61900         5.15300        -0.11500
| 58>    C        4.32100        -0.14800        -0.09200
| 59>    C        3.02500         0.51400         0.01500
| 60>    C        4.38700         3.58200        -1.11500
| 61>    C        2.86600         1.91600         0.01300
| 62>    N        6.41300         4.29600        -0.09500
| 63>    H       -2.90700         7.29200         1.23500
| 64>    H        2.27400         4.76600         0.08100
| 65>    H       -4.42800         3.26200        -1.12500
| 66>    H       -5.78500         5.34700        -1.03500
| 67>    H       -4.99200         8.17400        -0.81100
| 68>    H       -6.26800         7.31200         0.10100
| 69>    H       -4.98300         8.19000         0.97800
| 70>    H       -0.33200         5.28200         0.06900
| 71>    H       -1.43100         5.28900         1.23500
| 72>    H        0.18200         1.07200         0.00500
| 73>    H       -0.18300        -1.08000        -0.02100
| 74>    H       -5.86400        -4.96200         1.89500
| 75>    H       -4.79400         2.27200         0.13900
| 76>    H       -4.80000        -2.16000        -1.99400
| 77>    H       -6.84100        -3.58200        -1.89300
| 78>    H       -8.42800        -4.53600         0.54600
| 79>    H       -7.95600        -5.33700        -0.98100
| 80>    H       -7.45600        -6.03700         0.58400
| 81>    H       -5.28700        -0.34400         0.10000
| 82>    H       -3.78000        -3.60100         1.94700
| 83>    H        3.58700        -6.86800        -1.84300
| 84>    H       -2.27600        -4.77400        -0.05000
| 85>    H        3.71400        -3.72400         1.92600
| 86>    H        5.09200        -5.79500         1.87100
| 87>    H        6.20500        -7.32900        -0.43900
| 88>    H        5.39300        -7.91700         1.04200
| 89>    H        4.75900        -8.37300        -0.56400
| 90>    H        0.32900        -5.29000        -0.00800
| 91>    H        2.14600        -4.84200        -1.94000
| 92>    H        5.80800         4.98600        -1.95600
| 93>    H        4.78800        -2.28100        -0.18500
| 94>    H        4.86000         2.11400         1.91200
| 95>    H        6.90100         3.53100         1.77200
| 96>    H        7.38300         6.10900         0.35600
| 97>    H        8.41400         4.65200         0.43500
| 98>    H        7.92100         5.31000        -1.15000
| 99>    H        5.28300         0.33600        -0.17900
|100>    H        3.72000         3.63200        -1.96700
|101> *
|102>
|103>                          ****END OF INPUT****

CARTESIAN COORDINATES (ANGSTROEM)
---------------------------------
  C     -3.187000    6.377000    0.726000
  C      1.474000    4.041000    0.057000
  C     -2.802000    4.093000    0.049000
  C     -4.052000    4.125000   -0.589000
  C     -4.820000    5.272000   -0.551000
  C     -5.217000    7.600000    0.091000
  C      0.132000    4.307000    0.061000
  C     -0.569000    3.056000    0.047000
  C      1.649000    2.618000    0.023000
  C     -2.380000    5.256000    0.712000
  N     -4.387000    6.375000    0.102000
  N      0.388000    2.067000    0.025000
  N     -2.010000    0.395000   -0.075000
  N     -0.388000   -2.074000   -0.027000
  N      2.010000   -0.401000    0.065000
  C     -1.960000    2.861000    0.024000
  C     -2.623000    1.615000   -0.018000
  C     -5.573000   -4.329000    1.066000
  C     -4.073000    1.471000    0.056000
  C     -4.106000   -2.756000   -0.026000
  C     -4.995000   -2.757000   -1.111000
  C     -6.132000   -3.542000   -1.076000
  C     -7.651000   -5.113000    0.040000
  C     -4.324000    0.141000    0.037000
  C     -3.025000   -0.520000   -0.048000
  C     -4.422000   -3.566000    1.075000
  N     -6.407000   -4.313000    0.001000
  C     -2.867000   -1.922000   -0.040000
  C     -1.650000   -2.624000   -0.027000
  C      3.568000   -6.142000   -1.040000
  C     -1.476000   -4.049000   -0.034000
  C      2.803000   -4.099000   -0.008000
  C      3.657000   -4.384000    1.069000
  C      4.427000   -5.530000    1.059000
  C      5.245000   -7.588000    0.014000
  C     -0.134000   -4.315000   -0.022000
  C      0.568000   -3.064000   -0.027000
  C      2.775000   -5.012000   -1.074000
  N      4.376000   -6.391000    0.017000
  C      1.959000   -2.869000   -0.009000
  C      2.621000   -1.622000    0.009000
  C      5.543000    4.339000   -1.130000
  C      4.070000   -1.479000   -0.094000
  C      4.104000    2.751000   -0.021000
  C      5.027000    2.729000    1.036000
  C      6.166000    3.509000    0.978000
  C      7.619000    5.153000   -0.115000
  C      4.321000   -0.148000   -0.092000
  C      3.025000    0.514000    0.015000
  C      4.387000    3.582000   -1.115000
  C      2.866000    1.916000    0.013000
  N      6.413000    4.296000   -0.095000
  H     -2.907000    7.292000    1.235000
  H      2.274000    4.766000    0.081000
  H     -4.428000    3.262000   -1.125000
  H     -5.785000    5.347000   -1.035000
  H     -4.992000    8.174000   -0.811000
  H     -6.268000    7.312000    0.101000
  H     -4.983000    8.190000    0.978000
  H     -0.332000    5.282000    0.069000
  H     -1.431000    5.289000    1.235000
  H      0.182000    1.072000    0.005000
  H     -0.183000   -1.080000   -0.021000
  H     -5.864000   -4.962000    1.895000
  H     -4.794000    2.272000    0.139000
  H     -4.800000   -2.160000   -1.994000
  H     -6.841000   -3.582000   -1.893000
  H     -8.428000   -4.536000    0.546000
  H     -7.956000   -5.337000   -0.981000
  H     -7.456000   -6.037000    0.584000
  H     -5.287000   -0.344000    0.100000
  H     -3.780000   -3.601000    1.947000
  H      3.587000   -6.868000   -1.843000
  H     -2.276000   -4.774000   -0.050000
  H      3.714000   -3.724000    1.926000
  H      5.092000   -5.795000    1.871000
  H      6.205000   -7.329000   -0.439000
  H      5.393000   -7.917000    1.042000
  H      4.759000   -8.373000   -0.564000
  H      0.329000   -5.290000   -0.008000
  H      2.146000   -4.842000   -1.940000
  H      5.808000    4.986000   -1.956000
  H      4.788000   -2.281000   -0.185000
  H      4.860000    2.114000    1.912000
  H      6.901000    3.531000    1.772000
  H      7.383000    6.109000    0.356000
  H      8.414000    4.652000    0.435000
  H      7.921000    5.310000   -1.150000
  H      5.283000    0.336000   -0.179000
  H      3.720000    3.632000   -1.967000

 Total Charge           Charge          ....    0
 Multiplicity           Mult            ....    1
 Number of Electrons    NEL             ....  358
 Basis Dimension        Dim             ....  918

ORBITAL ENERGIES
----------------

  NO   OCC          E(Eh)            E(eV)
   0   2.0000     -15.672193      -426.4620
   1   2.0000     -15.637302      -425.5126
   2   2.0000     -15.628867      -425.2831
   3   2.0000     -15.590810      -424.2475
   4   2.0000     -15.525099      -422.4594
   5   2.0000     -15.515801      -422.2064
   6   2.0000     -15.451682      -420.4616
   7   2.0000     -15.442878      -420.2221
   8   2.0000     -11.323560      -308.1297
   9   2.0000     -11.323241      -308.1211
  10   2.0000     -11.321484      -308.0732
  11   2.0000     -11.301411      -307.5270
  12   2.0000     -11.296442      -307.3918
  13   2.0000     -11.295373      -307.3627
  14   2.0000     -11.290012      -307.2168
  15   2.0000     -11.288234      -307.1685
  16   2.0000     -11.284341      -307.0625
  17   2.0000     -11.274939      -306.8067
  18   2.0000     -11.273370      -306.7640
  19   2.0000     -11.258075      -306.3478
  20   2.0000     -11.257132      -306.3221
  21   2.0000     -11.257077      -306.3206
  22   2.0000     -11.254053      -306.2384
  23   2.0000     -11.240964      -305.8822
  24   2.0000     -11.233706      -305.6847
  25   2.0000     -11.233672      -305.6838
  26   2.0000     -11.233134      -305.6691
  27   2.0000     -11.227487      -305.5155
  28   2.0000     -11.227181      -305.5071
  29   2.0000     -11.210500      -305.0532
  30   2.0000     -11.209055      -305.0139
  31   2.0000     -11.200540      -304.7822
  32   2.0000     -11.193843      -304.6000
  33   2.0000     -11.193381      -304.5874
  34   2.0000     -11.189451      -304.4804
  35   2.0000     -11.188948      -304.4667
  36   2.0000     -11.188242      -304.4476
  37   2.0000     -11.184323      -304.3409
  38   2.0000     -11.183304      -304.3132
  39   2.0000     -11.174508      -304.0738
  40   2.0000     -11.172884      -304.0296
  41   2.0000     -11.168613      -303.9134
  42   2.0000     -11.168400      -303.9076
  43   2.0000     -11.162041      -303.7346
  44   2.0000     -11.160468      -303.6918
  45   2.0000     -11.158558      -303.6398
  46   2.0000     -11.157621      -303.6143
  47   2.0000     -11.152679      -303.4798
  48   2.0000     -11.147457      -303.3377
  49   2.0000     -11.140377      -303.1451
  50   2.0000     -11.133987      -302.9712
  51   2.0000     -11.125723      -302.7463
  52   2.0000      -1.353919       -36.8420
  53   2.0000      -1.324113       -36.0310
  54   2.0000      -1.317026       -35.8381
  55   2.0000      -1.285031       -34.9675
  56   2.0000      -1.225757       -33.3545
  57   2.0000      -1.210187       -32.9309
  58   2.0000      -1.170359       -31.8471
  59   2.0000      -1.153330       -31.3837
  60   2.0000      -1.138208       -30.9722
  61   2.0000      -1.112648       -30.2767
  62   2.0000      -1.106782       -30.1171
  63   2.0000      -1.080939       -29.4138
  64   2.0000      -1.076087       -29.2818
  65   2.0000      -1.048195       -28.5228
  66   2.0000      -1.041793       -28.3486
  67   2.0000      -1.037628       -28.2353
  68   2.0000      -1.015019       -27.6201
  69   2.0000      -1.013379       -27.5754
  70   2.0000      -1.009402       -27.4672
  71   2.0000      -0.993165       -27.0254
  72   2.0000      -0.986923       -26.8555
  73   2.0000      -0.979663       -26.6580
  74   2.0000      -0.971939       -26.4478
  75   2.0000      -0.960030       -26.1237
  76   2.0000      -0.952445       -25.9174
  77   2.0000      -0.946491       -25.7553
  78   2.0000      -0.935372       -25.4528
  79   2.0000      -0.919468       -25.0200
  80   2.0000      -0.905247       -24.6330
  81   2.0000      -0.893323       -24.3086
  82   2.0000      -0.875557       -23.8251
  83   2.0000      -0.872072       -23.7303
  84   2.0000      -0.867439       -23.6042
  85   2.0000      -0.855944       -23.2914
  86   2.0000      -0.839841       -22.8532
  87   2.0000      -0.837018       -22.7764
  88   2.0000      -0.823310       -22.4034
  89   2.0000      -0.798116       -21.7178
  90   2.0000      -0.791951       -21.5501
  91   2.0000      -0.749398       -20.3922
  92   2.0000      -0.740345       -20.1458
  93   2.0000      -0.733161       -19.9503
  94   2.0000      -0.724261       -19.7081
  95   2.0000      -0.720685       -19.6108
  96   2.0000      -0.715238       -19.4626
  97   2.0000      -0.709535       -19.3074
  98   2.0000      -0.705082       -19.1863
  99   2.0000      -0.696556       -18.9542
 100   2.0000      -0.696077       -18.9412
 101   2.0000      -0.683512       -18.5993
 102   2.0000      -0.679789       -18.4980
 103   2.0000      -0.679192       -18.4818
 104   2.0000      -0.675978       -18.3943
 105   2.0000      -0.671470       -18.2716
 106   2.0000      -0.668132       -18.1808
 107   2.0000      -0.661798       -18.0084
 108   2.0000      -0.655488       -17.8367
 109   2.0000      -0.653832       -17.7917
 110   2.0000      -0.649147       -17.6642
 111   2.0000      -0.642979       -17.4963
 112   2.0000      -0.641117       -17.4457
 113   2.0000      -0.640499       -17.4289
 114   2.0000      -0.636867       -17.3300
 115   2.0000      -0.626151       -17.0384
 116   2.0000      -0.624395       -16.9907
 117   2.0000      -0.616986       -16.7890
 118   2.0000      -0.614940       -16.7334
 119   2.0000      -0.613081       -16.6828
 120   2.0000      -0.609175       -16.5765
 121   2.0000      -0.606554       -16.5052
 122   2.0000      -0.599498       -16.3132
 123   2.0000      -0.586373       -15.9560
 124   2.0000      -0.583331       -15.8732
 125   2.0000      -0.581097       -15.8125
 126   2.0000      -0.578728       -15.7480
 127   2.0000      -0.577478       -15.7140
 128   2.0000      -0.566298       -15.4098
 129   2.0000      -0.558675       -15.2023
 130   2.0000      -0.550834       -14.9890
 131   2.0000      -0.547779       -14.9058
 132   2.0000      -0.543502       -14.7894
 133   2.0000      -0.540060       -14.6958
 134   2.0000      -0.539502       -14.6806
 135   2.0000      -0.534278       -14.5384
 136   2.0000      -0.526448       -14.3254
 137   2.0000      -0.523236       -14.2380
 138   2.0000      -0.518224       -14.1016
 139   2.0000      -0.513053       -13.9609
 140   2.0000      -0.512390       -13.9428
 141   2.0000      -0.510317       -13.8864
 142   2.0000      -0.510155       -13.8820
 143   2.0000      -0.503405       -13.6984
 144   2.0000      -0.500650       -13.6234
 145   2.0000      -0.496412       -13.5080
 146   2.0000      -0.494134       -13.4461
 147   2.0000      -0.483991       -13.1701
 148   2.0000      -0.479766       -13.0551
 149   2.0000      -0.466939       -12.7061
 150   2.0000      -0.465692       -12.6721
 151   2.0000      -0.457274       -12.4430
 152   2.0000      -0.449765       -12.2387
 153   2.0000      -0.446279       -12.1439
 154   2.0000      -0.442396       -12.0382
 155   2.0000      -0.435894       -11.8613
 156   2.0000      -0.429502       -11.6873
 157   2.0000      -0.423172       -11.5151
 158   2.0000      -0.404800       -11.0152
 159   2.0000      -0.386752       -10.5240
 160   2.0000      -0.382658       -10.4127
 161   2.0000      -0.378434       -10.2977
 162   2.0000      -0.371069       -10.0973
 163   2.0000      -0.358978        -9.7683
 164   2.0000      -0.353731        -9.6255
 165   2.0000      -0.339499        -9.2382
 166   2.0000      -0.337688        -9.1890
 167   2.0000      -0.327388        -8.9087
 168   2.0000      -0.325286        -8.8515
 169   2.0000      -0.304665        -8.2903
 170   2.0000      -0.299517        -8.1503
 171   2.0000      -0.285907        -7.7799
 172   2.0000      -0.282190        -7.6788
 173   2.0000      -0.261628        -7.1193
 174   2.0000      -0.243844        -6.6353
 175   2.0000      -0.189928        -5.1682
 176   2.0000      -0.180283        -4.9057
 177   2.0000      -0.075428        -2.0525
 178   2.0000      -0.058275        -1.5857
 179   0.0000       0.028462         0.7745
 180   0.0000       0.066395         1.8067
 181   0.0000       0.091518         2.4903
 182   0.0000       0.109276         2.9735
 183   0.0000       0.111264         3.0276

MULLIKEN ATOMIC CHARGES
-----------------------
   0 C :    0.210591
   1 N :   -0.455032
   2 C :   -0.066779
   3 N :   -0.336933
   4 C :   -0.055087
   5 N :   -0.561608
   6 C :   -0.113079
   7 N :   -0.340276
   8 C :    0.204936
   9 N :   -0.562651
  10 C :    0.118365
  11 N :   -0.437818
  12 C :   -0.080077
  13 N :   -0.431188
  14 C :    0.222480
  15 N :   -0.441477
  16 C :    0.230157
  17 C :   -0.121921
  18 C :   -0.164152
  19 C :    0.208150
  20 C :    0.213922
  21 C :   -0.092862
  22 C :   -0.088941
  23 C :   -0.041150
  24 C :    0.196541
  25 C :    0.114162
  26 C :   -0.076903
  27 C :    0.212274
  28 C :   -0.059964
  29 C :   -0.180909
  30 C :    0.244191
  31 C :    0.228076
  32 C :   -0.061598
  33 C :   -0.064079
  34 C :   -0.049764
  35 C :    0.223130
  36 C :    0.109236
  37 C :   -0.064676
  38 C :    0.233219
  39 C :   -0.059282
  40 C :   -0.181781
  41 C :    0.223777
  42 C :    0.197480
  43 C :   -0.072839
  44 C :   -0.091081
  45 C :   -0.060344
  46 C :    0.209060
  47 C :    0.115698
  48 C :   -0.068546
  49 C :    0.236497
  50 C :   -0.047383
  51 C :   -0.193591
  52 H :    0.040807
  53 H :   -0.016620
  54 H :    0.052869
  55 H :    0.038282
  56 H :    0.049164
  57 H :    0.048938
  58 H :    0.047546
  59 H :    0.001302
  60 H :    0.050508
  61 H :    0.171039
  62 H :    0.175350
  63 H :    0.056472
  64 H :   -0.004014
  65 H :    0.046978
  66 H :    0.056597
  67 H :    0.063320
  68 H :    0.057784
  69 H :    0.057319
  70 H :   -0.028191
  71 H :    0.046243
  72 H :    0.068969
  73 H :   -0.008708
  74 H :    0.058262
  75 H :    0.068210
  76 H :    0.072889
  77 H :    0.066400
  78 H :    0.065563
  79 H :   -0.015606
  80 H :    0.058856
  81 H :    0.053680
  82 H :   -0.025116
  83 H :    0.041107
  84 H :    0.053132
  85 H :    0.059888
  86 H :    0.055104
  87 H :    0.056717
  88 H :   -0.015555
  89 H :    0.046345
Sum of atomic charges:   -0.0000000

LOEWDIN ATOMIC CHARGES
----------------------
   0 C :   -0.019136
   1 N :    0.116085
   2 C :   -0.102065
   3 N :    0.183252
   4 C :   -0.007689
   5 N :   -0.130641
   6 C :   -0.037093
   7 N :    0.175720
   8 C :   -0.025276
   9 N :   -0.140332
  10 C :    0.023797
  11 N :    0.143583
  12 C :   -0.111947
  13 N :    0.162164
  14 C :   -0.031816
  15 N :    0.137477
  16 C :   -0.057340
  17 C :   -0.045256
  18 C :   -0.101259
  19 C :   -0.083931
  20 C :    0.005438
  21 C :   -0.117349
  22 C :    0.039345
  23 C :   -0.015347
  24 C :   -0.009715
  25 C :    0.030214
  26 C :   -0.107959
  27 C :   -0.114732
  28 C :   -0.025929
  29 C :   -0.099170
  30 C :   -0.033397
  31 C :    0.021505
  32 C :   -0.093877
  33 C :    0.074937
  34 C :   -0.015109
  35 C :    0.017430
  36 C :    0.034321
  37 C :   -0.095209
  38 C :   -0.048558
  39 C :   -0.019430
  40 C :   -0.108091
  41 C :   -0.093786
  42 C :   -0.010587
  43 C :   -0.100562
  44 C :    0.031190
  45 C :   -0.027838
  46 C :   -0.000647
  47 C :    0.029185
  48 C :   -0.097193
  49 C :   -0.072218
  50 C :   -0.019699
  51 C :   -0.109927
  52 H :    0.024076
  53 H :    0.003068
  54 H :    0.041873
  55 H :    0.023353
  56 H :    0.021551
  57 H :    0.026773
  58 H :    0.027262
  59 H :    0.010551
  60 H :    0.040317
  61 H :    0.059976
  62 H :    0.061780
  63 H :    0.031244
  64 H :    0.006754
  65 H :    0.045775
  66 H :    0.029747
  67 H :    0.028675
  68 H :    0.031881
  69 H :    0.030735
  70 H :   -0.003924
  71 H :    0.044171
  72 H :    0.036650
  73 H :    0.006779
  74 H :    0.049849
  75 H :    0.036110
  76 H :    0.033736
  77 H :    0.035432
  78 H :    0.035065
  79 H :    0.003435
  80 H :    0.049615
  81 H :    0.028798
  82 H :   -0.002832
  83 H :    0.042219
  84 H :    0.029348
  85 H :    0.026899
  86 H :    0.029959
  87 H :    0.031173
  88 H :    0.001877
  89 H :    0.044714

  Mayer bond orders larger than 0.100000
B(  0-C ,  1-N ) :   1.0946 B(  0-C , 17-C ) :   1.7038 B(  0-C , 52-H ) :   0.9666
B(  1-N ,  8-C ) :   1.0844 B(  1-N , 10-C ) :   0.9776 B(  2-C , 12-C ) :   1.5091
B(  2-C , 16-C ) :   1.3539 B(  2-C , 53-H ) :   0.9759 B(  3-N , 14-C ) :   1.2175
B(  3-N , 16-C ) :   1.1916 B(  3-N , 61-H ) :   0.8994 B(  4-C ,  6-C ) :   1.2131
B(  4-C , 17-C ) :   1.2119 B(  4-C , 18-C ) :   1.4279 B(  5-N , 19-C ) :   1.4516
B(  5-N , 27-C ) :   1.3805 B(  6-C ,  8-C ) :   1.7073 B(  6-C , 54-H ) :   0.9583
B(  7-N , 30-C ) :   1.1939 B(  7-N , 38-C ) :   1.1929 B(  7-N , 62-H ) :   0.8968
B(  8-C , 55-H ) :   0.9681 B(  9-N , 41-C ) :   1.3935 B(  9-N , 49-C ) :   1.4272
B( 10-C , 56-H ) :   0.9768 B( 10-C , 57-H ) :   0.9831 B( 10-C , 58-H ) :   0.9835
B( 11-N , 20-C ) :   1.1317 B( 11-N , 24-C ) :   1.1111 B( 11-N , 25-C ) :   0.9589
B( 12-C , 14-C ) :   1.3548 B( 12-C , 59-H ) :   0.9742 B( 13-N , 31-C ) :   1.1564
B( 13-N , 35-C ) :   1.1511 B( 13-N , 36-C ) :   0.9444 B( 14-C , 18-C ) :   1.1335
B( 15-N , 42-C ) :   1.1072 B( 15-N , 46-C ) :   1.1208 B( 15-N , 47-C ) :   0.9624
B( 16-C , 51-C ) :   1.1733 B( 17-C , 60-H ) :   0.9584 B( 18-C , 19-C ) :   1.1362
B( 19-C , 21-C ) :   1.2424 B( 20-C , 28-C ) :   1.6257 B( 20-C , 63-H ) :   0.9702
B( 21-C , 26-C ) :   1.6135 B( 21-C , 64-H ) :   0.9715 B( 22-C , 23-C ) :   1.2906
B( 22-C , 28-C ) :   1.2676 B( 22-C , 29-C ) :   1.2207 B( 23-C , 24-C ) :   1.6174
B( 23-C , 65-H ) :   0.9705 B( 24-C , 66-H ) :   0.9694 B( 25-C , 67-H ) :   0.9760
B( 25-C , 68-H ) :   0.9828 B( 25-C , 69-H ) :   0.9823 B( 26-C , 27-C ) :   1.2370
B( 26-C , 70-H ) :   0.9704 B( 27-C , 29-C ) :   1.2148 B( 28-C , 71-H ) :   0.9718
B( 29-C , 30-C ) :   1.2411 B( 30-C , 32-C ) :   1.2832 B( 31-C , 39-C ) :   1.5953
B( 31-C , 72-H ) :   0.9684 B( 32-C , 37-C ) :   1.5762 B( 32-C , 73-H ) :   0.9784
B( 33-C , 34-C ) :   1.3032 B( 33-C , 39-C ) :   1.2969 B( 33-C , 40-C ) :   1.1864
B( 34-C , 35-C ) :   1.5918 B( 34-C , 74-H ) :   0.9697 B( 35-C , 75-H ) :   0.9684
B( 36-C , 76-H ) :   0.9767 B( 36-C , 77-H ) :   0.9816 B( 36-C , 78-H ) :   0.9825
B( 37-C , 38-C ) :   1.2873 B( 37-C , 79-H ) :   0.9768 B( 38-C , 40-C ) :   1.2311
B( 39-C , 80-H ) :   0.9707 B( 40-C , 41-C ) :   1.2453 B( 41-C , 43-C ) :   1.1912
B( 42-C , 50-C ) :   1.6358 B( 42-C , 81-H ) :   0.9697 B( 43-C , 48-C ) :   1.6607
B( 43-C , 82-H ) :   0.9723 B( 44-C , 45-C ) :   1.2625 B( 44-C , 50-C ) :   1.2692
B( 44-C , 51-C ) :   1.2647 B( 45-C , 46-C ) :   1.6368 B( 45-C , 83-H ) :   0.9718
B( 46-C , 84-H ) :   0.9701 B( 47-C , 85-H ) :   0.9762 B( 47-C , 86-H ) :   0.9829
B( 47-C , 87-H ) :   0.9825 B( 48-C , 49-C ) :   1.1946 B( 48-C , 88-H ) :   0.9748
B( 49-C , 51-C ) :   1.2358 B( 50-C , 89-H ) :   0.9710

MP2 TOTAL ENERGY:    -2130.897394815 Eh
FINAL SINGLE POINT ENERGY     -2130.897394814976

DIPOLE MOMENT
-------------
                                X             Y             Z
Electronic contribution:      2.10590      -3.93491      -0.06533
Nuclear contribution   :     -0.00446       0.18429       0.07471
                        -----------------------------------------
Total Dipole Moment    :      2.10144      -3.75063       0.00938
                        -----------------------------------------
Magnitude (a.u.)       :      4.29922
Magnitude (Debye)      :     10.92776

Rotational constants in cm-1:     0.001502     0.001476     0.000761
Rotational constants in MHz :    45.028499    44.248237    22.805970

                             ****ORCA TERMINATED NORMALLY****
TOTAL RUN TIME: 0 days 1 hours 3 minutes 55 seconds 748 msec
