                         Program Version 5.0.4 -  RELEASE  -
|  1> ! PAL2
|  2> ! mp2 cc-pvdz TightSCF  NoKeepInts
|  3>
|  4> %scf
|  5>   MaxCore 2000
|  6> end
|  7> %mp2
|  8>   MaxCore 2000
|  9> end
| 10> * xyz 0 1
| 11>    C       -3.08200         6.46900        -0.26900
| 12>    C        1.47400         4.04100         0.05700
| 13>    C       -2.80200         4.09300         0.04900
| 14>    C       -4.14800         4.03900         0.44200
| 15>    C       -4.91100         5.18900         0.46400
| 16>    C       -5.23000         7.59000         0.11400
| 17>    C        0.13200         4.30700         0.06100
| 18>    C       -0.56900         3.05600         0.04700
| 19>    C        1.64900         2.61800         0.02300
| 20>    C       -2.28000         5.34500        -0.31200
| 21>    N       -4.37600         6.38200         0.11600
| 22>    N        0.38800         2.06700         0.02500
| 23>    N       -2.01000         0.39500        -0.07500
| 24>    N       -0.38800        -2.07400        -0.02700
| 25>    N        2.01000        -0.40100         0.06500
| 26>    C       -1.96000         2.86100         0.02400
| 27>    C       -2.62300         1.61500        -0.01800
| 28>    C       -5.57300        -4.32900         1.06600
| 29>    C       -4.07300         1.47100         0.05600
| 30>    C       -4.10600        -2.75600        -0.02600
| 31>    C       -4.99500        -2.75700        -1.11100
| 32>    C       -6.13200        -3.54200        -1.07600
| 33>    C       -7.65100        -5.11300         0.04000
| 34>    C       -4.32400         0.14100         0.03700
| 35>    C       -3.02500        -0.52000        -0.04800
| 36>    C       -4.42200        -3.56600         1.07500
| 37>    N       -6.40700        -4.31300         0.00100
| 38>    C       -2.86700        -1.92200        -0.04000
| 39>    C       -1.65000        -2.62400        -0.02700
| 40>    C        3.56800        -6.14200        -1.04000
| 41>    C       -1.47600        -4.04900        -0.03400
| 42>    C        2.80300        -4.09900        -0.00800
| 43>    C        3.65700        -4.38400         1.06900
| 44>    C        4.42700        -5.53000         1.05900
| 45>    C        5.24500        -7.58800         0.01400
| 46>    C       -0.13400        -4.31500        -0.02200
| 47>    C        0.56800        -3.06400        -0.02700
| 48>    C        2.77500        -5.01200        -1.07400
| 49>    N        4.37600        -6.39100         0.01700
| 50>    C        1.95900        -2.86900        -0.00900
| 51>    C        2.62100        -1.62200         0.00900
| 52>    C        5.54300         4.33900        -1.13000
| 53>    C        4.07000        -1.47900        -0.09400
| 54>    C        4.10400         2.75100        -0.02100
| 55>    C        5.02700         2.72900         1.03600
| 56>    C        6.16600         3.50900         0.97800
| 57>    C        7.61900         5.15300        -0.11500
| 58>    C        4.32100        -0.14800        -0.09200
| 59>    C        3.02500         0.51400         0.01500
| 60>    C        4.38700         3.58200        -1.11500
| 61>    C        2.86600         1.91600         0.01300
| 62>    N        6.41300         4.29600        -0.09500
| 63>    H       -2.71900         7.45600        -0.52600
| 64>    H        2.27400         4.76600         0.08100
| 65>    H       -4.61100         3.10000         0.72300
| 66>    H       -5.95500         5.19500         0.75100
| 67>    H       -5.74700         7.65900        -0.84700
| 68>    H       -5.95500         7.50900         0.92400
| 69>    H       -4.59900         8.46600         0.26300
| 70>    H       -0.33200         5.28200         0.06900
| 71>    H       -1.24400         5.45500        -0.61100
| 72>    H        0.18200         1.07200         0.00500
| 73>    H       -0.18300        -1.08000        -0.02100
| 74>    H       -5.86400        -4.96200         1.89500
| 75>    H       -4.79400         2.27200         0.13900
| 76>    H       -4.80000        -2.16000        -1.99400
| 77>    H       -6.84100        -3.58200        -1.89300
| 78>    H       -8.42800        -4.53600         0.54600
| 79>    H       -7.95600        -5.33700        -0.98100
| 80>    H       -7.45600        -6.03700         0.58400
| 81>    H       -5.28700        -0.34400         0.10000
| 82>    H       -3.78000        -3.60100         1.94700
| 83>    H        3.58700        -6.86800        -1.84300
| 84>    H       -2.27600        -4.77400        -0.05000
| 85>    H        3.71400        -3.72400         1.92600
| 86>    H        5.09200        -5.79500         1.87100
| 87>    H        6.20500        -7.32900        -0.43900
| 88>    H        5.39300        -7.91700         1.04200
| 89>    H        4.75900        -8.37300        -0.56400
| 90>    H        0.32900        -5.29000        -0.00800
| 91>    H        2.14600        -4.84200        -1.94000
| 92>    H        5.80800         4.98600        -1.95600
| 93>    H        4.78800        -2.28100        -0.18500
| 94>    H        4.86000         2.11400         1.91200
| 95>    H        6.90100         3.53100         1.77200
| 96>    H        7.38300         6.10900         0.35600
| 97>    H        8.41400         4.65200         0.43500
| 98>    H        7.92100         5.31000        -1.15000
| 99>    H        5.28300         0.33600        -0.17900
|100>    H        3.72000         3.63200        -1.96700
|101> *
|102>
|103>                          ****END OF INPUT****

CARTESIAN COORDINATES (ANGSTROEM)
---------------------------------
  C     -3.082000    6.469000   -0.269000
  C      1.474000    4.041000    0.057000
  C     -2.802000    4.093000    0.049000
  C     -4.148000    4.039000    0.442000
  C     -4.911000    5.189000    0.464000
  C     -5.230000    7.590000    0.114000
  C      0.132000    4.307000    0.061000
  C     -0.569000    3.056000    0.047000
  C      1.649000    2.618000    0.023000
  C     -2.280000    5.345000   -0.312000
  N     -4.376000    6.382000    0.116000
  N      0.388000    2.067000    0.025000
  N     -2.010000    0.395000   -0.075000
  N     -0.388000   -2.074000   -0.027000
  N      2.010000   -0.401000    0.065000
  C     -1.960000    2.861000    0.024000
  C     -2.623000    1.615000   -0.018000
  C     -5.573000   -4.329000    1.066000
  C     -4.073000    1.471000    0.056000
  C     -4.106000   -2.756000   -0.026000
  C     -4.995000   -2.757000   -1.111000
  C     -6.132000   -3.542000   -1.076000
  C     -7.651000   -5.113000    0.040000
  C     -4.324000    0.141000    0.037000
  C     -3.025000   -0.520000   -0.048000
  C     -4.422000   -3.566000    1.075000
  N     -6.407000   -4.313000    0.001000
  C     -2.867000   -1.922000   -0.040000
  C     -1.650000   -2.624000   -0.027000
  C      3.568000   -6.142000   -1.040000
  C     -1.476000   -4.049000   -0.034000
  C      2.803000   -4.099000   -0.008000
  C      3.657000   -4.384000    1.069000
  C      4.427000   -5.530000    1.059000
  C      5.245000   -7.588000    0.014000
  C     -0.134000   -4.315000   -0.022000
  C      0.568000   -3.064000   -0.027000
  C      2.775000   -5.012000   -1.074000
  N      4.376000   -6.391000    0.017000
  C      1.959000   -2.869000   -0.009000
  C      2.621000   -1.622000    0.009000
  C      5.543000    4.339000   -1.130000
  C      4.070000   -1.479000   -0.094000
  C      4.104000    2.751000   -0.021000
  C      5.027000    2.729000    1.036000
  C      6.166000    3.509000    0.978000
  C      7.619000    5.153000   -0.115000
  C      4.321000   -0.148000   -0.092000
  C      3.025000    0.514000    0.015000
  C      4.387000    3.582000   -1.115000
  C      2.866000    1.916000    0.013000
  N      6.413000    4.296000   -0.095000
  H     -2.719000    7.456000   -0.526000
  H      2.274000    4.766000    0.081000
  H     -4.611000    3.100000    0.723000
  H     -5.955000    5.195000    0.751000
  H     -5.747000    7.659000   -0.847000
  H     -5.955000    7.509000    0.924000
  H     -4.599000    8.466000    0.263000
  H     -0.332000    5.282000    0.069000
  H     -1.244000    5.455000   -0.611000
  H      0.182000    1.072000    0.005000
  H     -0.183000   -1.080000   -0.021000
  H     -5.864000   -4.962000    1.895000
  H     -4.794000    2.272000    0.139000
  H     -4.800000   -2.160000   -1.994000
  H     -6.841000   -3.582000   -1.893000
  H     -8.428000   -4.536000    0.546000
  H     -7.956000   -5.337000   -0.981000
  H     -7.456000   -6.037000    0.584000
  H     -5.287000   -0.344000    0.100000
  H     -3.780000   -3.601000    1.947000
  H      3.587000   -6.868000   -1.843000
  H     -2.276000   -4.774000   -0.050000
  H      3.714000   -3.724000    1.926000
  H      5.092000   -5.795000    1.871000
  H      6.205000   -7.329000   -0.439000
  H      5.393000   -7.917000    1.042000
  H      4.759000   -8.373000   -0.564000
  H      0.329000   -5.290000   -0.008000
  H      2.146000   -4.842000   -1.940000
  H      5.808000    4.986000   -1.956000
  H      4.788000   -2.281000   -0.185000
  H      4.860000    2.114000    1.912000
  H      6.901000    3.531000    1.772000
  H      7.383000    6.109000    0.356000
  H      8.414000    4.652000    0.435000
  H      7.921000    5.310000   -1.150000
  H      5.283000    0.336000   -0.179000
  H      3.720000    3.632000   -1.967000

 Total Charge           Charge          ....    0
 Multiplicity           Mult            ....    1
 Number of Electrons    NEL             ....  358
 Basis Dimension        Dim             ....  918

ORBITAL ENERGIES
----------------

  NO   OCC          E(Eh)            E(eV)
   0   2.0000     -15.678573      -426.6357
   1   2.0000     -15.633179      -425.4004
   2   2.0000     -15.632438      -425.3803
   3   2.0000     -15.588710      -424.1904
   4   2.0000     -15.524880      -422.4535
   5   2.0000     -15.515824      -422.2070
   6   2.0000     -15.453837      -420.5203
   7   2.0000     -15.439879      -420.1405
   8   2.0000     -11.328344      -308.2599
   9   2.0000     -11.327422      -308.2348
  10   2.0000     -11.327184      -308.2284
  11   2.0000     -11.298829      -307.4568
  12   2.0000     -11.298738      -307.4543
  13   2.0000     -11.292286      -307.2787
  14   2.0000     -11.291651      -307.2614
  15   2.0000     -11.287139      -307.1387
  16   2.0000     -11.285924      -307.1056
  17   2.0000     -11.280906      -306.9690
  18   2.0000     -11.270819      -306.6946
  19   2.0000     -11.262538      -306.4692
  20   2.0000     -11.261545      -306.4422
  21   2.0000     -11.253203      -306.2152
  22   2.0000     -11.250145      -306.1320
  23   2.0000     -11.237183      -305.7793
  24   2.0000     -11.236953      -305.7730
  25   2.0000     -11.230559      -305.5991
  26   2.0000     -11.230206      -305.5894
  27   2.0000     -11.230068      -305.5857
  28   2.0000     -11.229763      -305.5774
  29   2.0000     -11.210513      -305.0536
  30   2.0000     -11.209252      -305.0192
  31   2.0000     -11.195557      -304.6466
  32   2.0000     -11.191071      -304.5245
  33   2.0000     -11.190918      -304.5204
  34   2.0000     -11.188595      -304.4571
  35   2.0000     -11.188336      -304.4501
  36   2.0000     -11.186991      -304.4135
  37   2.0000     -11.182359      -304.2874
  38   2.0000     -11.177547      -304.1565
  39   2.0000     -11.174128      -304.0635
  40   2.0000     -11.171643      -303.9958
  41   2.0000     -11.171141      -303.9822
  42   2.0000     -11.167774      -303.8906
  43   2.0000     -11.161723      -303.7259
  44   2.0000     -11.160149      -303.6831
  45   2.0000     -11.156781      -303.5915
  46   2.0000     -11.156688      -303.5889
  47   2.0000     -11.153985      -303.5154
  48   2.0000     -11.147391      -303.3359
  49   2.0000     -11.136214      -303.0318
  50   2.0000     -11.129585      -302.8514
  51   2.0000     -11.117512      -302.5229
  52   2.0000      -1.359350       -36.9898
  53   2.0000      -1.320539       -35.9337
  54   2.0000      -1.320138       -35.9228
  55   2.0000      -1.281782       -34.8791
  56   2.0000      -1.225826       -33.3564
  57   2.0000      -1.210407       -32.9369
  58   2.0000      -1.173393       -31.9296
  59   2.0000      -1.150670       -31.3113
  60   2.0000      -1.142823       -31.0978
  61   2.0000      -1.110189       -30.2098
  62   2.0000      -1.108887       -30.1744
  63   2.0000      -1.081124       -29.4189
  64   2.0000      -1.078108       -29.3368
  65   2.0000      -1.044779       -28.4299
  66   2.0000      -1.044750       -28.4291
  67   2.0000      -1.040567       -28.3153
  68   2.0000      -1.014844       -27.6153
  69   2.0000      -1.013052       -27.5666
  70   2.0000      -1.009178       -27.4611
  71   2.0000      -0.993191       -27.0261
  72   2.0000      -0.985968       -26.8296
  73   2.0000      -0.981264       -26.7016
  74   2.0000      -0.972634       -26.4667
  75   2.0000      -0.962013       -26.1777
  76   2.0000      -0.954490       -25.9730
  77   2.0000      -0.945722       -25.7344
  78   2.0000      -0.936396       -25.4806
  79   2.0000      -0.917586       -24.9688
  80   2.0000      -0.909635       -24.7524
  81   2.0000      -0.895903       -24.3788
  82   2.0000      -0.876054       -23.8386
  83   2.0000      -0.871659       -23.7191
  84   2.0000      -0.870582       -23.6897
  85   2.0000      -0.858788       -23.3688
  86   2.0000      -0.842433       -22.9238
  87   2.0000      -0.835440       -22.7335
  88   2.0000      -0.826405       -22.4876
  89   2.0000      -0.796986       -21.6871
  90   2.0000      -0.789764       -21.4906
  91   2.0000      -0.756558       -20.5870
  92   2.0000      -0.751457       -20.4482
  93   2.0000      -0.733309       -19.9544
  94   2.0000      -0.726167       -19.7600
  95   2.0000      -0.722788       -19.6681
  96   2.0000      -0.718066       -19.5396
  97   2.0000      -0.715337       -19.4653
  98   2.0000      -0.711313       -19.3558
  99   2.0000      -0.697845       -18.9893
 100   2.0000      -0.696757       -18.9597
 101   2.0000      -0.690138       -18.7796
 102   2.0000      -0.684566       -18.6280
 103   2.0000      -0.683541       -18.6001
 104   2.0000      -0.678432       -18.4611
 105   2.0000      -0.674337       -18.3496
 106   2.0000      -0.671900       -18.2833
 107   2.0000      -0.660268       -17.9668
 108   2.0000      -0.657889       -17.9021
 109   2.0000      -0.652609       -17.7584
 110   2.0000      -0.652028       -17.7426
 111   2.0000      -0.645290       -17.5592
 112   2.0000      -0.644810       -17.5462
 113   2.0000      -0.637389       -17.3442
 114   2.0000      -0.637206       -17.3393
 115   2.0000      -0.628246       -17.0954
 116   2.0000      -0.622622       -16.9424
 117   2.0000      -0.621189       -16.9034
 118   2.0000      -0.612842       -16.6763
 119   2.0000      -0.611957       -16.6522
 120   2.0000      -0.611756       -16.6467
 121   2.0000      -0.610471       -16.6118
 122   2.0000      -0.601082       -16.3563
 123   2.0000      -0.587382       -15.9835
 124   2.0000      -0.581264       -15.8170
 125   2.0000      -0.580946       -15.8083
 126   2.0000      -0.579831       -15.7780
 127   2.0000      -0.571293       -15.5457
 128   2.0000      -0.568829       -15.4786
 129   2.0000      -0.559750       -15.2316
 130   2.0000      -0.552908       -15.0454
 131   2.0000      -0.547696       -14.9036
 132   2.0000      -0.542422       -14.7601
 133   2.0000      -0.541460       -14.7339
 134   2.0000      -0.538192       -14.6449
 135   2.0000      -0.536261       -14.5924
 136   2.0000      -0.530502       -14.4357
 137   2.0000      -0.519911       -14.1475
 138   2.0000      -0.516610       -14.0577
 139   2.0000      -0.514797       -14.0083
 140   2.0000      -0.512485       -13.9454
 141   2.0000      -0.510656       -13.8957
 142   2.0000      -0.508595       -13.8396
 143   2.0000      -0.504649       -13.7322
 144   2.0000      -0.502333       -13.6692
 145   2.0000      -0.496103       -13.4997
 146   2.0000      -0.489836       -13.3291
 147   2.0000      -0.482083       -13.1181
 148   2.0000      -0.478330       -13.0160
 149   2.0000      -0.467386       -12.7182
 150   2.0000      -0.466412       -12.6917
 151   2.0000      -0.457107       -12.4385
 152   2.0000      -0.451588       -12.2883
 153   2.0000      -0.444746       -12.1022
 154   2.0000      -0.439309       -11.9542
 155   2.0000      -0.427629       -11.6364
 156   2.0000      -0.413562       -11.2536
 157   2.0000      -0.407269       -11.0824
 158   2.0000      -0.392395       -10.6776
 159   2.0000      -0.386904       -10.5282
 160   2.0000      -0.385745       -10.4966
 161   2.0000      -0.378542       -10.3007
 162   2.0000      -0.369786       -10.0624
 163   2.0000      -0.356469        -9.7000
 164   2.0000      -0.355926        -9.6852
 165   2.0000      -0.341866        -9.3027
 166   2.0000      -0.337668        -9.1884
 167   2.0000      -0.324780        -8.8377
 168   2.0000      -0.321857        -8.7582
 169   2.0000      -0.304920        -8.2973
 170   2.0000      -0.299582        -8.1520
 171   2.0000      -0.285464        -7.7679
 172   2.0000      -0.279663        -7.6100
 173   2.0000      -0.263792        -7.1782
 174   2.0000      -0.241494        -6.5714
 175   2.0000      -0.189950        -5.1688
 176   2.0000      -0.180732        -4.9180
 177   2.0000      -0.078427        -2.1341
 178   2.0000      -0.059389        -1.6161
 179   0.0000       0.028316         0.7705
 180   0.0000       0.065493         1.7822
 181   0.0000       0.090453         2.4613
 182   0.0000       0.107027         2.9124
 183   0.0000       0.113783         3.0962

MULLIKEN ATOMIC CHARGES
-----------------------
   0 C :    0.214664
   1 N :   -0.455604
   2 C :   -0.070939
   3 N :   -0.339784
   4 C :   -0.054094
   5 N :   -0.566992
   6 C :   -0.109167
   7 N :   -0.340745
   8 C :    0.209233
   9 N :   -0.562118
  10 C :    0.118531
  11 N :   -0.438627
  12 C :   -0.069687
  13 N :   -0.429662
  14 C :    0.225811
  15 N :   -0.440801
  16 C :    0.229599
  17 C :   -0.121889
  18 C :   -0.186112
  19 C :    0.218332
  20 C :    0.213115
  21 C :   -0.074093
  22 C :   -0.091239
  23 C :   -0.039664
  24 C :    0.193473
  25 C :    0.114705
  26 C :   -0.089115
  27 C :    0.214553
  28 C :   -0.061690
  29 C :   -0.181431
  30 C :    0.246162
  31 C :    0.229487
  32 C :   -0.061978
  33 C :   -0.060738
  34 C :   -0.051458
  35 C :    0.228217
  36 C :    0.108369
  37 C :   -0.064233
  38 C :    0.230859
  39 C :   -0.057469
  40 C :   -0.181529
  41 C :    0.226209
  42 C :    0.197711
  43 C :   -0.072253
  44 C :   -0.089113
  45 C :   -0.061316
  46 C :    0.211934
  47 C :    0.115258
  48 C :   -0.066846
  49 C :    0.238813
  50 C :   -0.046387
  51 C :   -0.192525
  52 H :    0.036781
  53 H :   -0.017638
  54 H :    0.048129
  55 H :    0.035928
  56 H :    0.049464
  57 H :    0.047768
  58 H :    0.047038
  59 H :   -0.003716
  60 H :    0.045260
  61 H :    0.171211
  62 H :    0.175382
  63 H :    0.054919
  64 H :   -0.019161
  65 H :    0.047028
  66 H :    0.055396
  67 H :    0.062130
  68 H :    0.057061
  69 H :    0.056155
  70 H :   -0.030363
  71 H :    0.044410
  72 H :    0.071048
  73 H :   -0.008034
  74 H :    0.060138
  75 H :    0.070509
  76 H :    0.074692
  77 H :    0.067827
  78 H :    0.067162
  79 H :   -0.016670
  80 H :    0.061116
  81 H :    0.054579
  82 H :   -0.024688
  83 H :    0.042263
  84 H :    0.054518
  85 H :    0.061155
  86 H :    0.055753
  87 H :    0.057374
  88 H :   -0.014477
  89 H :    0.046818
Sum of atomic charges:   -0.0000000

LOEWDIN ATOMIC CHARGES
----------------------
   0 C :   -0.018754
   1 N :    0.119402
   2 C :   -0.101202
   3 N :    0.183005
   4 C :   -0.011614
   5 N :   -0.133818
   6 C :   -0.029297
   7 N :    0.175216
   8 C :   -0.023080
   9 N :   -0.140502
  10 C :    0.023026
  11 N :    0.141440
  12 C :   -0.114420
  13 N :    0.165748
  14 C :   -0.020791
  15 N :    0.139243
  16 C :   -0.060408
  17 C :   -0.043208
  18 C :   -0.107879
  19 C :   -0.077324
  20 C :    0.004140
  21 C :   -0.116184
  22 C :    0.036324
  23 C :   -0.014665
  24 C :   -0.012911
  25 C :    0.029697
  26 C :   -0.108817
  27 C :   -0.116420
  28 C :   -0.027788
  29 C :   -0.100310
  30 C :   -0.029550
  31 C :    0.023602
  32 C :   -0.094783
  33 C :    0.081054
  34 C :   -0.015418
  35 C :    0.022817
  36 C :    0.035133
  37 C :   -0.094080
  38 C :   -0.052636
  39 C :   -0.017546
  40 C :   -0.108444
  41 C :   -0.090755
  42 C :   -0.009996
  43 C :   -0.099117
  44 C :    0.034260
  45 C :   -0.027944
  46 C :    0.002373
  47 C :    0.029612
  48 C :   -0.094688
  49 C :   -0.069640
  50 C :   -0.018711
  51 C :   -0.108433
  52 H :    0.022713
  53 H :    0.002637
  54 H :    0.018865
  55 H :    0.022680
  56 H :    0.021968
  57 H :    0.026356
  58 H :    0.026828
  59 H :    0.009606
  60 H :    0.026794
  61 H :    0.060130
  62 H :    0.061813
  63 H :    0.030559
  64 H :    0.002207
  65 H :    0.045856
  66 H :    0.029133
  67 H :    0.028074
  68 H :    0.031547
  69 H :    0.030192
  70 H :   -0.004845
  71 H :    0.043306
  72 H :    0.037575
  73 H :    0.007116
  74 H :    0.050552
  75 H :    0.037287
  76 H :    0.034687
  77 H :    0.036106
  78 H :    0.035805
  79 H :    0.002931
  80 H :    0.050677
  81 H :    0.029177
  82 H :   -0.002651
  83 H :    0.042656
  84 H :    0.030039
  85 H :    0.027525
  86 H :    0.030280
  87 H :    0.031480
  88 H :    0.002389
  89 H :    0.044993

  Mayer bond orders larger than 0.100000
B(  0-C ,  1-N ) :   1.0976 B(  0-C , 17-C ) :   1.7082 B(  0-C , 52-H ) :   0.9648
B(  1-N ,  8-C ) :   1.0885 B(  1-N , 10-C ) :   0.9777 B(  2-C , 12-C ) :   1.4969
B(  2-C , 16-C ) :   1.3654 B(  2-C , 53-H ) :   0.9736 B(  3-N , 14-C ) :   1.2208
B(  3-N , 16-C ) :   1.1841 B(  3-N , 61-H ) :   0.8989 B(  4-C ,  6-C ) :   1.2128
B(  4-C , 17-C ) :   1.2141 B(  4-C , 18-C ) :   1.4612 B(  5-N , 19-C ) :   1.4559
B(  5-N , 27-C ) :   1.3741 B(  6-C ,  8-C ) :   1.7172 B(  6-C , 54-H ) :   0.9108
B(  7-N , 30-C ) :   1.1961 B(  7-N , 38-C ) :   1.1893 B(  7-N , 62-H ) :   0.8968
B(  8-C , 55-H ) :   0.9644 B(  9-N , 41-C ) :   1.3949 B(  9-N , 49-C ) :   1.4247
B( 10-C , 56-H ) :   0.9774 B( 10-C , 57-H ) :   0.9822 B( 10-C , 58-H ) :   0.9842
B( 11-N , 20-C ) :   1.1303 B( 11-N , 24-C ) :   1.1064 B( 11-N , 25-C ) :   0.9605
B( 12-C , 14-C ) :   1.3566 B( 12-C , 59-H ) :   0.9564 B( 13-N , 31-C ) :   1.1602
B( 13-N , 35-C ) :   1.1596 B( 13-N , 36-C ) :   0.9417 B( 14-C , 18-C ) :   1.1231
B( 15-N , 42-C ) :   1.1084 B( 15-N , 46-C ) :   1.1249 B( 15-N , 47-C ) :   0.9610
B( 16-C , 51-C ) :   1.1691 B( 17-C , 60-H ) :   0.9289 B( 18-C , 19-C ) :   1.1233
B( 19-C , 21-C ) :   1.2517 B( 20-C , 28-C ) :   1.6295 B( 20-C , 63-H ) :   0.9703
B( 21-C , 26-C ) :   1.5868 B( 21-C , 64-H ) :   0.9392 B( 22-C , 23-C ) :   1.2884
B( 22-C , 28-C ) :   1.2632 B( 22-C , 29-C ) :   1.2269 B( 23-C , 24-C ) :   1.6212
B( 23-C , 65-H ) :   0.9703 B( 24-C , 66-H ) :   0.9695 B( 25-C , 67-H ) :   0.9761
B( 25-C , 68-H ) :   0.9828 B( 25-C , 69-H ) :   0.9823 B( 26-C , 27-C ) :   1.2565
B( 26-C , 70-H ) :   0.9687 B( 27-C , 29-C ) :   1.2064 B( 28-C , 71-H ) :   0.9720
B( 29-C , 30-C ) :   1.2453 B( 30-C , 32-C ) :   1.2801 B( 31-C , 39-C ) :   1.5886
B( 31-C , 72-H ) :   0.9681 B( 32-C , 37-C ) :   1.5784 B( 32-C , 73-H ) :   0.9786
B( 33-C , 34-C ) :   1.3060 B( 33-C , 39-C ) :   1.3036 B( 33-C , 40-C ) :   1.1779
B( 34-C , 35-C ) :   1.5864 B( 34-C , 74-H ) :   0.9697 B( 35-C , 75-H ) :   0.9681
B( 36-C , 76-H ) :   0.9768 B( 36-C , 77-H ) :   0.9816 B( 36-C , 78-H ) :   0.9823
B( 37-C , 38-C ) :   1.2862 B( 37-C , 79-H ) :   0.9765 B( 38-C , 40-C ) :   1.2329
B( 39-C , 80-H ) :   0.9705 B( 40-C , 41-C ) :   1.2503 B( 41-C , 43-C ) :   1.1843
B( 42-C , 50-C ) :   1.6323 B( 42-C , 81-H ) :   0.9696 B( 43-C , 48-C ) :   1.6687
B( 43-C , 82-H ) :   0.9722 B( 44-C , 45-C ) :   1.2643 B( 44-C , 50-C ) :   1.2731
B( 44-C , 51-C ) :   1.2590 B( 45-C , 46-C ) :   1.6338 B( 45-C , 83-H ) :   0.9718
B( 46-C , 84-H ) :   0.9700 B( 47-C , 85-H ) :   0.9762 B( 47-C , 86-H ) :   0.9829
B( 47-C , 87-H ) :   0.9824 B( 48-C , 49-C ) :   1.1877 B( 48-C , 88-H ) :   0.9748
B( 49-C , 51-C ) :   1.2446 B( 50-C , 89-H ) :   0.9709

MP2 TOTAL ENERGY:    -2130.827027171 Eh
FINAL SINGLE POINT ENERGY     -2130.827027170921

DIPOLE MOMENT
-------------
                                X             Y             Z
Electronic contribution:      2.85635      -4.14973      -0.10408
Nuclear contribution   :     -0.04753       0.15489       0.12053
                        -----------------------------------------
Total Dipole Moment    :      2.80882      -3.99484       0.01645
                        -----------------------------------------
Magnitude (a.u.)       :      4.88350
Magnitude (Debye)      :     12.41286

Rotational constants in cm-1:     0.001503     0.001477     0.000760
Rotational constants in MHz :    45.052777    44.290825    22.788890

                             ****ORCA TERMINATED NORMALLY****
TOTAL RUN TIME: 0 days 1 hours 25 minutes 25 seconds 432 msec
