                         Program Version 5.0.4 -  RELEASE  -
|  1> ! PAL2
|  2> ! mp2 cc-pvdz TightSCF  NoKeepInts
|  3>
|  4> %scf
|  5>   MaxCore 2000
|  6> end
|  7> %mp2
|  8>   MaxCore 2000
|  9> end
| 10> * xyz 0 1
| 11>    C       -3.25900         6.35600        -0.65400
| 12>    C        1.47400         4.04100         0.05700
| 13>    C       -2.80200         4.09300         0.04900
| 14>    C       -3.96100         4.15900         0.83800
| 15>    C       -4.72500         5.30800         0.85300
| 16>    C       -5.23100         7.59000         0.12600
| 17>    C        0.13200         4.30700         0.06100
| 18>    C       -0.56900         3.05600         0.04700
| 19>    C        1.64900         2.61800         0.02300
| 20>    C       -2.46500         5.22700        -0.70700
| 21>    N       -4.36900         6.38700         0.11700
| 22>    N        0.38800         2.06700         0.02500
| 23>    N       -2.01000         0.39500        -0.07500
| 24>    N       -0.38800        -2.07400        -0.02700
| 25>    N        2.01000        -0.40100         0.06500
| 26>    C       -1.96000         2.86100         0.02400
| 27>    C       -2.62300         1.61500        -0.01800
| 28>    C       -5.57300        -4.32900         1.06600
| 29>    C       -4.07300         1.47100         0.05600
| 30>    C       -4.10600        -2.75600        -0.02600
| 31>    C       -4.99500        -2.75700        -1.11100
| 32>    C       -6.13200        -3.54200        -1.07600
| 33>    C       -7.65100        -5.11300         0.04000
| 34>    C       -4.32400         0.14100         0.03700
| 35>    C       -3.02500        -0.52000        -0.04800
| 36>    C       -4.42200        -3.56600         1.07500
| 37>    N       -6.40700        -4.31300         0.00100
| 38>    C       -2.86700        -1.92200        -0.04000
| 39>    C       -1.65000        -2.62400        -0.02700
| 40>    C        3.56800        -6.14200        -1.04000
| 41>    C       -1.47600        -4.04900        -0.03400
| 42>    C        2.80300        -4.09900        -0.00800
| 43>    C        3.65700        -4.38400         1.06900
| 44>    C        4.42700        -5.53000         1.05900
| 45>    C        5.24500        -7.58800         0.01400
| 46>    C       -0.13400        -4.31500        -0.02200
| 47>    C        0.56800        -3.06400        -0.02700
| 48>    C        2.77500        -5.01200        -1.07400
| 49>    N        4.37600        -6.39100         0.01700
| 50>    C        1.95900        -2.86900        -0.00900
| 51>    C        2.62100        -1.62200         0.00900
| 52>    C        5.54300         4.33900        -1.13000
| 53>    C        4.07000        -1.47900        -0.09400
| 54>    C        4.10400         2.75100        -0.02100
| 55>    C        5.02700         2.72900         1.03600
| 56>    C        6.16600         3.50900         0.97800
| 57>    C        7.61900         5.15300        -0.11500
| 58>    C        4.32100        -0.14800        -0.09200
| 59>    C        3.02500         0.51400         0.01500
| 60>    C        4.38700         3.58200        -1.11500
| 61>    C        2.86600         1.91600         0.01300
| 62>    N        6.41300         4.29600        -0.09500
| 63>    H       -3.03100         7.25700        -1.21100
| 64>    H        2.27400         4.76600         0.08100
| 65>    H       -4.27800         3.31300         1.43600
| 66>    H       -5.63100         5.40200         1.43900
| 67>    H       -6.01700         7.46900        -0.62200
| 68>    H       -5.66900         7.70000         1.11700
| 69>    H       -4.61900         8.46000        -0.11100
| 70>    H       -0.33200         5.28200         0.06900
| 71>    H       -1.57500         5.24300        -1.32500
| 72>    H        0.18200         1.07200         0.00500
| 73>    H       -0.18300        -1.08000        -0.02100
| 74>    H       -5.86400        -4.96200         1.89500
| 75>    H       -4.79400         2.27200         0.13900
| 76>    H       -4.80000        -2.16000        -1.99400
| 77>    H       -6.84100        -3.58200        -1.89300
| 78>    H       -8.42800        -4.53600         0.54600
| 79>    H       -7.95600        -5.33700        -0.98100
| 80>    H       -7.45600        -6.03700         0.58400
| 81>    H       -5.28700        -0.34400         0.10000
| 82>    H       -3.78000        -3.60100         1.94700
| 83>    H        3.58700        -6.86800        -1.84300
| 84>    H       -2.27600        -4.77400        -0.05000
| 85>    H        3.71400        -3.72400         1.92600
| 86>    H        5.09200        -5.79500         1.87100
| 87>    H        6.20500        -7.32900        -0.43900
| 88>    H        5.39300        -7.91700         1.04200
| 89>    H        4.75900        -8.37300        -0.56400
| 90>    H        0.32900        -5.29000        -0.00800
| 91>    H        2.14600        -4.84200        -1.94000
| 92>    H        5.80800         4.98600        -1.95600
| 93>    H        4.78800        -2.28100        -0.18500
| 94>    H        4.86000         2.11400         1.91200
| 95>    H        6.90100         3.53100         1.77200
| 96>    H        7.38300         6.10900         0.35600
| 97>    H        8.41400         4.65200         0.43500
| 98>    H        7.92100         5.31000        -1.15000
| 99>    H        5.28300         0.33600        -0.17900
|100>    H        3.72000         3.63200        -1.96700
|101> *
|102>
|103>                          ****END OF INPUT****

CARTESIAN COORDINATES (ANGSTROEM)
---------------------------------
  C     -3.259000    6.356000   -0.654000
  C      1.474000    4.041000    0.057000
  C     -2.802000    4.093000    0.049000
  C     -3.961000    4.159000    0.838000
  C     -4.725000    5.308000    0.853000
  C     -5.231000    7.590000    0.126000
  C      0.132000    4.307000    0.061000
  C     -0.569000    3.056000    0.047000
  C      1.649000    2.618000    0.023000
  C     -2.465000    5.227000   -0.707000
  N     -4.369000    6.387000    0.117000
  N      0.388000    2.067000    0.025000
  N     -2.010000    0.395000   -0.075000
  N     -0.388000   -2.074000   -0.027000
  N      2.010000   -0.401000    0.065000
  C     -1.960000    2.861000    0.024000
  C     -2.623000    1.615000   -0.018000
  C     -5.573000   -4.329000    1.066000
  C     -4.073000    1.471000    0.056000
  C     -4.106000   -2.756000   -0.026000
  C     -4.995000   -2.757000   -1.111000
  C     -6.132000   -3.542000   -1.076000
  C     -7.651000   -5.113000    0.040000
  C     -4.324000    0.141000    0.037000
  C     -3.025000   -0.520000   -0.048000
  C     -4.422000   -3.566000    1.075000
  N     -6.407000   -4.313000    0.001000
  C     -2.867000   -1.922000   -0.040000
  C     -1.650000   -2.624000   -0.027000
  C      3.568000   -6.142000   -1.040000
  C     -1.476000   -4.049000   -0.034000
  C      2.803000   -4.099000   -0.008000
  C      3.657000   -4.384000    1.069000
  C      4.427000   -5.530000    1.059000
  C      5.245000   -7.588000    0.014000
  C     -0.134000   -4.315000   -0.022000
  C      0.568000   -3.064000   -0.027000
  C      2.775000   -5.012000   -1.074000
  N      4.376000   -6.391000    0.017000
  C      1.959000   -2.869000   -0.009000
  C      2.621000   -1.622000    0.009000
  C      5.543000    4.339000   -1.130000
  C      4.070000   -1.479000   -0.094000
  C      4.104000    2.751000   -0.021000
  C      5.027000    2.729000    1.036000
  C      6.166000    3.509000    0.978000
  C      7.619000    5.153000   -0.115000
  C      4.321000   -0.148000   -0.092000
  C      3.025000    0.514000    0.015000
  C      4.387000    3.582000   -1.115000
  C      2.866000    1.916000    0.013000
  N      6.413000    4.296000   -0.095000
  H     -3.031000    7.257000   -1.211000
  H      2.274000    4.766000    0.081000
  H     -4.278000    3.313000    1.436000
  H     -5.631000    5.402000    1.439000
  H     -6.017000    7.469000   -0.622000
  H     -5.669000    7.700000    1.117000
  H     -4.619000    8.460000   -0.111000
  H     -0.332000    5.282000    0.069000
  H     -1.575000    5.243000   -1.325000
  H      0.182000    1.072000    0.005000
  H     -0.183000   -1.080000   -0.021000
  H     -5.864000   -4.962000    1.895000
  H     -4.794000    2.272000    0.139000
  H     -4.800000   -2.160000   -1.994000
  H     -6.841000   -3.582000   -1.893000
  H     -8.428000   -4.536000    0.546000
  H     -7.956000   -5.337000   -0.981000
  H     -7.456000   -6.037000    0.584000
  H     -5.287000   -0.344000    0.100000
  H     -3.780000   -3.601000    1.947000
  H      3.587000   -6.868000   -1.843000
  H     -2.276000   -4.774000   -0.050000
  H      3.714000   -3.724000    1.926000
  H      5.092000   -5.795000    1.871000
  H      6.205000   -7.329000   -0.439000
  H      5.393000   -7.917000    1.042000
  H      4.759000   -8.373000   -0.564000
  H      0.329000   -5.290000   -0.008000
  H      2.146000   -4.842000   -1.940000
  H      5.808000    4.986000   -1.956000
  H      4.788000   -2.281000   -0.185000
  H      4.860000    2.114000    1.912000
  H      6.901000    3.531000    1.772000
  H      7.383000    6.109000    0.356000
  H      8.414000    4.652000    0.435000
  H      7.921000    5.310000   -1.150000
  H      5.283000    0.336000   -0.179000
  H      3.720000    3.632000   -1.967000

 Total Charge           Charge          ....    0
 Multiplicity           Mult            ....    1
 Number of Electrons    NEL             ....  358
 Basis Dimension        Dim             ....  918

ORBITAL ENERGIES
----------------

  NO   OCC          E(Eh)            E(eV)
   0   2.0000     -15.663856      -426.2352
   1   2.0000     -15.635836      -425.4727
   2   2.0000     -15.630432      -425.3257
   3   2.0000     -15.599104      -424.4732
   4   2.0000     -15.523239      -422.4088
   5   2.0000     -15.516404      -422.2228
   6   2.0000     -15.450322      -420.4246
   7   2.0000     -15.442435      -420.2100
   8   2.0000     -11.318083      -307.9807
   9   2.0000     -11.316406      -307.9351
  10   2.0000     -11.314665      -307.8877
  11   2.0000     -11.300471      -307.5014
  12   2.0000     -11.297360      -307.4168
  13   2.0000     -11.293687      -307.3168
  14   2.0000     -11.289062      -307.1910
  15   2.0000     -11.289011      -307.1896
  16   2.0000     -11.286067      -307.1095
  17   2.0000     -11.278418      -306.9014
  18   2.0000     -11.267063      -306.5924
  19   2.0000     -11.263614      -306.4985
  20   2.0000     -11.261801      -306.4492
  21   2.0000     -11.252144      -306.1864
  22   2.0000     -11.251215      -306.1611
  23   2.0000     -11.239382      -305.8391
  24   2.0000     -11.235118      -305.7231
  25   2.0000     -11.232479      -305.6513
  26   2.0000     -11.231680      -305.6295
  27   2.0000     -11.228571      -305.5450
  28   2.0000     -11.228466      -305.5421
  29   2.0000     -11.208533      -304.9997
  30   2.0000     -11.207146      -304.9620
  31   2.0000     -11.206175      -304.9355
  32   2.0000     -11.203292      -304.8571
  33   2.0000     -11.201985      -304.8215
  34   2.0000     -11.191281      -304.5302
  35   2.0000     -11.190590      -304.5114
  36   2.0000     -11.184249      -304.3389
  37   2.0000     -11.182061      -304.2793
  38   2.0000     -11.181253      -304.2573
  39   2.0000     -11.172539      -304.0203
  40   2.0000     -11.169498      -303.9375
  41   2.0000     -11.168781      -303.9180
  42   2.0000     -11.164966      -303.8142
  43   2.0000     -11.163910      -303.7854
  44   2.0000     -11.162193      -303.7387
  45   2.0000     -11.160729      -303.6989
  46   2.0000     -11.154861      -303.5392
  47   2.0000     -11.151047      -303.4354
  48   2.0000     -11.149827      -303.4022
  49   2.0000     -11.144278      -303.2512
  50   2.0000     -11.135735      -303.0188
  51   2.0000     -11.128988      -302.8352
  52   2.0000      -1.346820       -36.6488
  53   2.0000      -1.322815       -35.9956
  54   2.0000      -1.318319       -35.8733
  55   2.0000      -1.292268       -35.1644
  56   2.0000      -1.223153       -33.2837
  57   2.0000      -1.211345       -32.9624
  58   2.0000      -1.168482       -31.7960
  59   2.0000      -1.154065       -31.4037
  60   2.0000      -1.132204       -30.8088
  61   2.0000      -1.111426       -30.2434
  62   2.0000      -1.107788       -30.1445
  63   2.0000      -1.086733       -29.5715
  64   2.0000      -1.069475       -29.1019
  65   2.0000      -1.046891       -28.4874
  66   2.0000      -1.043017       -28.3819
  67   2.0000      -1.033795       -28.1310
  68   2.0000      -1.019864       -27.7519
  69   2.0000      -1.013392       -27.5758
  70   2.0000      -1.009849       -27.4794
  71   2.0000      -0.992774       -27.0148
  72   2.0000      -0.987140       -26.8615
  73   2.0000      -0.976640       -26.5757
  74   2.0000      -0.973093       -26.4792
  75   2.0000      -0.959804       -26.1176
  76   2.0000      -0.951141       -25.8819
  77   2.0000      -0.948092       -25.7989
  78   2.0000      -0.936304       -25.4781
  79   2.0000      -0.921455       -25.0741
  80   2.0000      -0.900147       -24.4942
  81   2.0000      -0.890741       -24.2383
  82   2.0000      -0.874455       -23.7951
  83   2.0000      -0.870747       -23.6942
  84   2.0000      -0.865663       -23.5559
  85   2.0000      -0.855724       -23.2854
  86   2.0000      -0.844742       -22.9866
  87   2.0000      -0.838063       -22.8048
  88   2.0000      -0.822795       -22.3894
  89   2.0000      -0.798599       -21.7310
  90   2.0000      -0.794614       -21.6226
  91   2.0000      -0.745032       -20.2734
  92   2.0000      -0.737864       -20.0783
  93   2.0000      -0.731476       -19.9045
  94   2.0000      -0.722550       -19.6616
  95   2.0000      -0.720919       -19.6172
  96   2.0000      -0.713933       -19.4271
  97   2.0000      -0.706893       -19.2355
  98   2.0000      -0.702990       -19.1293
  99   2.0000      -0.695754       -18.9324
 100   2.0000      -0.693972       -18.8839
 101   2.0000      -0.682069       -18.5600
 102   2.0000      -0.678600       -18.4657
 103   2.0000      -0.676023       -18.3955
 104   2.0000      -0.673927       -18.3385
 105   2.0000      -0.671857       -18.2822
 106   2.0000      -0.665089       -18.0980
 107   2.0000      -0.662395       -18.0247
 108   2.0000      -0.655162       -17.8279
 109   2.0000      -0.654164       -17.8007
 110   2.0000      -0.650333       -17.6965
 111   2.0000      -0.646807       -17.6005
 112   2.0000      -0.642484       -17.4829
 113   2.0000      -0.637833       -17.3563
 114   2.0000      -0.634526       -17.2663
 115   2.0000      -0.630256       -17.1501
 116   2.0000      -0.625627       -17.0242
 117   2.0000      -0.615881       -16.7590
 118   2.0000      -0.613765       -16.7014
 119   2.0000      -0.611344       -16.6355
 120   2.0000      -0.610218       -16.6049
 121   2.0000      -0.602081       -16.3835
 122   2.0000      -0.600593       -16.3430
 123   2.0000      -0.588722       -16.0199
 124   2.0000      -0.586015       -15.9463
 125   2.0000      -0.582423       -15.8485
 126   2.0000      -0.579583       -15.7713
 127   2.0000      -0.576793       -15.6953
 128   2.0000      -0.563734       -15.3400
 129   2.0000      -0.558552       -15.1990
 130   2.0000      -0.554371       -15.0852
 131   2.0000      -0.548887       -14.9360
 132   2.0000      -0.541463       -14.7340
 133   2.0000      -0.537873       -14.6363
 134   2.0000      -0.535289       -14.5660
 135   2.0000      -0.534965       -14.5571
 136   2.0000      -0.525833       -14.3086
 137   2.0000      -0.524445       -14.2709
 138   2.0000      -0.516424       -14.0526
 139   2.0000      -0.516125       -14.0445
 140   2.0000      -0.511346       -13.9144
 141   2.0000      -0.510158       -13.8821
 142   2.0000      -0.508181       -13.8283
 143   2.0000      -0.502580       -13.6759
 144   2.0000      -0.501153       -13.6371
 145   2.0000      -0.497948       -13.5499
 146   2.0000      -0.494270       -13.4498
 147   2.0000      -0.486583       -13.2406
 148   2.0000      -0.484255       -13.1772
 149   2.0000      -0.468490       -12.7483
 150   2.0000      -0.464030       -12.6269
 151   2.0000      -0.456148       -12.4124
 152   2.0000      -0.448892       -12.2150
 153   2.0000      -0.446290       -12.1442
 154   2.0000      -0.444382       -12.0922
 155   2.0000      -0.440851       -11.9962
 156   2.0000      -0.431868       -11.7517
 157   2.0000      -0.425912       -11.5896
 158   2.0000      -0.400159       -10.8889
 159   2.0000      -0.387307       -10.5392
 160   2.0000      -0.378614       -10.3026
 161   2.0000      -0.376666       -10.2496
 162   2.0000      -0.370235       -10.0746
 163   2.0000      -0.357797        -9.7361
 164   2.0000      -0.354703        -9.6520
 165   2.0000      -0.338236        -9.2039
 166   2.0000      -0.336981        -9.1697
 167   2.0000      -0.332080        -9.0363
 168   2.0000      -0.327376        -8.9084
 169   2.0000      -0.301608        -8.2072
 170   2.0000      -0.299910        -8.1610
 171   2.0000      -0.287198        -7.8150
 172   2.0000      -0.284598        -7.7443
 173   2.0000      -0.260458        -7.0874
 174   2.0000      -0.245205        -6.6724
 175   2.0000      -0.189454        -5.1553
 176   2.0000      -0.179650        -4.8885
 177   2.0000      -0.072194        -1.9645
 178   2.0000      -0.057033        -1.5520
 179   0.0000       0.029160         0.7935
 180   0.0000       0.068082         1.8526
 181   0.0000       0.092069         2.5053
 182   0.0000       0.105141         2.8610
 183   0.0000       0.116837         3.1793

MULLIKEN ATOMIC CHARGES
-----------------------
   0 C :    0.207367
   1 N :   -0.452441
   2 C :   -0.062635
   3 N :   -0.336003
   4 C :   -0.050602
   5 N :   -0.562936
   6 C :   -0.100088
   7 N :   -0.339456
   8 C :    0.204760
   9 N :   -0.562598
  10 C :    0.118625
  11 N :   -0.438024
  12 C :   -0.082910
  13 N :   -0.433222
  14 C :    0.241128
  15 N :   -0.440999
  16 C :    0.228159
  17 C :   -0.109092
  18 C :   -0.207305
  19 C :    0.234115
  20 C :    0.211766
  21 C :   -0.095957
  22 C :   -0.090219
  23 C :   -0.042424
  24 C :    0.197491
  25 C :    0.114338
  26 C :   -0.074803
  27 C :    0.214380
  28 C :   -0.058784
  29 C :   -0.180976
  30 C :    0.242526
  31 C :    0.223511
  32 C :   -0.063003
  33 C :   -0.067898
  34 C :   -0.050612
  35 C :    0.219618
  36 C :    0.110329
  37 C :   -0.065256
  38 C :    0.233327
  39 C :   -0.059034
  40 C :   -0.184014
  41 C :    0.224291
  42 C :    0.199101
  43 C :   -0.072650
  44 C :   -0.089633
  45 C :   -0.058402
  46 C :    0.208731
  47 C :    0.115479
  48 C :   -0.069420
  49 C :    0.234616
  50 C :   -0.048637
  51 C :   -0.190374
  52 H :    0.043419
  53 H :   -0.015670
  54 H :    0.052626
  55 H :    0.042818
  56 H :    0.051589
  57 H :    0.050163
  58 H :    0.049327
  59 H :   -0.000982
  60 H :    0.047485
  61 H :    0.171631
  62 H :    0.174573
  63 H :    0.055733
  64 H :   -0.008990
  65 H :    0.047460
  66 H :    0.056493
  67 H :    0.062496
  68 H :    0.057645
  69 H :    0.057200
  70 H :   -0.027640
  71 H :    0.045695
  72 H :    0.066128
  73 H :   -0.009979
  74 H :    0.055588
  75 H :    0.065387
  76 H :    0.070353
  77 H :    0.064522
  78 H :    0.063788
  79 H :   -0.015570
  80 H :    0.056325
  81 H :    0.053806
  82 H :   -0.024278
  83 H :    0.042331
  84 H :    0.053847
  85 H :    0.060246
  86 H :    0.055770
  87 H :    0.056894
  88 H :   -0.016756
  89 H :    0.045272
Sum of atomic charges:   -0.0000000

LOEWDIN ATOMIC CHARGES
----------------------
   0 C :   -0.017851
   1 N :    0.120163
   2 C :   -0.100764
   3 N :    0.182586
   4 C :    0.003577
   5 N :   -0.133731
   6 C :   -0.033826
   7 N :    0.176436
   8 C :   -0.019397
   9 N :   -0.140075
  10 C :    0.025422
  11 N :    0.142918
  12 C :   -0.108656
  13 N :    0.157482
  14 C :   -0.033879
  15 N :    0.138517
  16 C :   -0.056033
  17 C :   -0.039475
  18 C :   -0.103153
  19 C :   -0.084030
  20 C :    0.003341
  21 C :   -0.115734
  22 C :    0.038226
  23 C :   -0.016144
  24 C :   -0.008908
  25 C :    0.030034
  26 C :   -0.105665
  27 C :   -0.110125
  28 C :   -0.025527
  29 C :   -0.102116
  30 C :   -0.035233
  31 C :    0.016389
  32 C :   -0.096119
  33 C :    0.067078
  34 C :   -0.016635
  35 C :    0.013211
  36 C :    0.033274
  37 C :   -0.096740
  38 C :   -0.048375
  39 C :   -0.020262
  40 C :   -0.108379
  41 C :   -0.092088
  42 C :   -0.009131
  43 C :   -0.100959
  44 C :    0.033035
  45 C :   -0.026172
  46 C :   -0.000615
  47 C :    0.029399
  48 C :   -0.097870
  49 C :   -0.076227
  50 C :   -0.020525
  51 C :   -0.108398
  52 H :    0.025135
  53 H :    0.003534
  54 H :    0.042988
  55 H :    0.025162
  56 H :    0.022714
  57 H :    0.027396
  58 H :    0.028003
  59 H :    0.008372
  60 H :    0.040227
  61 H :    0.060185
  62 H :    0.061396
  63 H :    0.030843
  64 H :    0.003666
  65 H :    0.045870
  66 H :    0.029747
  67 H :    0.028291
  68 H :    0.031811
  69 H :    0.030655
  70 H :   -0.003513
  71 H :    0.043998
  72 H :    0.035283
  73 H :    0.006164
  74 H :    0.048663
  75 H :    0.034786
  76 H :    0.032430
  77 H :    0.034548
  78 H :    0.034225
  79 H :    0.003468
  80 H :    0.048550
  81 H :    0.028902
  82 H :   -0.002392
  83 H :    0.042850
  84 H :    0.029635
  85 H :    0.027086
  86 H :    0.030261
  87 H :    0.031253
  88 H :    0.001301
  89 H :    0.044239

  Mayer bond orders larger than 0.100000
B(  0-C ,  1-N ) :   1.0975 B(  0-C , 17-C ) :   1.6852 B(  0-C , 52-H ) :   0.9684
B(  1-N ,  8-C ) :   1.0906 B(  1-N , 10-C ) :   0.9738 B(  2-C , 12-C ) :   1.5178
B(  2-C , 16-C ) :   1.3465 B(  2-C , 53-H ) :   0.9763 B(  3-N , 14-C ) :   1.2154
B(  3-N , 16-C ) :   1.1923 B(  3-N , 61-H ) :   0.8990 B(  4-C ,  6-C ) :   1.2222
B(  4-C , 17-C ) :   1.2239 B(  4-C , 18-C ) :   1.3940 B(  5-N , 19-C ) :   1.4442
B(  5-N , 27-C ) :   1.3856 B(  6-C ,  8-C ) :   1.6912 B(  6-C , 54-H ) :   0.9640
B(  7-N , 30-C ) :   1.1954 B(  7-N , 38-C ) :   1.1942 B(  7-N , 62-H ) :   0.8973
B(  8-C , 55-H ) :   0.9684 B(  9-N , 41-C ) :   1.3984 B(  9-N , 49-C ) :   1.4225
B( 10-C , 56-H ) :   0.9768 B( 10-C , 57-H ) :   0.9821 B( 10-C , 58-H ) :   0.9842
B( 11-N , 20-C ) :   1.1291 B( 11-N , 24-C ) :   1.1119 B( 11-N , 25-C ) :   0.9595
B( 12-C , 14-C ) :   1.3477 B( 12-C , 59-H ) :   0.9744 B( 13-N , 31-C ) :   1.1479
B( 13-N , 35-C ) :   1.1441 B( 13-N , 36-C ) :   0.9479 B( 14-C , 18-C ) :   1.1475
B( 15-N , 42-C ) :   1.1100 B( 15-N , 46-C ) :   1.1205 B( 15-N , 47-C ) :   0.9617
B( 16-C , 51-C ) :   1.1792 B( 17-C , 60-H ) :   0.9659 B( 18-C , 19-C ) :   1.1556
B( 19-C , 21-C ) :   1.2345 B( 20-C , 28-C ) :   1.6267 B( 20-C , 63-H ) :   0.9703
B( 21-C , 26-C ) :   1.6218 B( 21-C , 64-H ) :   0.9699 B( 22-C , 23-C ) :   1.2882
B( 22-C , 28-C ) :   1.2674 B( 22-C , 29-C ) :   1.2238 B( 23-C , 24-C ) :   1.6191
B( 23-C , 65-H ) :   0.9705 B( 24-C , 66-H ) :   0.9694 B( 25-C , 67-H ) :   0.9761
B( 25-C , 68-H ) :   0.9828 B( 25-C , 69-H ) :   0.9822 B( 26-C , 27-C ) :   1.2308
B( 26-C , 70-H ) :   0.9717 B( 27-C , 29-C ) :   1.2203 B( 28-C , 71-H ) :   0.9718
B( 29-C , 30-C ) :   1.2312 B( 30-C , 32-C ) :   1.2924 B( 31-C , 39-C ) :   1.6033
B( 31-C , 72-H ) :   0.9687 B( 32-C , 37-C ) :   1.5663 B( 32-C , 73-H ) :   0.9784
B( 33-C , 34-C ) :   1.2960 B( 33-C , 39-C ) :   1.2909 B( 33-C , 40-C ) :   1.2016
B( 34-C , 35-C ) :   1.6003 B( 34-C , 74-H ) :   0.9699 B( 35-C , 75-H ) :   0.9687
B( 36-C , 76-H ) :   0.9766 B( 36-C , 77-H ) :   0.9818 B( 36-C , 78-H ) :   0.9826
B( 37-C , 38-C ) :   1.2960 B( 37-C , 79-H ) :   0.9769 B( 38-C , 40-C ) :   1.2235
B( 39-C , 80-H ) :   0.9709 B( 40-C , 41-C ) :   1.2402 B( 41-C , 43-C ) :   1.1943
B( 42-C , 50-C ) :   1.6335 B( 42-C , 81-H ) :   0.9697 B( 43-C , 48-C ) :   1.6579
B( 43-C , 82-H ) :   0.9727 B( 44-C , 45-C ) :   1.2657 B( 44-C , 50-C ) :   1.2704
B( 44-C , 51-C ) :   1.2590 B( 45-C , 46-C ) :   1.6344 B( 45-C , 83-H ) :   0.9716
B( 46-C , 84-H ) :   0.9701 B( 47-C , 85-H ) :   0.9762 B( 47-C , 86-H ) :   0.9829
B( 47-C , 87-H ) :   0.9825 B( 48-C , 49-C ) :   1.1968 B( 48-C , 88-H ) :   0.9745
B( 49-C , 51-C ) :   1.2348 B( 50-C , 89-H ) :   0.9711

MP2 TOTAL ENERGY:    -2130.905359931 Eh
FINAL SINGLE POINT ENERGY     -2130.905359930581

DIPOLE MOMENT
-------------
                                X             Y             Z
Electronic contribution:      1.78610      -3.06680      -0.12296
Nuclear contribution   :     -0.05011       0.14972       0.14978
                        -----------------------------------------
Total Dipole Moment    :      1.73599      -2.91708       0.02681
                        -----------------------------------------
Magnitude (a.u.)       :      3.39466
Magnitude (Debye)      :      8.62854

Rotational constants in cm-1:     0.001501     0.001476     0.000761
Rotational constants in MHz :    44.994060    44.242317    22.816362

                             ****ORCA TERMINATED NORMALLY****
TOTAL RUN TIME: 0 days 1 hours 11 minutes 47 seconds 900 msec
