                         Program Version 5.0.4 -  RELEASE  -
|  1> ! PAL2
|  2> ! mp2 cc-pvdz TightSCF  NoKeepInts
|  3>
|  4> %scf
|  5>   MaxCore 2000
|  6> end
|  7> %mp2
|  8>   MaxCore 2000
|  9> end
| 10> * xyz 0 1
| 11>    C       -4.90100         5.22700        -0.31500
| 12>    C        1.47400         4.04100         0.05700
| 13>    C       -2.80200         4.09300         0.04900
| 14>    C       -2.26700         5.32400         0.45900
| 15>    C       -3.05900         6.45500         0.47100
| 16>    C       -5.18700         7.61900         0.14500
| 17>    C        0.13200         4.30700         0.06100
| 18>    C       -0.56900         3.05600         0.04700
| 19>    C        1.64900         2.61800         0.02300
| 20>    C       -4.15100         4.06700        -0.33900
| 21>    N       -4.35400         6.39700         0.08400
| 22>    N        0.38800         2.06700         0.02500
| 23>    N       -2.01000         0.39500        -0.07500
| 24>    N       -0.38800        -2.07400        -0.02700
| 25>    N        2.01000        -0.40100         0.06500
| 26>    C       -1.96000         2.86100         0.02400
| 27>    C       -2.62300         1.61500        -0.01800
| 28>    C       -5.57300        -4.32900         1.06600
| 29>    C       -4.07300         1.47100         0.05600
| 30>    C       -4.10600        -2.75600        -0.02600
| 31>    C       -4.99500        -2.75700        -1.11100
| 32>    C       -6.13200        -3.54200        -1.07600
| 33>    C       -7.65100        -5.11300         0.04000
| 34>    C       -4.32400         0.14100         0.03700
| 35>    C       -3.02500        -0.52000        -0.04800
| 36>    C       -4.42200        -3.56600         1.07500
| 37>    N       -6.40700        -4.31300         0.00100
| 38>    C       -2.86700        -1.92200        -0.04000
| 39>    C       -1.65000        -2.62400        -0.02700
| 40>    C        3.56800        -6.14200        -1.04000
| 41>    C       -1.47600        -4.04900        -0.03400
| 42>    C        2.80300        -4.09900        -0.00800
| 43>    C        3.65700        -4.38400         1.06900
| 44>    C        4.42700        -5.53000         1.05900
| 45>    C        5.24500        -7.58800         0.01400
| 46>    C       -0.13400        -4.31500        -0.02200
| 47>    C        0.56800        -3.06400        -0.02700
| 48>    C        2.77500        -5.01200        -1.07400
| 49>    N        4.37600        -6.39100         0.01700
| 50>    C        1.95900        -2.86900        -0.00900
| 51>    C        2.62100        -1.62200         0.00900
| 52>    C        5.54300         4.33900        -1.13000
| 53>    C        4.07000        -1.47900        -0.09400
| 54>    C        4.10400         2.75100        -0.02100
| 55>    C        5.02700         2.72900         1.03600
| 56>    C        6.16600         3.50900         0.97800
| 57>    C        7.61900         5.15300        -0.11500
| 58>    C        4.32100        -0.14800        -0.09200
| 59>    C        3.02500         0.51400         0.01500
| 60>    C        4.38700         3.58200        -1.11500
| 61>    C        2.86600         1.91600         0.01300
| 62>    N        6.41300         4.29600        -0.09500
| 63>    H       -5.94100         5.25600        -0.61700
| 64>    H        2.27400         4.76600         0.08100
| 65>    H       -1.23500         5.40600         0.77900
| 66>    H       -2.69300         7.42300         0.78700
| 67>    H       -5.60000         7.71900         1.15100
| 68>    H       -4.56300         8.48100        -0.09100
| 69>    H       -5.99200         7.53100        -0.58300
| 70>    H       -0.33200         5.28200         0.06900
| 71>    H       -4.61800         3.15000        -0.67900
| 72>    H        0.18200         1.07200         0.00500
| 73>    H       -0.18300        -1.08000        -0.02100
| 74>    H       -5.86400        -4.96200         1.89500
| 75>    H       -4.79400         2.27200         0.13900
| 76>    H       -4.80000        -2.16000        -1.99400
| 77>    H       -6.84100        -3.58200        -1.89300
| 78>    H       -8.42800        -4.53600         0.54600
| 79>    H       -7.95600        -5.33700        -0.98100
| 80>    H       -7.45600        -6.03700         0.58400
| 81>    H       -5.28700        -0.34400         0.10000
| 82>    H       -3.78000        -3.60100         1.94700
| 83>    H        3.58700        -6.86800        -1.84300
| 84>    H       -2.27600        -4.77400        -0.05000
| 85>    H        3.71400        -3.72400         1.92600
| 86>    H        5.09200        -5.79500         1.87100
| 87>    H        6.20500        -7.32900        -0.43900
| 88>    H        5.39300        -7.91700         1.04200
| 89>    H        4.75900        -8.37300        -0.56400
| 90>    H        0.32900        -5.29000        -0.00800
| 91>    H        2.14600        -4.84200        -1.94000
| 92>    H        5.80800         4.98600        -1.95600
| 93>    H        4.78800        -2.28100        -0.18500
| 94>    H        4.86000         2.11400         1.91200
| 95>    H        6.90100         3.53100         1.77200
| 96>    H        7.38300         6.10900         0.35600
| 97>    H        8.41400         4.65200         0.43500
| 98>    H        7.92100         5.31000        -1.15000
| 99>    H        5.28300         0.33600        -0.17900
|100>    H        3.72000         3.63200        -1.96700
|101> *
|102>
|103>                          ****END OF INPUT****

CARTESIAN COORDINATES (ANGSTROEM)
---------------------------------
  C     -4.901000    5.227000   -0.315000
  C      1.474000    4.041000    0.057000
  C     -2.802000    4.093000    0.049000
  C     -2.267000    5.324000    0.459000
  C     -3.059000    6.455000    0.471000
  C     -5.187000    7.619000    0.145000
  C      0.132000    4.307000    0.061000
  C     -0.569000    3.056000    0.047000
  C      1.649000    2.618000    0.023000
  C     -4.151000    4.067000   -0.339000
  N     -4.354000    6.397000    0.084000
  N      0.388000    2.067000    0.025000
  N     -2.010000    0.395000   -0.075000
  N     -0.388000   -2.074000   -0.027000
  N      2.010000   -0.401000    0.065000
  C     -1.960000    2.861000    0.024000
  C     -2.623000    1.615000   -0.018000
  C     -5.573000   -4.329000    1.066000
  C     -4.073000    1.471000    0.056000
  C     -4.106000   -2.756000   -0.026000
  C     -4.995000   -2.757000   -1.111000
  C     -6.132000   -3.542000   -1.076000
  C     -7.651000   -5.113000    0.040000
  C     -4.324000    0.141000    0.037000
  C     -3.025000   -0.520000   -0.048000
  C     -4.422000   -3.566000    1.075000
  N     -6.407000   -4.313000    0.001000
  C     -2.867000   -1.922000   -0.040000
  C     -1.650000   -2.624000   -0.027000
  C      3.568000   -6.142000   -1.040000
  C     -1.476000   -4.049000   -0.034000
  C      2.803000   -4.099000   -0.008000
  C      3.657000   -4.384000    1.069000
  C      4.427000   -5.530000    1.059000
  C      5.245000   -7.588000    0.014000
  C     -0.134000   -4.315000   -0.022000
  C      0.568000   -3.064000   -0.027000
  C      2.775000   -5.012000   -1.074000
  N      4.376000   -6.391000    0.017000
  C      1.959000   -2.869000   -0.009000
  C      2.621000   -1.622000    0.009000
  C      5.543000    4.339000   -1.130000
  C      4.070000   -1.479000   -0.094000
  C      4.104000    2.751000   -0.021000
  C      5.027000    2.729000    1.036000
  C      6.166000    3.509000    0.978000
  C      7.619000    5.153000   -0.115000
  C      4.321000   -0.148000   -0.092000
  C      3.025000    0.514000    0.015000
  C      4.387000    3.582000   -1.115000
  C      2.866000    1.916000    0.013000
  N      6.413000    4.296000   -0.095000
  H     -5.941000    5.256000   -0.617000
  H      2.274000    4.766000    0.081000
  H     -1.235000    5.406000    0.779000
  H     -2.693000    7.423000    0.787000
  H     -5.600000    7.719000    1.151000
  H     -4.563000    8.481000   -0.091000
  H     -5.992000    7.531000   -0.583000
  H     -0.332000    5.282000    0.069000
  H     -4.618000    3.150000   -0.679000
  H      0.182000    1.072000    0.005000
  H     -0.183000   -1.080000   -0.021000
  H     -5.864000   -4.962000    1.895000
  H     -4.794000    2.272000    0.139000
  H     -4.800000   -2.160000   -1.994000
  H     -6.841000   -3.582000   -1.893000
  H     -8.428000   -4.536000    0.546000
  H     -7.956000   -5.337000   -0.981000
  H     -7.456000   -6.037000    0.584000
  H     -5.287000   -0.344000    0.100000
  H     -3.780000   -3.601000    1.947000
  H      3.587000   -6.868000   -1.843000
  H     -2.276000   -4.774000   -0.050000
  H      3.714000   -3.724000    1.926000
  H      5.092000   -5.795000    1.871000
  H      6.205000   -7.329000   -0.439000
  H      5.393000   -7.917000    1.042000
  H      4.759000   -8.373000   -0.564000
  H      0.329000   -5.290000   -0.008000
  H      2.146000   -4.842000   -1.940000
  H      5.808000    4.986000   -1.956000
  H      4.788000   -2.281000   -0.185000
  H      4.860000    2.114000    1.912000
  H      6.901000    3.531000    1.772000
  H      7.383000    6.109000    0.356000
  H      8.414000    4.652000    0.435000
  H      7.921000    5.310000   -1.150000
  H      5.283000    0.336000   -0.179000
  H      3.720000    3.632000   -1.967000

 Total Charge           Charge          ....    0
 Multiplicity           Mult            ....    1
 Number of Electrons    NEL             ....  358
 Basis Dimension        Dim             ....  918

ORBITAL ENERGIES
----------------

  NO   OCC          E(Eh)            E(eV)
   0   2.0000     -15.678651      -426.6378
   1   2.0000     -15.636082      -425.4794
   2   2.0000     -15.629796      -425.3084
   3   2.0000     -15.587702      -424.1629
   4   2.0000     -15.525647      -422.4743
   5   2.0000     -15.515499      -422.1982
   6   2.0000     -15.453121      -420.5008
   7   2.0000     -15.441090      -420.1734
   8   2.0000     -11.328756      -308.2711
   9   2.0000     -11.327222      -308.2294
  10   2.0000     -11.327089      -308.2258
  11   2.0000     -11.300634      -307.5059
  12   2.0000     -11.297087      -307.4094
  13   2.0000     -11.294695      -307.3443
  14   2.0000     -11.289408      -307.2004
  15   2.0000     -11.288523      -307.1763
  16   2.0000     -11.284874      -307.0770
  17   2.0000     -11.280998      -306.9716
  18   2.0000     -11.270254      -306.6792
  19   2.0000     -11.262592      -306.4707
  20   2.0000     -11.261620      -306.4443
  21   2.0000     -11.251964      -306.1815
  22   2.0000     -11.250380      -306.1384
  23   2.0000     -11.239790      -305.8502
  24   2.0000     -11.234649      -305.7104
  25   2.0000     -11.232762      -305.6590
  26   2.0000     -11.232135      -305.6419
  27   2.0000     -11.228238      -305.5359
  28   2.0000     -11.227918      -305.5272
  29   2.0000     -11.211769      -305.0877
  30   2.0000     -11.210251      -305.0465
  31   2.0000     -11.194927      -304.6295
  32   2.0000     -11.191111      -304.5256
  33   2.0000     -11.190084      -304.4977
  34   2.0000     -11.188060      -304.4426
  35   2.0000     -11.187094      -304.4163
  36   2.0000     -11.185802      -304.3812
  37   2.0000     -11.181192      -304.2557
  38   2.0000     -11.180629      -304.2404
  39   2.0000     -11.175049      -304.0885
  40   2.0000     -11.173835      -304.0555
  41   2.0000     -11.169402      -303.9349
  42   2.0000     -11.169265      -303.9311
  43   2.0000     -11.160676      -303.6974
  44   2.0000     -11.160465      -303.6917
  45   2.0000     -11.157927      -303.6226
  46   2.0000     -11.155196      -303.5483
  47   2.0000     -11.154651      -303.5335
  48   2.0000     -11.146014      -303.2984
  49   2.0000     -11.135475      -303.0117
  50   2.0000     -11.131011      -302.8902
  51   2.0000     -11.119345      -302.5728
  52   2.0000      -1.359406       -36.9913
  53   2.0000      -1.323043       -36.0018
  54   2.0000      -1.317867       -35.8610
  55   2.0000      -1.281358       -34.8675
  56   2.0000      -1.226750       -33.3816
  57   2.0000      -1.209898       -32.9230
  58   2.0000      -1.172510       -31.9056
  59   2.0000      -1.151552       -31.3353
  60   2.0000      -1.142821       -31.0977
  61   2.0000      -1.111685       -30.2505
  62   2.0000      -1.107585       -30.1389
  63   2.0000      -1.081176       -29.4203
  64   2.0000      -1.077503       -29.3204
  65   2.0000      -1.047159       -28.4947
  66   2.0000      -1.042606       -28.3708
  67   2.0000      -1.040661       -28.3178
  68   2.0000      -1.015296       -27.6276
  69   2.0000      -1.012134       -27.5416
  70   2.0000      -1.008744       -27.4493
  71   2.0000      -0.994107       -27.0510
  72   2.0000      -0.985715       -26.8227
  73   2.0000      -0.981610       -26.7110
  74   2.0000      -0.972201       -26.4549
  75   2.0000      -0.961201       -26.1556
  76   2.0000      -0.953890       -25.9567
  77   2.0000      -0.945696       -25.7337
  78   2.0000      -0.935412       -25.4539
  79   2.0000      -0.917635       -24.9701
  80   2.0000      -0.909697       -24.7541
  81   2.0000      -0.895773       -24.3752
  82   2.0000      -0.876094       -23.8397
  83   2.0000      -0.873594       -23.7717
  84   2.0000      -0.868970       -23.6459
  85   2.0000      -0.858061       -23.3490
  86   2.0000      -0.839617       -22.8471
  87   2.0000      -0.836635       -22.7660
  88   2.0000      -0.825592       -22.4655
  89   2.0000      -0.796999       -21.6874
  90   2.0000      -0.789541       -21.4845
  91   2.0000      -0.754337       -20.5265
  92   2.0000      -0.750167       -20.4131
  93   2.0000      -0.733929       -19.9712
  94   2.0000      -0.725834       -19.7510
  95   2.0000      -0.723226       -19.6800
  96   2.0000      -0.717472       -19.5234
  97   2.0000      -0.714976       -19.4555
  98   2.0000      -0.709303       -19.3011
  99   2.0000      -0.698199       -18.9990
 100   2.0000      -0.696417       -18.9505
 101   2.0000      -0.686008       -18.6672
 102   2.0000      -0.683503       -18.5991
 103   2.0000      -0.682842       -18.5811
 104   2.0000      -0.679454       -18.4889
 105   2.0000      -0.673366       -18.3232
 106   2.0000      -0.671315       -18.2674
 107   2.0000      -0.660673       -17.9778
 108   2.0000      -0.656276       -17.8582
 109   2.0000      -0.654254       -17.8032
 110   2.0000      -0.650307       -17.6957
 111   2.0000      -0.645319       -17.5600
 112   2.0000      -0.644542       -17.5389
 113   2.0000      -0.638053       -17.3623
 114   2.0000      -0.636774       -17.3275
 115   2.0000      -0.627174       -17.0663
 116   2.0000      -0.621873       -16.9220
 117   2.0000      -0.620163       -16.8755
 118   2.0000      -0.614106       -16.7107
 119   2.0000      -0.613236       -16.6870
 120   2.0000      -0.610736       -16.6190
 121   2.0000      -0.609872       -16.5955
 122   2.0000      -0.599779       -16.3208
 123   2.0000      -0.587110       -15.9761
 124   2.0000      -0.582852       -15.8602
 125   2.0000      -0.580548       -15.7975
 126   2.0000      -0.579127       -15.7588
 127   2.0000      -0.572371       -15.5750
 128   2.0000      -0.569265       -15.4905
 129   2.0000      -0.559354       -15.2208
 130   2.0000      -0.552509       -15.0345
 131   2.0000      -0.547816       -14.9068
 132   2.0000      -0.542984       -14.7753
 133   2.0000      -0.542364       -14.7585
 134   2.0000      -0.539548       -14.6818
 135   2.0000      -0.534827       -14.5534
 136   2.0000      -0.529708       -14.4141
 137   2.0000      -0.519287       -14.1305
 138   2.0000      -0.518377       -14.1058
 139   2.0000      -0.514256       -13.9936
 140   2.0000      -0.511758       -13.9256
 141   2.0000      -0.510728       -13.8976
 142   2.0000      -0.510016       -13.8783
 143   2.0000      -0.504355       -13.7242
 144   2.0000      -0.500790       -13.6272
 145   2.0000      -0.495721       -13.4892
 146   2.0000      -0.491598       -13.3771
 147   2.0000      -0.481955       -13.1146
 148   2.0000      -0.477435       -12.9917
 149   2.0000      -0.467390       -12.7183
 150   2.0000      -0.466008       -12.6807
 151   2.0000      -0.456784       -12.4297
 152   2.0000      -0.450763       -12.2659
 153   2.0000      -0.445586       -12.1250
 154   2.0000      -0.439931       -11.9711
 155   2.0000      -0.427686       -11.6379
 156   2.0000      -0.412179       -11.2160
 157   2.0000      -0.408111       -11.1053
 158   2.0000      -0.404323       -11.0022
 159   2.0000      -0.387069       -10.5327
 160   2.0000      -0.386813       -10.5257
 161   2.0000      -0.377871       -10.2824
 162   2.0000      -0.371399       -10.1063
 163   2.0000      -0.358112        -9.7447
 164   2.0000      -0.354470        -9.6456
 165   2.0000      -0.341093        -9.2816
 166   2.0000      -0.337863        -9.1937
 167   2.0000      -0.325862        -8.8672
 168   2.0000      -0.321001        -8.7349
 169   2.0000      -0.305954        -8.3254
 170   2.0000      -0.299256        -8.1432
 171   2.0000      -0.285013        -7.7556
 172   2.0000      -0.279466        -7.6046
 173   2.0000      -0.262909        -7.1541
 174   2.0000      -0.241963        -6.5841
 175   2.0000      -0.190109        -5.1731
 176   2.0000      -0.180815        -4.9202
 177   2.0000      -0.078879        -2.1464
 178   2.0000      -0.059289        -1.6133
 179   0.0000       0.028200         0.7674
 180   0.0000       0.065326         1.7776
 181   0.0000       0.090625         2.4660
 182   0.0000       0.106943         2.9101
 183   0.0000       0.113760         3.0956

MULLIKEN ATOMIC CHARGES
-----------------------
   0 C :    0.212078
   1 N :   -0.456110
   2 C :   -0.075087
   3 N :   -0.339840
   4 C :   -0.059795
   5 N :   -0.565473
   6 C :   -0.123963
   7 N :   -0.340804
   8 C :    0.214737
   9 N :   -0.562565
  10 C :    0.119455
  11 N :   -0.438025
  12 C :   -0.066061
  13 N :   -0.429599
  14 C :    0.213387
  15 N :   -0.441377
  16 C :    0.232208
  17 C :   -0.120325
  18 C :   -0.155270
  19 C :    0.202813
  20 C :    0.214515
  21 C :   -0.081077
  22 C :   -0.089168
  23 C :   -0.039880
  24 C :    0.194700
  25 C :    0.114324
  26 C :   -0.086797
  27 C :    0.213370
  28 C :   -0.061319
  29 C :   -0.182268
  30 C :    0.245821
  31 C :    0.230653
  32 C :   -0.061276
  33 C :   -0.060831
  34 C :   -0.050242
  35 C :    0.227017
  36 C :    0.108371
  37 C :   -0.064312
  38 C :    0.232037
  39 C :   -0.058516
  40 C :   -0.180948
  41 C :    0.224799
  42 C :    0.196929
  43 C :   -0.072674
  44 C :   -0.090700
  45 C :   -0.061470
  46 C :    0.210459
  47 C :    0.115596
  48 C :   -0.067262
  49 C :    0.238154
  50 C :   -0.046383
  51 C :   -0.195091
  52 H :    0.037223
  53 H :   -0.017738
  54 H :    0.048631
  55 H :    0.035564
  56 H :    0.049122
  57 H :    0.047501
  58 H :    0.046403
  59 H :   -0.003269
  60 H :    0.051822
  61 H :    0.170967
  62 H :    0.175709
  63 H :    0.056063
  64 H :   -0.008094
  65 H :    0.047139
  66 H :    0.056195
  67 H :    0.063121
  68 H :    0.057569
  69 H :    0.056849
  70 H :   -0.029590
  71 H :    0.045614
  72 H :    0.071124
  73 H :   -0.007958
  74 H :    0.060263
  75 H :    0.070463
  76 H :    0.074798
  77 H :    0.067853
  78 H :    0.067056
  79 H :   -0.016190
  80 H :    0.060993
  81 H :    0.053929
  82 H :   -0.025268
  83 H :    0.041177
  84 H :    0.053476
  85 H :    0.060302
  86 H :    0.055129
  87 H :    0.056897
  88 H :   -0.014558
  89 H :    0.046797
Sum of atomic charges:    0.0000000

LOEWDIN ATOMIC CHARGES
----------------------
   0 C :   -0.024134
   1 N :    0.118305
   2 C :   -0.102568
   3 N :    0.183146
   4 C :   -0.013435
   5 N :   -0.132088
   6 C :   -0.041899
   7 N :    0.175223
   8 C :   -0.019808
   9 N :   -0.140659
  10 C :    0.023545
  11 N :    0.142990
  12 C :   -0.114343
  13 N :    0.165829
  14 C :   -0.022996
  15 N :    0.137821
  16 C :   -0.059006
  17 C :   -0.041314
  18 C :   -0.106047
  19 C :   -0.078675
  20 C :    0.005780
  21 C :   -0.122378
  22 C :    0.038712
  23 C :   -0.014533
  24 C :   -0.011435
  25 C :    0.030066
  26 C :   -0.109165
  27 C :   -0.117058
  28 C :   -0.026982
  29 C :   -0.098625
  30 C :   -0.030795
  31 C :    0.024633
  32 C :   -0.093524
  33 C :    0.081189
  34 C :   -0.014647
  35 C :    0.021747
  36 C :    0.035142
  37 C :   -0.094135
  38 C :   -0.050596
  39 C :   -0.018193
  40 C :   -0.108281
  41 C :   -0.092971
  42 C :   -0.011003
  43 C :   -0.099644
  44 C :    0.031998
  45 C :   -0.028530
  46 C :    0.000693
  47 C :    0.029282
  48 C :   -0.095644
  49 C :   -0.069342
  50 C :   -0.018960
  51 C :   -0.109991
  52 H :    0.022755
  53 H :    0.002538
  54 H :    0.027710
  55 H :    0.022681
  56 H :    0.021658
  57 H :    0.026296
  58 H :    0.026564
  59 H :    0.010764
  60 H :    0.032975
  61 H :    0.060043
  62 H :    0.061965
  63 H :    0.031095
  64 H :    0.008372
  65 H :    0.045908
  66 H :    0.029510
  67 H :    0.028565
  68 H :    0.031783
  69 H :    0.030527
  70 H :   -0.004614
  71 H :    0.043839
  72 H :    0.037654
  73 H :    0.007150
  74 H :    0.050675
  75 H :    0.037215
  76 H :    0.034731
  77 H :    0.036117
  78 H :    0.035763
  79 H :    0.003152
  80 H :    0.050569
  81 H :    0.028882
  82 H :   -0.002932
  83 H :    0.042187
  84 H :    0.029547
  85 H :    0.027099
  86 H :    0.029983
  87 H :    0.031258
  88 H :    0.002356
  89 H :    0.044964

  Mayer bond orders larger than 0.100000
B(  0-C ,  1-N ) :   1.0897 B(  0-C , 17-C ) :   1.7169 B(  0-C , 52-H ) :   0.9641
B(  1-N ,  8-C ) :   1.0941 B(  1-N , 10-C ) :   0.9782 B(  2-C , 12-C ) :   1.4928
B(  2-C , 16-C ) :   1.3675 B(  2-C , 53-H ) :   0.9743 B(  3-N , 14-C ) :   1.2200
B(  3-N , 16-C ) :   1.1859 B(  3-N , 61-H ) :   0.8991 B(  4-C ,  6-C ) :   1.2127
B(  4-C , 17-C ) :   1.2129 B(  4-C , 18-C ) :   1.4628 B(  5-N , 19-C ) :   1.4562
B(  5-N , 27-C ) :   1.3744 B(  6-C ,  8-C ) :   1.7142 B(  6-C , 54-H ) :   0.9261
B(  7-N , 30-C ) :   1.1944 B(  7-N , 38-C ) :   1.1907 B(  7-N , 62-H ) :   0.8966
B(  8-C , 55-H ) :   0.9650 B(  9-N , 41-C ) :   1.3924 B(  9-N , 49-C ) :   1.4276
B( 10-C , 56-H ) :   0.9773 B( 10-C , 57-H ) :   0.9833 B( 10-C , 58-H ) :   0.9834
B( 11-N , 20-C ) :   1.1324 B( 11-N , 24-C ) :   1.1087 B( 11-N , 25-C ) :   0.9594
B( 12-C , 14-C ) :   1.3588 B( 12-C , 59-H ) :   0.9575 B( 13-N , 31-C ) :   1.1618
B( 13-N , 35-C ) :   1.1582 B( 13-N , 36-C ) :   0.9417 B( 14-C , 18-C ) :   1.1195
B( 15-N , 42-C ) :   1.1066 B( 15-N , 46-C ) :   1.1227 B( 15-N , 47-C ) :   0.9620
B( 16-C , 51-C ) :   1.1676 B( 17-C , 60-H ) :   0.9296 B( 18-C , 19-C ) :   1.1204
B( 19-C , 21-C ) :   1.2499 B( 20-C , 28-C ) :   1.6268 B( 20-C , 63-H ) :   0.9702
B( 21-C , 26-C ) :   1.5953 B( 21-C , 64-H ) :   0.9589 B( 22-C , 23-C ) :   1.2910
B( 22-C , 28-C ) :   1.2657 B( 22-C , 29-C ) :   1.2224 B( 23-C , 24-C ) :   1.6182
B( 23-C , 65-H ) :   0.9703 B( 24-C , 66-H ) :   0.9695 B( 25-C , 67-H ) :   0.9760
B( 25-C , 68-H ) :   0.9828 B( 25-C , 69-H ) :   0.9823 B( 26-C , 27-C ) :   1.2505
B( 26-C , 70-H ) :   0.9685 B( 27-C , 29-C ) :   1.2090 B( 28-C , 71-H ) :   0.9719
B( 29-C , 30-C ) :   1.2469 B( 30-C , 32-C ) :   1.2782 B( 31-C , 39-C ) :   1.5888
B( 31-C , 72-H ) :   0.9681 B( 32-C , 37-C ) :   1.5811 B( 32-C , 73-H ) :   0.9785
B( 33-C , 34-C ) :   1.3076 B( 33-C , 39-C ) :   1.3026 B( 33-C , 40-C ) :   1.1763
B( 34-C , 35-C ) :   1.5857 B( 34-C , 74-H ) :   0.9696 B( 35-C , 75-H ) :   0.9682
B( 36-C , 76-H ) :   0.9767 B( 36-C , 77-H ) :   0.9816 B( 36-C , 78-H ) :   0.9823
B( 37-C , 38-C ) :   1.2834 B( 37-C , 79-H ) :   0.9765 B( 38-C , 40-C ) :   1.2349
B( 39-C , 80-H ) :   0.9706 B( 40-C , 41-C ) :   1.2499 B( 41-C , 43-C ) :   1.1865
B( 42-C , 50-C ) :   1.6352 B( 42-C , 81-H ) :   0.9697 B( 43-C , 48-C ) :   1.6659
B( 43-C , 82-H ) :   0.9721 B( 44-C , 45-C ) :   1.2621 B( 44-C , 50-C ) :   1.2704
B( 44-C , 51-C ) :   1.2647 B( 45-C , 46-C ) :   1.6364 B( 45-C , 83-H ) :   0.9719
B( 46-C , 84-H ) :   0.9701 B( 47-C , 85-H ) :   0.9762 B( 47-C , 86-H ) :   0.9829
B( 47-C , 87-H ) :   0.9825 B( 48-C , 49-C ) :   1.1900 B( 48-C , 88-H ) :   0.9749
B( 49-C , 51-C ) :   1.2416 B( 50-C , 89-H ) :   0.9709

MP2 TOTAL ENERGY:    -2130.846630123 Eh
FINAL SINGLE POINT ENERGY     -2130.846630122690

DIPOLE MOMENT
-------------
                                X             Y             Z
Electronic contribution:      2.53103      -4.39909      -0.22016
Nuclear contribution   :      0.04849       0.21756       0.21725
                        -----------------------------------------
Total Dipole Moment    :      2.57952      -4.18153      -0.00291
                        -----------------------------------------
Magnitude (a.u.)       :      4.91316
Magnitude (Debye)      :     12.48826

Rotational constants in cm-1:     0.001501     0.001479     0.000760
Rotational constants in MHz :    44.996905    44.340107    22.790118

                             ****ORCA TERMINATED NORMALLY****
TOTAL RUN TIME: 0 days 1 hours 21 minutes 26 seconds 680 msec
