                         Program Version 5.0.4 -  RELEASE  -
|  1> ! PAL2
|  2> ! mp2 cc-pvdz TightSCF  NoKeepInts
|  3>
|  4> %scf
|  5>   MaxCore 2000
|  6> end
|  7> %mp2
|  8>   MaxCore 2000
|  9> end
| 10> * xyz 0 1
| 11>    C       -4.68500         5.35000         0.88500
| 12>    C        1.47400         4.04100         0.05700
| 13>    C       -2.80200         4.09300         0.04900
| 14>    C       -2.50500         5.18700        -0.77900
| 15>    C       -3.29700         6.31600        -0.74700
| 16>    C       -5.17800         7.62600         0.11300
| 17>    C        0.13200         4.30700         0.06100
| 18>    C       -0.56900         3.05600         0.04700
| 19>    C        1.64900         2.61800         0.02300
| 20>    C       -3.91900         4.20100         0.89200
| 21>    N       -4.37100         6.38600         0.07400
| 22>    N        0.38800         2.06700         0.02500
| 23>    N       -2.01000         0.39500        -0.07500
| 24>    N       -0.38800        -2.07400        -0.02700
| 25>    N        2.01000        -0.40100         0.06500
| 26>    C       -1.96000         2.86100         0.02400
| 27>    C       -2.62300         1.61500        -0.01800
| 28>    C       -5.57300        -4.32900         1.06600
| 29>    C       -4.07300         1.47100         0.05600
| 30>    C       -4.10600        -2.75600        -0.02600
| 31>    C       -4.99500        -2.75700        -1.11100
| 32>    C       -6.13200        -3.54200        -1.07600
| 33>    C       -7.65100        -5.11300         0.04000
| 34>    C       -4.32400         0.14100         0.03700
| 35>    C       -3.02500        -0.52000        -0.04800
| 36>    C       -4.42200        -3.56600         1.07500
| 37>    N       -6.40700        -4.31300         0.00100
| 38>    C       -2.86700        -1.92200        -0.04000
| 39>    C       -1.65000        -2.62400        -0.02700
| 40>    C        3.56800        -6.14200        -1.04000
| 41>    C       -1.47600        -4.04900        -0.03400
| 42>    C        2.80300        -4.09900        -0.00800
| 43>    C        3.65700        -4.38400         1.06900
| 44>    C        4.42700        -5.53000         1.05900
| 45>    C        5.24500        -7.58800         0.01400
| 46>    C       -0.13400        -4.31500        -0.02200
| 47>    C        0.56800        -3.06400        -0.02700
| 48>    C        2.77500        -5.01200        -1.07400
| 49>    N        4.37600        -6.39100         0.01700
| 50>    C        1.95900        -2.86900        -0.00900
| 51>    C        2.62100        -1.62200         0.00900
| 52>    C        5.54300         4.33900        -1.13000
| 53>    C        4.07000        -1.47900        -0.09400
| 54>    C        4.10400         2.75100        -0.02100
| 55>    C        5.02700         2.72900         1.03600
| 56>    C        6.16600         3.50900         0.97800
| 57>    C        7.61900         5.15300        -0.11500
| 58>    C        4.32100        -0.14800        -0.09200
| 59>    C        3.02500         0.51400         0.01500
| 60>    C        4.38700         3.58200        -1.11500
| 61>    C        2.86600         1.91600         0.01300
| 62>    N        6.41300         4.29600        -0.09500
| 63>    H       -5.56100         5.47200         1.50900
| 64>    H        2.27400         4.76600         0.08100
| 65>    H       -1.65000         5.16700        -1.44500
| 66>    H       -3.10300         7.18700        -1.36000
| 67>    H       -4.72400         8.32400         0.81900
| 68>    H       -5.19900         8.06300        -0.88600
| 69>    H       -6.19000         7.37600         0.43200
| 70>    H       -0.33200         5.28200         0.06900
| 71>    H       -4.20800         3.38500         1.54500
| 72>    H        0.18200         1.07200         0.00500
| 73>    H       -0.18300        -1.08000        -0.02100
| 74>    H       -5.86400        -4.96200         1.89500
| 75>    H       -4.79400         2.27200         0.13900
| 76>    H       -4.80000        -2.16000        -1.99400
| 77>    H       -6.84100        -3.58200        -1.89300
| 78>    H       -8.42800        -4.53600         0.54600
| 79>    H       -7.95600        -5.33700        -0.98100
| 80>    H       -7.45600        -6.03700         0.58400
| 81>    H       -5.28700        -0.34400         0.10000
| 82>    H       -3.78000        -3.60100         1.94700
| 83>    H        3.58700        -6.86800        -1.84300
| 84>    H       -2.27600        -4.77400        -0.05000
| 85>    H        3.71400        -3.72400         1.92600
| 86>    H        5.09200        -5.79500         1.87100
| 87>    H        6.20500        -7.32900        -0.43900
| 88>    H        5.39300        -7.91700         1.04200
| 89>    H        4.75900        -8.37300        -0.56400
| 90>    H        0.32900        -5.29000        -0.00800
| 91>    H        2.14600        -4.84200        -1.94000
| 92>    H        5.80800         4.98600        -1.95600
| 93>    H        4.78800        -2.28100        -0.18500
| 94>    H        4.86000         2.11400         1.91200
| 95>    H        6.90100         3.53100         1.77200
| 96>    H        7.38300         6.10900         0.35600
| 97>    H        8.41400         4.65200         0.43500
| 98>    H        7.92100         5.31000        -1.15000
| 99>    H        5.28300         0.33600        -0.17900
|100>    H        3.72000         3.63200        -1.96700
|101> *
|102>
|103>                          ****END OF INPUT****

CARTESIAN COORDINATES (ANGSTROEM)
---------------------------------
  C     -4.685000    5.350000    0.885000
  C      1.474000    4.041000    0.057000
  C     -2.802000    4.093000    0.049000
  C     -2.505000    5.187000   -0.779000
  C     -3.297000    6.316000   -0.747000
  C     -5.178000    7.626000    0.113000
  C      0.132000    4.307000    0.061000
  C     -0.569000    3.056000    0.047000
  C      1.649000    2.618000    0.023000
  C     -3.919000    4.201000    0.892000
  N     -4.371000    6.386000    0.074000
  N      0.388000    2.067000    0.025000
  N     -2.010000    0.395000   -0.075000
  N     -0.388000   -2.074000   -0.027000
  N      2.010000   -0.401000    0.065000
  C     -1.960000    2.861000    0.024000
  C     -2.623000    1.615000   -0.018000
  C     -5.573000   -4.329000    1.066000
  C     -4.073000    1.471000    0.056000
  C     -4.106000   -2.756000   -0.026000
  C     -4.995000   -2.757000   -1.111000
  C     -6.132000   -3.542000   -1.076000
  C     -7.651000   -5.113000    0.040000
  C     -4.324000    0.141000    0.037000
  C     -3.025000   -0.520000   -0.048000
  C     -4.422000   -3.566000    1.075000
  N     -6.407000   -4.313000    0.001000
  C     -2.867000   -1.922000   -0.040000
  C     -1.650000   -2.624000   -0.027000
  C      3.568000   -6.142000   -1.040000
  C     -1.476000   -4.049000   -0.034000
  C      2.803000   -4.099000   -0.008000
  C      3.657000   -4.384000    1.069000
  C      4.427000   -5.530000    1.059000
  C      5.245000   -7.588000    0.014000
  C     -0.134000   -4.315000   -0.022000
  C      0.568000   -3.064000   -0.027000
  C      2.775000   -5.012000   -1.074000
  N      4.376000   -6.391000    0.017000
  C      1.959000   -2.869000   -0.009000
  C      2.621000   -1.622000    0.009000
  C      5.543000    4.339000   -1.130000
  C      4.070000   -1.479000   -0.094000
  C      4.104000    2.751000   -0.021000
  C      5.027000    2.729000    1.036000
  C      6.166000    3.509000    0.978000
  C      7.619000    5.153000   -0.115000
  C      4.321000   -0.148000   -0.092000
  C      3.025000    0.514000    0.015000
  C      4.387000    3.582000   -1.115000
  C      2.866000    1.916000    0.013000
  N      6.413000    4.296000   -0.095000
  H     -5.561000    5.472000    1.509000
  H      2.274000    4.766000    0.081000
  H     -1.650000    5.167000   -1.445000
  H     -3.103000    7.187000   -1.360000
  H     -4.724000    8.324000    0.819000
  H     -5.199000    8.063000   -0.886000
  H     -6.190000    7.376000    0.432000
  H     -0.332000    5.282000    0.069000
  H     -4.208000    3.385000    1.545000
  H      0.182000    1.072000    0.005000
  H     -0.183000   -1.080000   -0.021000
  H     -5.864000   -4.962000    1.895000
  H     -4.794000    2.272000    0.139000
  H     -4.800000   -2.160000   -1.994000
  H     -6.841000   -3.582000   -1.893000
  H     -8.428000   -4.536000    0.546000
  H     -7.956000   -5.337000   -0.981000
  H     -7.456000   -6.037000    0.584000
  H     -5.287000   -0.344000    0.100000
  H     -3.780000   -3.601000    1.947000
  H      3.587000   -6.868000   -1.843000
  H     -2.276000   -4.774000   -0.050000
  H      3.714000   -3.724000    1.926000
  H      5.092000   -5.795000    1.871000
  H      6.205000   -7.329000   -0.439000
  H      5.393000   -7.917000    1.042000
  H      4.759000   -8.373000   -0.564000
  H      0.329000   -5.290000   -0.008000
  H      2.146000   -4.842000   -1.940000
  H      5.808000    4.986000   -1.956000
  H      4.788000   -2.281000   -0.185000
  H      4.860000    2.114000    1.912000
  H      6.901000    3.531000    1.772000
  H      7.383000    6.109000    0.356000
  H      8.414000    4.652000    0.435000
  H      7.921000    5.310000   -1.150000
  H      5.283000    0.336000   -0.179000
  H      3.720000    3.632000   -1.967000

 Total Charge           Charge          ....    0
 Multiplicity           Mult            ....    1
 Number of Electrons    NEL             ....  358
 Basis Dimension        Dim             ....  918

ORBITAL ENERGIES
----------------

  NO   OCC          E(Eh)            E(eV)
   0   2.0000     -15.659086      -426.1054
   1   2.0000     -15.637021      -425.5050
   2   2.0000     -15.629778      -425.3079
   3   2.0000     -15.603382      -424.5896
   4   2.0000     -15.522566      -422.3905
   5   2.0000     -15.516363      -422.2217
   6   2.0000     -15.449047      -420.3899
   7   2.0000     -15.442914      -420.2230
   8   2.0000     -11.315121      -307.9001
   9   2.0000     -11.312505      -307.8289
  10   2.0000     -11.310515      -307.7748
  11   2.0000     -11.301192      -307.5211
  12   2.0000     -11.296903      -307.4044
  13   2.0000     -11.294378      -307.3357
  14   2.0000     -11.290345      -307.2259
  15   2.0000     -11.288121      -307.1654
  16   2.0000     -11.285721      -307.1001
  17   2.0000     -11.281260      -306.9787
  18   2.0000     -11.266641      -306.5809
  19   2.0000     -11.265902      -306.5608
  20   2.0000     -11.262547      -306.4695
  21   2.0000     -11.248739      -306.0938
  22   2.0000     -11.247824      -306.0689
  23   2.0000     -11.240472      -305.8688
  24   2.0000     -11.234438      -305.7046
  25   2.0000     -11.233255      -305.6724
  26   2.0000     -11.232469      -305.6510
  27   2.0000     -11.228000      -305.5294
  28   2.0000     -11.227878      -305.5261
  29   2.0000     -11.212644      -305.1116
  30   2.0000     -11.207859      -304.9813
  31   2.0000     -11.206079      -304.9329
  32   2.0000     -11.205984      -304.9303
  33   2.0000     -11.205132      -304.9071
  34   2.0000     -11.191742      -304.5428
  35   2.0000     -11.191219      -304.5286
  36   2.0000     -11.181936      -304.2759
  37   2.0000     -11.179909      -304.2208
  38   2.0000     -11.179295      -304.2041
  39   2.0000     -11.172743      -304.0258
  40   2.0000     -11.168773      -303.9178
  41   2.0000     -11.167055      -303.8710
  42   2.0000     -11.165453      -303.8274
  43   2.0000     -11.164021      -303.7885
  44   2.0000     -11.163902      -303.7852
  45   2.0000     -11.162070      -303.7354
  46   2.0000     -11.152556      -303.4765
  47   2.0000     -11.150292      -303.4149
  48   2.0000     -11.149090      -303.3822
  49   2.0000     -11.145900      -303.2954
  50   2.0000     -11.137405      -303.0642
  51   2.0000     -11.131570      -302.9054
  52   2.0000      -1.342746       -36.5380
  53   2.0000      -1.323813       -36.0228
  54   2.0000      -1.317716       -35.8569
  55   2.0000      -1.295801       -35.2605
  56   2.0000      -1.222212       -33.2581
  57   2.0000      -1.211616       -32.9697
  58   2.0000      -1.166834       -31.7512
  59   2.0000      -1.155066       -31.4310
  60   2.0000      -1.128725       -30.7142
  61   2.0000      -1.112213       -30.2649
  62   2.0000      -1.107175       -30.1278
  63   2.0000      -1.089713       -29.6526
  64   2.0000      -1.065676       -28.9985
  65   2.0000      -1.047807       -28.5123
  66   2.0000      -1.042418       -28.3656
  67   2.0000      -1.031890       -28.0792
  68   2.0000      -1.023262       -27.8444
  69   2.0000      -1.012881       -27.5619
  70   2.0000      -1.009735       -27.4763
  71   2.0000      -0.993636       -27.0382
  72   2.0000      -0.986451       -26.8427
  73   2.0000      -0.975317       -26.5397
  74   2.0000      -0.973312       -26.4852
  75   2.0000      -0.959400       -26.1066
  76   2.0000      -0.950766       -25.8717
  77   2.0000      -0.947969       -25.7955
  78   2.0000      -0.937258       -25.5041
  79   2.0000      -0.922120       -25.0922
  80   2.0000      -0.897848       -24.4317
  81   2.0000      -0.888816       -24.1859
  82   2.0000      -0.875051       -23.8114
  83   2.0000      -0.870112       -23.6770
  84   2.0000      -0.864046       -23.5119
  85   2.0000      -0.855480       -23.2788
  86   2.0000      -0.846755       -23.0414
  87   2.0000      -0.839314       -22.8389
  88   2.0000      -0.822411       -22.3789
  89   2.0000      -0.798738       -21.7348
  90   2.0000      -0.795763       -21.6538
  91   2.0000      -0.743040       -20.2191
  92   2.0000      -0.736373       -20.0377
  93   2.0000      -0.730990       -19.8913
  94   2.0000      -0.722338       -19.6558
  95   2.0000      -0.720527       -19.6065
  96   2.0000      -0.713442       -19.4137
  97   2.0000      -0.706361       -19.2211
  98   2.0000      -0.701701       -19.0942
  99   2.0000      -0.695405       -18.9229
 100   2.0000      -0.692337       -18.8395
 101   2.0000      -0.681526       -18.5453
 102   2.0000      -0.678785       -18.4707
 103   2.0000      -0.675102       -18.3704
 104   2.0000      -0.671412       -18.2701
 105   2.0000      -0.670677       -18.2500
 106   2.0000      -0.663587       -18.0571
 107   2.0000      -0.662751       -18.0344
 108   2.0000      -0.655829       -17.8460
 109   2.0000      -0.654434       -17.8081
 110   2.0000      -0.651076       -17.7167
 111   2.0000      -0.648275       -17.6405
 112   2.0000      -0.643928       -17.5222
 113   2.0000      -0.637129       -17.3372
 114   2.0000      -0.633037       -17.2258
 115   2.0000      -0.631041       -17.1715
 116   2.0000      -0.624746       -17.0002
 117   2.0000      -0.614971       -16.7342
 118   2.0000      -0.614279       -16.7154
 119   2.0000      -0.610981       -16.6256
 120   2.0000      -0.609629       -16.5888
 121   2.0000      -0.602151       -16.3854
 122   2.0000      -0.598057       -16.2740
 123   2.0000      -0.591069       -16.0838
 124   2.0000      -0.588322       -16.0090
 125   2.0000      -0.583330       -15.8732
 126   2.0000      -0.579223       -15.7615
 127   2.0000      -0.575993       -15.6736
 128   2.0000      -0.563963       -15.3462
 129   2.0000      -0.558648       -15.2016
 130   2.0000      -0.554376       -15.0853
 131   2.0000      -0.549351       -14.9486
 132   2.0000      -0.541357       -14.7311
 133   2.0000      -0.537576       -14.6282
 134   2.0000      -0.534878       -14.5548
 135   2.0000      -0.532211       -14.4822
 136   2.0000      -0.526322       -14.3219
 137   2.0000      -0.524026       -14.2595
 138   2.0000      -0.517423       -14.0798
 139   2.0000      -0.516603       -14.0575
 140   2.0000      -0.510826       -13.9003
 141   2.0000      -0.508799       -13.8451
 142   2.0000      -0.507610       -13.8128
 143   2.0000      -0.501875       -13.6567
 144   2.0000      -0.501148       -13.6369
 145   2.0000      -0.498184       -13.5563
 146   2.0000      -0.494331       -13.4514
 147   2.0000      -0.487786       -13.2733
 148   2.0000      -0.486976       -13.2513
 149   2.0000      -0.469253       -12.7690
 150   2.0000      -0.463049       -12.6002
 151   2.0000      -0.455159       -12.3855
 152   2.0000      -0.448095       -12.1933
 153   2.0000      -0.446807       -12.1582
 154   2.0000      -0.445964       -12.1353
 155   2.0000      -0.440556       -11.9881
 156   2.0000      -0.433323       -11.7913
 157   2.0000      -0.428190       -11.6517
 158   2.0000      -0.397928       -10.8282
 159   2.0000      -0.386838       -10.5264
 160   2.0000      -0.378166       -10.2904
 161   2.0000      -0.373650       -10.1675
 162   2.0000      -0.370738       -10.0883
 163   2.0000      -0.358529        -9.7561
 164   2.0000      -0.354144        -9.6368
 165   2.0000      -0.337502        -9.1839
 166   2.0000      -0.336341        -9.1523
 167   2.0000      -0.335546        -9.1307
 168   2.0000      -0.328079        -8.9275
 169   2.0000      -0.300622        -8.1803
 170   2.0000      -0.299816        -8.1584
 171   2.0000      -0.287704        -7.8288
 172   2.0000      -0.285486        -7.7685
 173   2.0000      -0.259123        -7.0511
 174   2.0000      -0.246299        -6.7021
 175   2.0000      -0.189226        -5.1491
 176   2.0000      -0.179365        -4.8808
 177   2.0000      -0.070869        -1.9284
 178   2.0000      -0.056421        -1.5353
 179   0.0000       0.029496         0.8026
 180   0.0000       0.068835         1.8731
 181   0.0000       0.092338         2.5126
 182   0.0000       0.103041         2.8039
 183   0.0000       0.120132         3.2690

MULLIKEN ATOMIC CHARGES
-----------------------
   0 C :    0.209130
   1 N :   -0.451293
   2 C :   -0.062755
   3 N :   -0.335970
   4 C :   -0.051999
   5 N :   -0.562783
   6 C :   -0.096989
   7 N :   -0.339136
   8 C :    0.203776
   9 N :   -0.562796
  10 C :    0.117240
  11 N :   -0.437745
  12 C :   -0.081448
  13 N :   -0.434328
  14 C :    0.242850
  15 N :   -0.441045
  16 C :    0.228968
  17 C :   -0.100954
  18 C :   -0.211703
  19 C :    0.237298
  20 C :    0.211511
  21 C :   -0.093976
  22 C :   -0.089434
  23 C :   -0.043341
  24 C :    0.199028
  25 C :    0.114171
  26 C :   -0.073327
  27 C :    0.215630
  28 C :   -0.057747
  29 C :   -0.181417
  30 C :    0.241231
  31 C :    0.221545
  32 C :   -0.063364
  33 C :   -0.070170
  34 C :   -0.050379
  35 C :    0.216886
  36 C :    0.110961
  37 C :   -0.065560
  38 C :    0.234096
  39 C :   -0.059545
  40 C :   -0.184871
  41 C :    0.223618
  42 C :    0.199666
  43 C :   -0.072798
  44 C :   -0.089631
  45 C :   -0.057409
  46 C :    0.207669
  47 C :    0.115547
  48 C :   -0.070304
  49 C :    0.233247
  50 C :   -0.049404
  51 C :   -0.190282
  52 H :    0.045494
  53 H :   -0.015277
  54 H :    0.048078
  55 H :    0.043639
  56 H :    0.052559
  57 H :    0.051101
  58 H :    0.050817
  59 H :   -0.002897
  60 H :    0.051120
  61 H :    0.171811
  62 H :    0.174324
  63 H :    0.056123
  64 H :   -0.010517
  65 H :    0.047660
  66 H :    0.056934
  67 H :    0.062727
  68 H :    0.057895
  69 H :    0.057628
  70 H :   -0.027068
  71 H :    0.046270
  72 H :    0.064509
  73 H :   -0.010724
  74 H :    0.054118
  75 H :    0.063718
  76 H :    0.068952
  77 H :    0.063451
  78 H :    0.062689
  79 H :   -0.015229
  80 H :    0.054752
  81 H :    0.053589
  82 H :   -0.024183
  83 H :    0.042367
  84 H :    0.053627
  85 H :    0.059957
  86 H :    0.055785
  87 H :    0.056752
  88 H :   -0.017566
  89 H :    0.044856
Sum of atomic charges:    0.0000000

LOEWDIN ATOMIC CHARGES
----------------------
   0 C :   -0.014643
   1 N :    0.122167
   2 C :   -0.100899
   3 N :    0.182000
   4 C :    0.008818
   5 N :   -0.134497
   6 C :   -0.033637
   7 N :    0.176723
   8 C :   -0.018352
   9 N :   -0.139982
  10 C :    0.025563
  11 N :    0.143607
  12 C :   -0.106892
  13 N :    0.154849
  14 C :   -0.036326
  15 N :    0.138320
  16 C :   -0.054218
  17 C :   -0.035353
  18 C :   -0.103705
  19 C :   -0.084062
  20 C :    0.003310
  21 C :   -0.112836
  22 C :    0.039533
  23 C :   -0.016603
  24 C :   -0.007374
  25 C :    0.030186
  26 C :   -0.104718
  27 C :   -0.107750
  28 C :   -0.024714
  29 C :   -0.102867
  30 C :   -0.037114
  31 C :    0.014013
  32 C :   -0.096624
  33 C :    0.062622
  34 C :   -0.017062
  35 C :    0.010141
  36 C :    0.032673
  37 C :   -0.097528
  38 C :   -0.047032
  39 C :   -0.021159
  40 C :   -0.108421
  41 C :   -0.092573
  42 C :   -0.008724
  43 C :   -0.101545
  44 C :    0.032894
  45 C :   -0.025579
  46 C :   -0.001598
  47 C :    0.029335
  48 C :   -0.099015
  49 C :   -0.078324
  50 C :   -0.021109
  51 C :   -0.108640
  52 H :    0.025996
  53 H :    0.003715
  54 H :    0.041054
  55 H :    0.025352
  56 H :    0.023083
  57 H :    0.027978
  58 H :    0.028644
  59 H :    0.007455
  60 H :    0.042656
  61 H :    0.060233
  62 H :    0.061270
  63 H :    0.030996
  64 H :    0.002561
  65 H :    0.045907
  66 H :    0.029990
  67 H :    0.028421
  68 H :    0.031925
  69 H :    0.030847
  70 H :   -0.003246
  71 H :    0.044300
  72 H :    0.034528
  73 H :    0.005803
  74 H :    0.048052
  75 H :    0.033976
  76 H :    0.031702
  77 H :    0.034044
  78 H :    0.033711
  79 H :    0.003638
  80 H :    0.047853
  81 H :    0.028832
  82 H :   -0.002324
  83 H :    0.042926
  84 H :    0.029502
  85 H :    0.026949
  86 H :    0.030259
  87 H :    0.031186
  88 H :    0.000915
  89 H :    0.044031

  Mayer bond orders larger than 0.100000
B(  0-C ,  1-N ) :   1.0984 B(  0-C , 17-C ) :   1.6805 B(  0-C , 52-H ) :   0.9685
B(  1-N ,  8-C ) :   1.0940 B(  1-N , 10-C ) :   0.9724 B(  2-C , 12-C ) :   1.5205
B(  2-C , 16-C ) :   1.3431 B(  2-C , 53-H ) :   0.9766 B(  3-N , 14-C ) :   1.2130
B(  3-N , 16-C ) :   1.1934 B(  3-N , 61-H ) :   0.8989 B(  4-C ,  6-C ) :   1.2286
B(  4-C , 17-C ) :   1.2287 B(  4-C , 18-C ) :   1.3755 B(  5-N , 19-C ) :   1.4412
B(  5-N , 27-C ) :   1.3878 B(  6-C ,  8-C ) :   1.6803 B(  6-C , 54-H ) :   0.9670
B(  7-N , 30-C ) :   1.1950 B(  7-N , 38-C ) :   1.1956 B(  7-N , 62-H ) :   0.8974
B(  8-C , 55-H ) :   0.9692 B(  9-N , 41-C ) :   1.3996 B(  9-N , 49-C ) :   1.4218
B( 10-C , 56-H ) :   0.9766 B( 10-C , 57-H ) :   0.9820 B( 10-C , 58-H ) :   0.9841
B( 11-N , 20-C ) :   1.1291 B( 11-N , 24-C ) :   1.1142 B( 11-N , 25-C ) :   0.9590
B( 12-C , 14-C ) :   1.3445 B( 12-C , 59-H ) :   0.9745 B( 13-N , 31-C ) :   1.1440
B( 13-N , 35-C ) :   1.1392 B( 13-N , 36-C ) :   0.9499 B( 14-C , 18-C ) :   1.1551
B( 15-N , 42-C ) :   1.1106 B( 15-N , 46-C ) :   1.1191 B( 15-N , 47-C ) :   0.9620
B( 16-C , 51-C ) :   1.1820 B( 17-C , 60-H ) :   0.9666 B( 18-C , 19-C ) :   1.1647
B( 19-C , 21-C ) :   1.2293 B( 20-C , 28-C ) :   1.6254 B( 20-C , 63-H ) :   0.9702
B( 21-C , 26-C ) :   1.6277 B( 21-C , 64-H ) :   0.9700 B( 22-C , 23-C ) :   1.2883
B( 22-C , 28-C ) :   1.2691 B( 22-C , 29-C ) :   1.2229 B( 23-C , 24-C ) :   1.6181
B( 23-C , 65-H ) :   0.9706 B( 24-C , 66-H ) :   0.9693 B( 25-C , 67-H ) :   0.9761
B( 25-C , 68-H ) :   0.9828 B( 25-C , 69-H ) :   0.9822 B( 26-C , 27-C ) :   1.2260
B( 26-C , 70-H ) :   0.9721 B( 27-C , 29-C ) :   1.2238 B( 28-C , 71-H ) :   0.9717
B( 29-C , 30-C ) :   1.2274 B( 30-C , 32-C ) :   1.2959 B( 31-C , 39-C ) :   1.6079
B( 31-C , 72-H ) :   0.9688 B( 32-C , 37-C ) :   1.5628 B( 32-C , 73-H ) :   0.9782
B( 33-C , 34-C ) :   1.2928 B( 33-C , 39-C ) :   1.2869 B( 33-C , 40-C ) :   1.2092
B( 34-C , 35-C ) :   1.6048 B( 34-C , 74-H ) :   0.9700 B( 35-C , 75-H ) :   0.9689
B( 36-C , 76-H ) :   0.9765 B( 36-C , 77-H ) :   0.9818 B( 36-C , 78-H ) :   0.9827
B( 37-C , 38-C ) :   1.2990 B( 37-C , 79-H ) :   0.9771 B( 38-C , 40-C ) :   1.2208
B( 39-C , 80-H ) :   0.9710 B( 40-C , 41-C ) :   1.2368 B( 41-C , 43-C ) :   1.1977
B( 42-C , 50-C ) :   1.6339 B( 42-C , 81-H ) :   0.9697 B( 43-C , 48-C ) :   1.6544
B( 43-C , 82-H ) :   0.9729 B( 44-C , 45-C ) :   1.2662 B( 44-C , 50-C ) :   1.2695
B( 44-C , 51-C ) :   1.2593 B( 45-C , 46-C ) :   1.6345 B( 45-C , 83-H ) :   0.9715
B( 46-C , 84-H ) :   0.9701 B( 47-C , 85-H ) :   0.9761 B( 47-C , 86-H ) :   0.9829
B( 47-C , 87-H ) :   0.9825 B( 48-C , 49-C ) :   1.1998 B( 48-C , 88-H ) :   0.9744
B( 49-C , 51-C ) :   1.2319 B( 50-C , 89-H ) :   0.9712

MP2 TOTAL ENERGY:    -2130.909735635 Eh
FINAL SINGLE POINT ENERGY     -2130.909735635338

DIPOLE MOMENT
-------------
                                X             Y             Z
Electronic contribution:      1.28462      -2.81405      -0.13617
Nuclear contribution   :      0.07911       0.24026       0.14283
                        -----------------------------------------
Total Dipole Moment    :      1.36373      -2.57378       0.00666
                        -----------------------------------------
Magnitude (a.u.)       :      2.91276
Magnitude (Debye)      :      7.40365

Rotational constants in cm-1:     0.001499     0.001476     0.000761
Rotational constants in MHz :    44.950129    44.262854    22.822356

                             ****ORCA TERMINATED NORMALLY****
TOTAL RUN TIME: 0 days 1 hours 13 minutes 5 seconds 793 msec
