                         Program Version 5.0.4 -  RELEASE  -
|  1> ! PAL2
|  2> ! mp2 cc-pvdz TightSCF  NoKeepInts
|  3>
|  4> %scf
|  5>   MaxCore 2000
|  6> end
|  7> %mp2
|  8>   MaxCore 2000
|  9> end
| 10> * xyz 0 1
| 11>    C       -3.31200         6.32100        -0.72500
| 12>    C        1.47400         4.04100         0.05700
| 13>    C       -2.80200         4.09300         0.04900
| 14>    C       -3.90500         4.19500         0.91000
| 15>    C       -4.67000         5.34400         0.92400
| 16>    C       -5.23000         7.59000         0.12800
| 17>    C        0.13200         4.30700         0.06100
| 18>    C       -0.56900         3.05600         0.04700
| 19>    C        1.64900         2.61800         0.02300
| 20>    C       -2.52000         5.19000        -0.77900
| 21>    N       -4.36800         6.38800         0.11700
| 22>    N        0.38800         2.06700         0.02500
| 23>    N       -2.01000         0.39500        -0.07500
| 24>    N       -0.38800        -2.07400        -0.02700
| 25>    N        2.01000        -0.40100         0.06500
| 26>    C       -1.96000         2.86100         0.02400
| 27>    C       -2.62300         1.61500        -0.01800
| 28>    C       -5.57300        -4.32900         1.06600
| 29>    C       -4.07300         1.47100         0.05600
| 30>    C       -4.10600        -2.75600        -0.02600
| 31>    C       -4.99500        -2.75700        -1.11100
| 32>    C       -6.13200        -3.54200        -1.07600
| 33>    C       -7.65100        -5.11300         0.04000
| 34>    C       -4.32400         0.14100         0.03700
| 35>    C       -3.02500        -0.52000        -0.04800
| 36>    C       -4.42200        -3.56600         1.07500
| 37>    N       -6.40700        -4.31300         0.00100
| 38>    C       -2.86700        -1.92200        -0.04000
| 39>    C       -1.65000        -2.62400        -0.02700
| 40>    C        3.56800        -6.14200        -1.04000
| 41>    C       -1.47600        -4.04900        -0.03400
| 42>    C        2.80300        -4.09900        -0.00800
| 43>    C        3.65700        -4.38400         1.06900
| 44>    C        4.42700        -5.53000         1.05900
| 45>    C        5.24500        -7.58800         0.01400
| 46>    C       -0.13400        -4.31500        -0.02200
| 47>    C        0.56800        -3.06400        -0.02700
| 48>    C        2.77500        -5.01200        -1.07400
| 49>    N        4.37600        -6.39100         0.01700
| 50>    C        1.95900        -2.86900        -0.00900
| 51>    C        2.62100        -1.62200         0.00900
| 52>    C        5.54300         4.33900        -1.13000
| 53>    C        4.07000        -1.47900        -0.09400
| 54>    C        4.10400         2.75100        -0.02100
| 55>    C        5.02700         2.72900         1.03600
| 56>    C        6.16600         3.50900         0.97800
| 57>    C        7.61900         5.15300        -0.11500
| 58>    C        4.32100        -0.14800        -0.09200
| 59>    C        3.02500         0.51400         0.01500
| 60>    C        4.38700         3.58200        -1.11500
| 61>    C        2.86600         1.91600         0.01300
| 62>    N        6.41300         4.29600        -0.09500
| 63>    H       -3.12500         7.19500        -1.33600
| 64>    H        2.27400         4.76600         0.08100
| 65>    H       -4.17900         3.37800         1.56700
| 66>    H       -5.53500         5.46600         1.56400
| 67>    H       -6.06500         7.43600        -0.55900
| 68>    H       -5.60200         7.74600         1.14100
| 69>    H       -4.63800         8.44800        -0.18900
| 70>    H       -0.33200         5.28200         0.06900
| 71>    H       -1.67400         5.17800        -1.45600
| 72>    H        0.18200         1.07200         0.00500
| 73>    H       -0.18300        -1.08000        -0.02100
| 74>    H       -5.86400        -4.96200         1.89500
| 75>    H       -4.79400         2.27200         0.13900
| 76>    H       -4.80000        -2.16000        -1.99400
| 77>    H       -6.84100        -3.58200        -1.89300
| 78>    H       -8.42800        -4.53600         0.54600
| 79>    H       -7.95600        -5.33700        -0.98100
| 80>    H       -7.45600        -6.03700         0.58400
| 81>    H       -5.28700        -0.34400         0.10000
| 82>    H       -3.78000        -3.60100         1.94700
| 83>    H        3.58700        -6.86800        -1.84300
| 84>    H       -2.27600        -4.77400        -0.05000
| 85>    H        3.71400        -3.72400         1.92600
| 86>    H        5.09200        -5.79500         1.87100
| 87>    H        6.20500        -7.32900        -0.43900
| 88>    H        5.39300        -7.91700         1.04200
| 89>    H        4.75900        -8.37300        -0.56400
| 90>    H        0.32900        -5.29000        -0.00800
| 91>    H        2.14600        -4.84200        -1.94000
| 92>    H        5.80800         4.98600        -1.95600
| 93>    H        4.78800        -2.28100        -0.18500
| 94>    H        4.86000         2.11400         1.91200
| 95>    H        6.90100         3.53100         1.77200
| 96>    H        7.38300         6.10900         0.35600
| 97>    H        8.41400         4.65200         0.43500
| 98>    H        7.92100         5.31000        -1.15000
| 99>    H        5.28300         0.33600        -0.17900
|100>    H        3.72000         3.63200        -1.96700
|101> *
|102>
|103>                          ****END OF INPUT****

CARTESIAN COORDINATES (ANGSTROEM)
---------------------------------
  C     -3.312000    6.321000   -0.725000
  C      1.474000    4.041000    0.057000
  C     -2.802000    4.093000    0.049000
  C     -3.905000    4.195000    0.910000
  C     -4.670000    5.344000    0.924000
  C     -5.230000    7.590000    0.128000
  C      0.132000    4.307000    0.061000
  C     -0.569000    3.056000    0.047000
  C      1.649000    2.618000    0.023000
  C     -2.520000    5.190000   -0.779000
  N     -4.368000    6.388000    0.117000
  N      0.388000    2.067000    0.025000
  N     -2.010000    0.395000   -0.075000
  N     -0.388000   -2.074000   -0.027000
  N      2.010000   -0.401000    0.065000
  C     -1.960000    2.861000    0.024000
  C     -2.623000    1.615000   -0.018000
  C     -5.573000   -4.329000    1.066000
  C     -4.073000    1.471000    0.056000
  C     -4.106000   -2.756000   -0.026000
  C     -4.995000   -2.757000   -1.111000
  C     -6.132000   -3.542000   -1.076000
  C     -7.651000   -5.113000    0.040000
  C     -4.324000    0.141000    0.037000
  C     -3.025000   -0.520000   -0.048000
  C     -4.422000   -3.566000    1.075000
  N     -6.407000   -4.313000    0.001000
  C     -2.867000   -1.922000   -0.040000
  C     -1.650000   -2.624000   -0.027000
  C      3.568000   -6.142000   -1.040000
  C     -1.476000   -4.049000   -0.034000
  C      2.803000   -4.099000   -0.008000
  C      3.657000   -4.384000    1.069000
  C      4.427000   -5.530000    1.059000
  C      5.245000   -7.588000    0.014000
  C     -0.134000   -4.315000   -0.022000
  C      0.568000   -3.064000   -0.027000
  C      2.775000   -5.012000   -1.074000
  N      4.376000   -6.391000    0.017000
  C      1.959000   -2.869000   -0.009000
  C      2.621000   -1.622000    0.009000
  C      5.543000    4.339000   -1.130000
  C      4.070000   -1.479000   -0.094000
  C      4.104000    2.751000   -0.021000
  C      5.027000    2.729000    1.036000
  C      6.166000    3.509000    0.978000
  C      7.619000    5.153000   -0.115000
  C      4.321000   -0.148000   -0.092000
  C      3.025000    0.514000    0.015000
  C      4.387000    3.582000   -1.115000
  C      2.866000    1.916000    0.013000
  N      6.413000    4.296000   -0.095000
  H     -3.125000    7.195000   -1.336000
  H      2.274000    4.766000    0.081000
  H     -4.179000    3.378000    1.567000
  H     -5.535000    5.466000    1.564000
  H     -6.065000    7.436000   -0.559000
  H     -5.602000    7.746000    1.141000
  H     -4.638000    8.448000   -0.189000
  H     -0.332000    5.282000    0.069000
  H     -1.674000    5.178000   -1.456000
  H      0.182000    1.072000    0.005000
  H     -0.183000   -1.080000   -0.021000
  H     -5.864000   -4.962000    1.895000
  H     -4.794000    2.272000    0.139000
  H     -4.800000   -2.160000   -1.994000
  H     -6.841000   -3.582000   -1.893000
  H     -8.428000   -4.536000    0.546000
  H     -7.956000   -5.337000   -0.981000
  H     -7.456000   -6.037000    0.584000
  H     -5.287000   -0.344000    0.100000
  H     -3.780000   -3.601000    1.947000
  H      3.587000   -6.868000   -1.843000
  H     -2.276000   -4.774000   -0.050000
  H      3.714000   -3.724000    1.926000
  H      5.092000   -5.795000    1.871000
  H      6.205000   -7.329000   -0.439000
  H      5.393000   -7.917000    1.042000
  H      4.759000   -8.373000   -0.564000
  H      0.329000   -5.290000   -0.008000
  H      2.146000   -4.842000   -1.940000
  H      5.808000    4.986000   -1.956000
  H      4.788000   -2.281000   -0.185000
  H      4.860000    2.114000    1.912000
  H      6.901000    3.531000    1.772000
  H      7.383000    6.109000    0.356000
  H      8.414000    4.652000    0.435000
  H      7.921000    5.310000   -1.150000
  H      5.283000    0.336000   -0.179000
  H      3.720000    3.632000   -1.967000

 Total Charge           Charge          ....    0
 Multiplicity           Mult            ....    1
 Number of Electrons    NEL             ....  358
 Basis Dimension        Dim             ....  918

ORBITAL ENERGIES
----------------

  NO   OCC          E(Eh)            E(eV)
   0   2.0000     -15.658197      -426.0812
   1   2.0000     -15.636563      -425.4925
   2   2.0000     -15.630214      -425.3197
   3   2.0000     -15.604482      -424.6195
   4   2.0000     -15.522274      -422.3825
   5   2.0000     -15.516392      -422.2225
   6   2.0000     -15.448955      -420.3874
   7   2.0000     -15.442832      -420.2208
   8   2.0000     -11.314571      -307.8851
   9   2.0000     -11.311710      -307.8073
  10   2.0000     -11.309820      -307.7558
  11   2.0000     -11.300906      -307.5133
  12   2.0000     -11.297167      -307.4115
  13   2.0000     -11.293929      -307.3234
  14   2.0000     -11.290029      -307.2173
  15   2.0000     -11.288443      -307.1742
  16   2.0000     -11.286098      -307.1103
  17   2.0000     -11.281846      -306.9946
  18   2.0000     -11.267942      -306.6163
  19   2.0000     -11.266419      -306.5748
  20   2.0000     -11.261703      -306.4465
  21   2.0000     -11.248100      -306.0764
  22   2.0000     -11.247186      -306.0515
  23   2.0000     -11.240033      -305.8568
  24   2.0000     -11.234836      -305.7154
  25   2.0000     -11.232901      -305.6628
  26   2.0000     -11.232108      -305.6412
  27   2.0000     -11.228308      -305.5378
  28   2.0000     -11.228183      -305.5344
  29   2.0000     -11.213364      -305.1311
  30   2.0000     -11.208377      -304.9954
  31   2.0000     -11.207369      -304.9680
  32   2.0000     -11.205516      -304.9176
  33   2.0000     -11.204732      -304.8963
  34   2.0000     -11.192002      -304.5499
  35   2.0000     -11.191370      -304.5327
  36   2.0000     -11.181508      -304.2643
  37   2.0000     -11.179738      -304.2161
  38   2.0000     -11.179142      -304.1999
  39   2.0000     -11.172345      -304.0150
  40   2.0000     -11.169034      -303.9249
  41   2.0000     -11.166545      -303.8571
  42   2.0000     -11.165498      -303.8286
  43   2.0000     -11.163973      -303.7871
  44   2.0000     -11.163518      -303.7748
  45   2.0000     -11.162184      -303.7385
  46   2.0000     -11.152326      -303.4702
  47   2.0000     -11.150600      -303.4233
  48   2.0000     -11.149018      -303.3802
  49   2.0000     -11.146180      -303.3030
  50   2.0000     -11.137427      -303.0648
  51   2.0000     -11.131846      -302.9129
  52   2.0000      -1.341989       -36.5174
  53   2.0000      -1.323421       -36.0121
  54   2.0000      -1.318078       -35.8667
  55   2.0000      -1.296928       -35.2912
  56   2.0000      -1.221846       -33.2481
  57   2.0000      -1.211731       -32.9729
  58   2.0000      -1.166699       -31.7475
  59   2.0000      -1.155072       -31.4311
  60   2.0000      -1.128085       -30.6968
  61   2.0000      -1.111876       -30.2557
  62   2.0000      -1.107461       -30.1355
  63   2.0000      -1.090536       -29.6750
  64   2.0000      -1.064969       -28.9793
  65   2.0000      -1.047435       -28.5022
  66   2.0000      -1.042752       -28.3747
  67   2.0000      -1.031522       -28.0691
  68   2.0000      -1.023804       -27.8591
  69   2.0000      -1.012636       -27.5552
  70   2.0000      -1.009790       -27.4778
  71   2.0000      -0.993915       -27.0458
  72   2.0000      -0.986136       -26.8341
  73   2.0000      -0.975114       -26.5342
  74   2.0000      -0.973261       -26.4838
  75   2.0000      -0.959527       -26.1100
  76   2.0000      -0.950808       -25.8728
  77   2.0000      -0.948001       -25.7964
  78   2.0000      -0.937335       -25.5062
  79   2.0000      -0.922288       -25.0967
  80   2.0000      -0.897466       -24.4213
  81   2.0000      -0.888396       -24.1745
  82   2.0000      -0.874772       -23.8038
  83   2.0000      -0.870259       -23.6810
  84   2.0000      -0.863798       -23.5051
  85   2.0000      -0.855679       -23.2842
  86   2.0000      -0.847273       -23.0555
  87   2.0000      -0.839400       -22.8412
  88   2.0000      -0.822369       -22.3778
  89   2.0000      -0.798724       -21.7344
  90   2.0000      -0.795923       -21.6582
  91   2.0000      -0.742699       -20.2099
  92   2.0000      -0.736047       -20.0289
  93   2.0000      -0.730754       -19.8848
  94   2.0000      -0.722054       -19.6481
  95   2.0000      -0.720692       -19.6110
  96   2.0000      -0.713339       -19.4109
  97   2.0000      -0.706436       -19.2231
  98   2.0000      -0.701554       -19.0903
  99   2.0000      -0.695127       -18.9154
 100   2.0000      -0.691939       -18.8286
 101   2.0000      -0.681518       -18.5451
 102   2.0000      -0.678639       -18.4667
 103   2.0000      -0.675144       -18.3716
 104   2.0000      -0.671404       -18.2698
 105   2.0000      -0.670157       -18.2359
 106   2.0000      -0.663471       -18.0540
 107   2.0000      -0.662542       -18.0287
 108   2.0000      -0.655693       -17.8423
 109   2.0000      -0.654649       -17.8139
 110   2.0000      -0.651476       -17.7276
 111   2.0000      -0.648528       -17.6473
 112   2.0000      -0.644192       -17.5294
 113   2.0000      -0.637540       -17.3483
 114   2.0000      -0.633258       -17.2318
 115   2.0000      -0.630393       -17.1539
 116   2.0000      -0.624840       -17.0027
 117   2.0000      -0.614732       -16.7277
 118   2.0000      -0.614034       -16.7087
 119   2.0000      -0.610671       -16.6172
 120   2.0000      -0.609910       -16.5965
 121   2.0000      -0.602359       -16.3910
 122   2.0000      -0.597508       -16.2590
 123   2.0000      -0.591287       -16.0897
 124   2.0000      -0.589174       -16.0322
 125   2.0000      -0.583126       -15.8677
 126   2.0000      -0.579485       -15.7686
 127   2.0000      -0.575658       -15.6645
 128   2.0000      -0.564363       -15.3571
 129   2.0000      -0.558801       -15.2058
 130   2.0000      -0.554419       -15.0865
 131   2.0000      -0.549372       -14.9492
 132   2.0000      -0.541077       -14.7234
 133   2.0000      -0.537265       -14.6197
 134   2.0000      -0.535026       -14.5588
 135   2.0000      -0.531681       -14.4678
 136   2.0000      -0.526105       -14.3160
 137   2.0000      -0.523874       -14.2553
 138   2.0000      -0.518203       -14.1010
 139   2.0000      -0.516284       -14.0488
 140   2.0000      -0.511055       -13.9065
 141   2.0000      -0.508499       -13.8370
 142   2.0000      -0.507283       -13.8039
 143   2.0000      -0.501732       -13.6528
 144   2.0000      -0.501098       -13.6356
 145   2.0000      -0.498196       -13.5566
 146   2.0000      -0.494381       -13.4528
 147   2.0000      -0.488061       -13.2808
 148   2.0000      -0.487791       -13.2735
 149   2.0000      -0.469186       -12.7672
 150   2.0000      -0.462916       -12.5966
 151   2.0000      -0.454997       -12.3811
 152   2.0000      -0.448041       -12.1918
 153   2.0000      -0.446895       -12.1606
 154   2.0000      -0.446013       -12.1366
 155   2.0000      -0.440568       -11.9885
 156   2.0000      -0.433541       -11.7973
 157   2.0000      -0.428361       -11.6563
 158   2.0000      -0.397501       -10.8165
 159   2.0000      -0.386665       -10.5217
 160   2.0000      -0.378266       -10.2931
 161   2.0000      -0.373064       -10.1516
 162   2.0000      -0.370836       -10.0910
 163   2.0000      -0.358209        -9.7474
 164   2.0000      -0.354415        -9.6441
 165   2.0000      -0.337424        -9.1818
 166   2.0000      -0.336271        -9.1504
 167   2.0000      -0.336044        -9.1442
 168   2.0000      -0.328050        -8.9267
 169   2.0000      -0.300427        -8.1750
 170   2.0000      -0.299652        -8.1540
 171   2.0000      -0.287773        -7.8307
 172   2.0000      -0.285681        -7.7738
 173   2.0000      -0.259029        -7.0485
 174   2.0000      -0.246359        -6.7038
 175   2.0000      -0.189152        -5.1471
 176   2.0000      -0.179282        -4.8785
 177   2.0000      -0.070545        -1.9196
 178   2.0000      -0.056321        -1.5326
 179   0.0000       0.029587         0.8051
 180   0.0000       0.069004         1.8777
 181   0.0000       0.092388         2.5140
 182   0.0000       0.102701         2.7946
 183   0.0000       0.120756         3.2860

MULLIKEN ATOMIC CHARGES
-----------------------
   0 C :    0.206672
   1 N :   -0.450217
   2 C :   -0.062592
   3 N :   -0.336024
   4 C :   -0.051255
   5 N :   -0.562802
   6 C :   -0.093801
   7 N :   -0.339083
   8 C :    0.204485
   9 N :   -0.562729
  10 C :    0.117399
  11 N :   -0.437856
  12 C :   -0.080831
  13 N :   -0.434544
  14 C :    0.243613
  15 N :   -0.440916
  16 C :    0.228866
  17 C :   -0.100730
  18 C :   -0.212801
  19 C :    0.237482
  20 C :    0.211122
  21 C :   -0.094471
  22 C :   -0.089530
  23 C :   -0.043597
  24 C :    0.199065
  25 C :    0.114225
  26 C :   -0.073261
  27 C :    0.215813
  28 C :   -0.057585
  29 C :   -0.181782
  30 C :    0.241155
  31 C :    0.220970
  32 C :   -0.063556
  33 C :   -0.070572
  34 C :   -0.050570
  35 C :    0.216624
  36 C :    0.111075
  37 C :   -0.065585
  38 C :    0.233968
  39 C :   -0.059437
  40 C :   -0.185107
  41 C :    0.223750
  42 C :    0.199930
  43 C :   -0.072776
  44 C :   -0.089449
  45 C :   -0.057254
  46 C :    0.207774
  47 C :    0.115490
  48 C :   -0.070353
  49 C :    0.232965
  50 C :   -0.049442
  51 C :   -0.189901
  52 H :    0.045183
  53 H :   -0.015283
  54 H :    0.051955
  55 H :    0.044803
  56 H :    0.052936
  57 H :    0.051573
  58 H :    0.050500
  59 H :   -0.003364
  60 H :    0.046723
  61 H :    0.171876
  62 H :    0.174212
  63 H :    0.055951
  64 H :   -0.010884
  65 H :    0.047482
  66 H :    0.056786
  67 H :    0.062573
  68 H :    0.057796
  69 H :    0.057553
  70 H :   -0.026926
  71 H :    0.046136
  72 H :    0.064200
  73 H :   -0.010854
  74 H :    0.053814
  75 H :    0.063417
  76 H :    0.068676
  77 H :    0.063248
  78 H :    0.062510
  79 H :   -0.015258
  80 H :    0.054491
  81 H :    0.053740
  82 H :   -0.024061
  83 H :    0.042554
  84 H :    0.053783
  85 H :    0.060056
  86 H :    0.055909
  87 H :    0.056853
  88 H :   -0.017708
  89 H :    0.045012
Sum of atomic charges:    0.0000000

LOEWDIN ATOMIC CHARGES
----------------------
   0 C :   -0.015361
   1 N :    0.123056
   2 C :   -0.100593
   3 N :    0.181854
   4 C :    0.009565
   5 N :   -0.134675
   6 C :   -0.031347
   7 N :    0.176752
   8 C :   -0.016621
   9 N :   -0.139904
  10 C :    0.025583
  11 N :    0.143359
  12 C :   -0.106688
  13 N :    0.154352
  14 C :   -0.036115
  15 N :    0.138593
  16 C :   -0.054333
  17 C :   -0.036157
  18 C :   -0.103992
  19 C :   -0.084607
  20 C :    0.002905
  21 C :   -0.112832
  22 C :    0.039220
  23 C :   -0.016833
  24 C :   -0.007400
  25 C :    0.030129
  26 C :   -0.104758
  27 C :   -0.107211
  28 C :   -0.024676
  29 C :   -0.103266
  30 C :   -0.037232
  31 C :    0.013388
  32 C :   -0.096926
  33 C :    0.061799
  34 C :   -0.017292
  35 C :    0.009788
  36 C :    0.032562
  37 C :   -0.097655
  38 C :   -0.047181
  39 C :   -0.021199
  40 C :   -0.108476
  41 C :   -0.092221
  42 C :   -0.008428
  43 C :   -0.101591
  44 C :    0.033322
  45 C :   -0.025405
  46 C :   -0.001435
  47 C :    0.029391
  48 C :   -0.099035
  49 C :   -0.078822
  50 C :   -0.021060
  51 C :   -0.108299
  52 H :    0.025723
  53 H :    0.003719
  54 H :    0.043070
  55 H :    0.025909
  56 H :    0.023391
  57 H :    0.028220
  58 H :    0.028443
  59 H :    0.007251
  60 H :    0.040557
  61 H :    0.060262
  62 H :    0.061212
  63 H :    0.030909
  64 H :    0.002381
  65 H :    0.045819
  66 H :    0.029931
  67 H :    0.028344
  68 H :    0.031880
  69 H :    0.030809
  70 H :   -0.003180
  71 H :    0.044256
  72 H :    0.034377
  73 H :    0.005740
  74 H :    0.047913
  75 H :    0.033840
  76 H :    0.031561
  77 H :    0.033949
  78 H :    0.033626
  79 H :    0.003629
  80 H :    0.047749
  81 H :    0.028905
  82 H :   -0.002261
  83 H :    0.043011
  84 H :    0.029570
  85 H :    0.027002
  86 H :    0.030316
  87 H :    0.031233
  88 H :    0.000847
  89 H :    0.044093

  Mayer bond orders larger than 0.100000
B(  0-C ,  1-N ) :   1.1000 B(  0-C , 17-C ) :   1.6759 B(  0-C , 52-H ) :   0.9689
B(  1-N ,  8-C ) :   1.0945 B(  1-N , 10-C ) :   0.9722 B(  2-C , 12-C ) :   1.5218
B(  2-C , 16-C ) :   1.3420 B(  2-C , 53-H ) :   0.9767 B(  3-N , 14-C ) :   1.2131
B(  3-N , 16-C ) :   1.1931 B(  3-N , 61-H ) :   0.8989 B(  4-C ,  6-C ) :   1.2288
B(  4-C , 17-C ) :   1.2313 B(  4-C , 18-C ) :   1.3714 B(  5-N , 19-C ) :   1.4399
B(  5-N , 27-C ) :   1.3889 B(  6-C ,  8-C ) :   1.6809 B(  6-C , 54-H ) :   0.9664
B(  7-N , 30-C ) :   1.1952 B(  7-N , 38-C ) :   1.1956 B(  7-N , 62-H ) :   0.8975
B(  8-C , 55-H ) :   0.9690 B(  9-N , 41-C ) :   1.4004 B(  9-N , 49-C ) :   1.4210
B( 10-C , 56-H ) :   0.9766 B( 10-C , 57-H ) :   0.9820 B( 10-C , 58-H ) :   0.9841
B( 11-N , 20-C ) :   1.1285 B( 11-N , 24-C ) :   1.1141 B( 11-N , 25-C ) :   0.9592
B( 12-C , 14-C ) :   1.3434 B( 12-C , 59-H ) :   0.9746 B( 13-N , 31-C ) :   1.1430
B( 13-N , 35-C ) :   1.1386 B( 13-N , 36-C ) :   0.9502 B( 14-C , 18-C ) :   1.1567
B( 15-N , 42-C ) :   1.1111 B( 15-N , 46-C ) :   1.1194 B( 15-N , 47-C ) :   0.9618
B( 16-C , 51-C ) :   1.1830 B( 17-C , 60-H ) :   0.9678 B( 18-C , 19-C ) :   1.1667
B( 19-C , 21-C ) :   1.2289 B( 20-C , 28-C ) :   1.6258 B( 20-C , 63-H ) :   0.9703
B( 21-C , 26-C ) :   1.6276 B( 21-C , 64-H ) :   0.9699 B( 22-C , 23-C ) :   1.2876
B( 22-C , 28-C ) :   1.2689 B( 22-C , 29-C ) :   1.2243 B( 23-C , 24-C ) :   1.6187
B( 23-C , 65-H ) :   0.9706 B( 24-C , 66-H ) :   0.9693 B( 25-C , 67-H ) :   0.9761
B( 25-C , 68-H ) :   0.9828 B( 25-C , 69-H ) :   0.9822 B( 26-C , 27-C ) :   1.2260
B( 26-C , 70-H ) :   0.9721 B( 27-C , 29-C ) :   1.2234 B( 28-C , 71-H ) :   0.9717
B( 29-C , 30-C ) :   1.2264 B( 30-C , 32-C ) :   1.2969 B( 31-C , 39-C ) :   1.6087
B( 31-C , 72-H ) :   0.9689 B( 32-C , 37-C ) :   1.5616 B( 32-C , 73-H ) :   0.9782
B( 33-C , 34-C ) :   1.2919 B( 33-C , 39-C ) :   1.2864 B( 33-C , 40-C ) :   1.2110
B( 34-C , 35-C ) :   1.6057 B( 34-C , 74-H ) :   0.9701 B( 35-C , 75-H ) :   0.9689
B( 36-C , 76-H ) :   0.9765 B( 36-C , 77-H ) :   0.9818 B( 36-C , 78-H ) :   0.9827
B( 37-C , 38-C ) :   1.3001 B( 37-C , 79-H ) :   0.9771 B( 38-C , 40-C ) :   1.2199
B( 39-C , 80-H ) :   0.9710 B( 40-C , 41-C ) :   1.2362 B( 41-C , 43-C ) :   1.1979
B( 42-C , 50-C ) :   1.6333 B( 42-C , 81-H ) :   0.9697 B( 43-C , 48-C ) :   1.6542
B( 43-C , 82-H ) :   0.9729 B( 44-C , 45-C ) :   1.2667 B( 44-C , 50-C ) :   1.2699
B( 44-C , 51-C ) :   1.2580 B( 45-C , 46-C ) :   1.6339 B( 45-C , 83-H ) :   0.9715
B( 46-C , 84-H ) :   0.9701 B( 47-C , 85-H ) :   0.9761 B( 47-C , 86-H ) :   0.9829
B( 47-C , 87-H ) :   0.9825 B( 48-C , 49-C ) :   1.1999 B( 48-C , 88-H ) :   0.9744
B( 49-C , 51-C ) :   1.2321 B( 50-C , 89-H ) :   0.9711

MP2 TOTAL ENERGY:    -2130.910175004 Eh
FINAL SINGLE POINT ENERGY     -2130.910175004009

DIPOLE MOMENT
-------------
                                X             Y             Z
Electronic contribution:      1.40594      -2.61195      -0.12800
Nuclear contribution   :     -0.05159       0.15165       0.15648
                        -----------------------------------------
Total Dipole Moment    :      1.35435      -2.46030       0.02848
                        -----------------------------------------
Magnitude (a.u.)       :      2.80859
Magnitude (Debye)      :      7.13886

Rotational constants in cm-1:     0.001500     0.001475     0.000761
Rotational constants in MHz :    44.981280    44.228976    22.823854

                             ****ORCA TERMINATED NORMALLY****
TOTAL RUN TIME: 0 days 2 hours 2 minutes 57 seconds 788 msec
