                         Program Version 5.0.4 -  RELEASE  -
|  1> ! PAL2
|  2> ! mp2 cc-pvdz TightSCF  NoKeepInts
|  3>
|  4> %scf
|  5>   MaxCore 2000
|  6> end
|  7> %mp2
|  8>   MaxCore 2000
|  9> end
| 10> * xyz 0 1
| 11>    C       -4.18500         5.73100        -1.05900
| 12>    C        1.47400         4.04100         0.05700
| 13>    C       -2.80200         4.09300         0.04900
| 14>    C       -2.99800         4.80800         1.24100
| 15>    C       -3.77600         5.94900         1.24500
| 16>    C       -5.21300         7.60100         0.15100
| 17>    C        0.13200         4.30700         0.06100
| 18>    C       -0.56900         3.05600         0.04700
| 19>    C        1.64900         2.61800         0.02300
| 20>    C       -3.42000         4.58200        -1.11200
| 21>    N       -4.35400         6.39700         0.10600
| 22>    N        0.38800         2.06700         0.02500
| 23>    N       -2.01000         0.39500        -0.07500
| 24>    N       -0.38800        -2.07400        -0.02700
| 25>    N        2.01000        -0.40100         0.06500
| 26>    C       -1.96000         2.86100         0.02400
| 27>    C       -2.62300         1.61500        -0.01800
| 28>    C       -5.57300        -4.32900         1.06600
| 29>    C       -4.07300         1.47100         0.05600
| 30>    C       -4.10600        -2.75600        -0.02600
| 31>    C       -4.99500        -2.75700        -1.11100
| 32>    C       -6.13200        -3.54200        -1.07600
| 33>    C       -7.65100        -5.11300         0.04000
| 34>    C       -4.32400         0.14100         0.03700
| 35>    C       -3.02500        -0.52000        -0.04800
| 36>    C       -4.42200        -3.56600         1.07500
| 37>    N       -6.40700        -4.31300         0.00100
| 38>    C       -2.86700        -1.92200        -0.04000
| 39>    C       -1.65000        -2.62400        -0.02700
| 40>    C        3.56800        -6.14200        -1.04000
| 41>    C       -1.47600        -4.04900        -0.03400
| 42>    C        2.80300        -4.09900        -0.00800
| 43>    C        3.65700        -4.38400         1.06900
| 44>    C        4.42700        -5.53000         1.05900
| 45>    C        5.24500        -7.58800         0.01400
| 46>    C       -0.13400        -4.31500        -0.02200
| 47>    C        0.56800        -3.06400        -0.02700
| 48>    C        2.77500        -5.01200        -1.07400
| 49>    N        4.37600        -6.39100         0.01700
| 50>    C        1.95900        -2.86900        -0.00900
| 51>    C        2.62100        -1.62200         0.00900
| 52>    C        5.54300         4.33900        -1.13000
| 53>    C        4.07000        -1.47900        -0.09400
| 54>    C        4.10400         2.75100        -0.02100
| 55>    C        5.02700         2.72900         1.03600
| 56>    C        6.16600         3.50900         0.97800
| 57>    C        7.61900         5.15300        -0.11500
| 58>    C        4.32100        -0.14800        -0.09200
| 59>    C        3.02500         0.51400         0.01500
| 60>    C        4.38700         3.58200        -1.11500
| 61>    C        2.86600         1.91600         0.01300
| 62>    N        6.41300         4.29600        -0.09500
| 63>    H       -4.67000         6.15100        -1.93100
| 64>    H        2.27400         4.76600         0.08100
| 65>    H       -2.55500         4.47600         2.17100
| 66>    H       -3.96300         6.52800         2.14000
| 67>    H       -6.22700         7.30500         0.42500
| 68>    H       -4.81100         8.29200         0.89200
| 69>    H       -5.21300         8.06900        -0.83300
| 70>    H       -0.33200         5.28200         0.06900
| 71>    H       -3.29500         4.08200        -2.06600
| 72>    H        0.18200         1.07200         0.00500
| 73>    H       -0.18300        -1.08000        -0.02100
| 74>    H       -5.86400        -4.96200         1.89500
| 75>    H       -4.79400         2.27200         0.13900
| 76>    H       -4.80000        -2.16000        -1.99400
| 77>    H       -6.84100        -3.58200        -1.89300
| 78>    H       -8.42800        -4.53600         0.54600
| 79>    H       -7.95600        -5.33700        -0.98100
| 80>    H       -7.45600        -6.03700         0.58400
| 81>    H       -5.28700        -0.34400         0.10000
| 82>    H       -3.78000        -3.60100         1.94700
| 83>    H        3.58700        -6.86800        -1.84300
| 84>    H       -2.27600        -4.77400        -0.05000
| 85>    H        3.71400        -3.72400         1.92600
| 86>    H        5.09200        -5.79500         1.87100
| 87>    H        6.20500        -7.32900        -0.43900
| 88>    H        5.39300        -7.91700         1.04200
| 89>    H        4.75900        -8.37300        -0.56400
| 90>    H        0.32900        -5.29000        -0.00800
| 91>    H        2.14600        -4.84200        -1.94000
| 92>    H        5.80800         4.98600        -1.95600
| 93>    H        4.78800        -2.28100        -0.18500
| 94>    H        4.86000         2.11400         1.91200
| 95>    H        6.90100         3.53100         1.77200
| 96>    H        7.38300         6.10900         0.35600
| 97>    H        8.41400         4.65200         0.43500
| 98>    H        7.92100         5.31000        -1.15000
| 99>    H        5.28300         0.33600        -0.17900
|100>    H        3.72000         3.63200        -1.96700
|101> *
|102>
|103>                          ****END OF INPUT****

CARTESIAN COORDINATES (ANGSTROEM)
---------------------------------
  C     -4.185000    5.731000   -1.059000
  C      1.474000    4.041000    0.057000
  C     -2.802000    4.093000    0.049000
  C     -2.998000    4.808000    1.241000
  C     -3.776000    5.949000    1.245000
  C     -5.213000    7.601000    0.151000
  C      0.132000    4.307000    0.061000
  C     -0.569000    3.056000    0.047000
  C      1.649000    2.618000    0.023000
  C     -3.420000    4.582000   -1.112000
  N     -4.354000    6.397000    0.106000
  N      0.388000    2.067000    0.025000
  N     -2.010000    0.395000   -0.075000
  N     -0.388000   -2.074000   -0.027000
  N      2.010000   -0.401000    0.065000
  C     -1.960000    2.861000    0.024000
  C     -2.623000    1.615000   -0.018000
  C     -5.573000   -4.329000    1.066000
  C     -4.073000    1.471000    0.056000
  C     -4.106000   -2.756000   -0.026000
  C     -4.995000   -2.757000   -1.111000
  C     -6.132000   -3.542000   -1.076000
  C     -7.651000   -5.113000    0.040000
  C     -4.324000    0.141000    0.037000
  C     -3.025000   -0.520000   -0.048000
  C     -4.422000   -3.566000    1.075000
  N     -6.407000   -4.313000    0.001000
  C     -2.867000   -1.922000   -0.040000
  C     -1.650000   -2.624000   -0.027000
  C      3.568000   -6.142000   -1.040000
  C     -1.476000   -4.049000   -0.034000
  C      2.803000   -4.099000   -0.008000
  C      3.657000   -4.384000    1.069000
  C      4.427000   -5.530000    1.059000
  C      5.245000   -7.588000    0.014000
  C     -0.134000   -4.315000   -0.022000
  C      0.568000   -3.064000   -0.027000
  C      2.775000   -5.012000   -1.074000
  N      4.376000   -6.391000    0.017000
  C      1.959000   -2.869000   -0.009000
  C      2.621000   -1.622000    0.009000
  C      5.543000    4.339000   -1.130000
  C      4.070000   -1.479000   -0.094000
  C      4.104000    2.751000   -0.021000
  C      5.027000    2.729000    1.036000
  C      6.166000    3.509000    0.978000
  C      7.619000    5.153000   -0.115000
  C      4.321000   -0.148000   -0.092000
  C      3.025000    0.514000    0.015000
  C      4.387000    3.582000   -1.115000
  C      2.866000    1.916000    0.013000
  N      6.413000    4.296000   -0.095000
  H     -4.670000    6.151000   -1.931000
  H      2.274000    4.766000    0.081000
  H     -2.555000    4.476000    2.171000
  H     -3.963000    6.528000    2.140000
  H     -6.227000    7.305000    0.425000
  H     -4.811000    8.292000    0.892000
  H     -5.213000    8.069000   -0.833000
  H     -0.332000    5.282000    0.069000
  H     -3.295000    4.082000   -2.066000
  H      0.182000    1.072000    0.005000
  H     -0.183000   -1.080000   -0.021000
  H     -5.864000   -4.962000    1.895000
  H     -4.794000    2.272000    0.139000
  H     -4.800000   -2.160000   -1.994000
  H     -6.841000   -3.582000   -1.893000
  H     -8.428000   -4.536000    0.546000
  H     -7.956000   -5.337000   -0.981000
  H     -7.456000   -6.037000    0.584000
  H     -5.287000   -0.344000    0.100000
  H     -3.780000   -3.601000    1.947000
  H      3.587000   -6.868000   -1.843000
  H     -2.276000   -4.774000   -0.050000
  H      3.714000   -3.724000    1.926000
  H      5.092000   -5.795000    1.871000
  H      6.205000   -7.329000   -0.439000
  H      5.393000   -7.917000    1.042000
  H      4.759000   -8.373000   -0.564000
  H      0.329000   -5.290000   -0.008000
  H      2.146000   -4.842000   -1.940000
  H      5.808000    4.986000   -1.956000
  H      4.788000   -2.281000   -0.185000
  H      4.860000    2.114000    1.912000
  H      6.901000    3.531000    1.772000
  H      7.383000    6.109000    0.356000
  H      8.414000    4.652000    0.435000
  H      7.921000    5.310000   -1.150000
  H      5.283000    0.336000   -0.179000
  H      3.720000    3.632000   -1.967000

 Total Charge           Charge          ....    0
 Multiplicity           Mult            ....    1
 Number of Electrons    NEL             ....  358
 Basis Dimension        Dim             ....  918

ORBITAL ENERGIES
----------------

  NO   OCC          E(Eh)            E(eV)
   0   2.0000     -15.688385      -426.9027
   1   2.0000     -15.635023      -425.4506
   2   2.0000     -15.622302      -425.1044
   3   2.0000     -15.593782      -424.3284
   4   2.0000     -15.518319      -422.2749
   5   2.0000     -15.508590      -422.0102
   6   2.0000     -15.449072      -420.3906
   7   2.0000     -15.431320      -419.9076
   8   2.0000     -11.333797      -308.4083
   9   2.0000     -11.332496      -308.3729
  10   2.0000     -11.331768      -308.3531
  11   2.0000     -11.300182      -307.4936
  12   2.0000     -11.294505      -307.3391
  13   2.0000     -11.291835      -307.2665
  14   2.0000     -11.287351      -307.1444
  15   2.0000     -11.285724      -307.1002
  16   2.0000     -11.283109      -307.0290
  17   2.0000     -11.276215      -306.8414
  18   2.0000     -11.274098      -306.7838
  19   2.0000     -11.267101      -306.5934
  20   2.0000     -11.266975      -306.5900
  21   2.0000     -11.257781      -306.3398
  22   2.0000     -11.254154      -306.2411
  23   2.0000     -11.238480      -305.8146
  24   2.0000     -11.231273      -305.6185
  25   2.0000     -11.230421      -305.5953
  26   2.0000     -11.226497      -305.4885
  27   2.0000     -11.221420      -305.3504
  28   2.0000     -11.221227      -305.3451
  29   2.0000     -11.204573      -304.8919
  30   2.0000     -11.204211      -304.8821
  31   2.0000     -11.201278      -304.8023
  32   2.0000     -11.200479      -304.7805
  33   2.0000     -11.199356      -304.7500
  34   2.0000     -11.187156      -304.4180
  35   2.0000     -11.186524      -304.4008
  36   2.0000     -11.186146      -304.3905
  37   2.0000     -11.186004      -304.3866
  38   2.0000     -11.185276      -304.3668
  39   2.0000     -11.169287      -303.9317
  40   2.0000     -11.167775      -303.8906
  41   2.0000     -11.161588      -303.7222
  42   2.0000     -11.161134      -303.7099
  43   2.0000     -11.160316      -303.6876
  44   2.0000     -11.155767      -303.5639
  45   2.0000     -11.151698      -303.4531
  46   2.0000     -11.151069      -303.4360
  47   2.0000     -11.147030      -303.3261
  48   2.0000     -11.146873      -303.3218
  49   2.0000     -11.139331      -303.1166
  50   2.0000     -11.123119      -302.6755
  51   2.0000     -11.119444      -302.5755
  52   2.0000      -1.366062       -37.1724
  53   2.0000      -1.322195       -35.9787
  54   2.0000      -1.310791       -35.6684
  55   2.0000      -1.286678       -35.0123
  56   2.0000      -1.219985       -33.1975
  57   2.0000      -1.205249       -32.7965
  58   2.0000      -1.171129       -31.8680
  59   2.0000      -1.146342       -31.1936
  60   2.0000      -1.142548       -31.0903
  61   2.0000      -1.110489       -30.2179
  62   2.0000      -1.100189       -29.9377
  63   2.0000      -1.086528       -29.5659
  64   2.0000      -1.078983       -29.3606
  65   2.0000      -1.046220       -28.4691
  66   2.0000      -1.041422       -28.3385
  67   2.0000      -1.035500       -28.1774
  68   2.0000      -1.013959       -27.5912
  69   2.0000      -1.013089       -27.5676
  70   2.0000      -1.005050       -27.3488
  71   2.0000      -0.988522       -26.8990
  72   2.0000      -0.984862       -26.7995
  73   2.0000      -0.978696       -26.6317
  74   2.0000      -0.967915       -26.3383
  75   2.0000      -0.960038       -26.1240
  76   2.0000      -0.951753       -25.8985
  77   2.0000      -0.943913       -25.6852
  78   2.0000      -0.925002       -25.1706
  79   2.0000      -0.917480       -24.9659
  80   2.0000      -0.913014       -24.8444
  81   2.0000      -0.888820       -24.1860
  82   2.0000      -0.876271       -23.8445
  83   2.0000      -0.871605       -23.7176
  84   2.0000      -0.862746       -23.4765
  85   2.0000      -0.850963       -23.1559
  86   2.0000      -0.840204       -22.8631
  87   2.0000      -0.830262       -22.5926
  88   2.0000      -0.822228       -22.3740
  89   2.0000      -0.795798       -21.6548
  90   2.0000      -0.790814       -21.5192
  91   2.0000      -0.755707       -20.5638
  92   2.0000      -0.733759       -19.9666
  93   2.0000      -0.727125       -19.7861
  94   2.0000      -0.721764       -19.6402
  95   2.0000      -0.718119       -19.5410
  96   2.0000      -0.716107       -19.4863
  97   2.0000      -0.707964       -19.2647
  98   2.0000      -0.699211       -19.0265
  99   2.0000      -0.696210       -18.9448
 100   2.0000      -0.693397       -18.8683
 101   2.0000      -0.688348       -18.7309
 102   2.0000      -0.683134       -18.5890
 103   2.0000      -0.676955       -18.4209
 104   2.0000      -0.671943       -18.2845
 105   2.0000      -0.669545       -18.2192
 106   2.0000      -0.665699       -18.1146
 107   2.0000      -0.655307       -17.8318
 108   2.0000      -0.652947       -17.7676
 109   2.0000      -0.650434       -17.6992
 110   2.0000      -0.649763       -17.6809
 111   2.0000      -0.645077       -17.5534
 112   2.0000      -0.644685       -17.5428
 113   2.0000      -0.638435       -17.3727
 114   2.0000      -0.633680       -17.2433
 115   2.0000      -0.625561       -17.0224
 116   2.0000      -0.623351       -16.9622
 117   2.0000      -0.615980       -16.7617
 118   2.0000      -0.615274       -16.7424
 119   2.0000      -0.613104       -16.6834
 120   2.0000      -0.609171       -16.5764
 121   2.0000      -0.603433       -16.4202
 122   2.0000      -0.593246       -16.1430
 123   2.0000      -0.587568       -15.9885
 124   2.0000      -0.582585       -15.8530
 125   2.0000      -0.581923       -15.8349
 126   2.0000      -0.575865       -15.6701
 127   2.0000      -0.574072       -15.6213
 128   2.0000      -0.573009       -15.5924
 129   2.0000      -0.558408       -15.1951
 130   2.0000      -0.553988       -15.0748
 131   2.0000      -0.550598       -14.9825
 132   2.0000      -0.544943       -14.8286
 133   2.0000      -0.538744       -14.6600
 134   2.0000      -0.534847       -14.5539
 135   2.0000      -0.530895       -14.4464
 136   2.0000      -0.519805       -14.1446
 137   2.0000      -0.517618       -14.0851
 138   2.0000      -0.514012       -13.9870
 139   2.0000      -0.513255       -13.9664
 140   2.0000      -0.509369       -13.8606
 141   2.0000      -0.507333       -13.8052
 142   2.0000      -0.501619       -13.6498
 143   2.0000      -0.500558       -13.6209
 144   2.0000      -0.495488       -13.4829
 145   2.0000      -0.493671       -13.4335
 146   2.0000      -0.493377       -13.4255
 147   2.0000      -0.481264       -13.0959
 148   2.0000      -0.479812       -13.0564
 149   2.0000      -0.463688       -12.6176
 150   2.0000      -0.463315       -12.6074
 151   2.0000      -0.457412       -12.4468
 152   2.0000      -0.450470       -12.2579
 153   2.0000      -0.442126       -12.0309
 154   2.0000      -0.437542       -11.9061
 155   2.0000      -0.435907       -11.8616
 156   2.0000      -0.424876       -11.5615
 157   2.0000      -0.417920       -11.3722
 158   2.0000      -0.404336       -11.0026
 159   2.0000      -0.391091       -10.6421
 160   2.0000      -0.383818       -10.4442
 161   2.0000      -0.371568       -10.1109
 162   2.0000      -0.358113        -9.7447
 163   2.0000      -0.357162        -9.7189
 164   2.0000      -0.348040        -9.4706
 165   2.0000      -0.339344        -9.2340
 166   2.0000      -0.338123        -9.2008
 167   2.0000      -0.328857        -8.9487
 168   2.0000      -0.316836        -8.6215
 169   2.0000      -0.299594        -8.1524
 170   2.0000      -0.298758        -8.1296
 171   2.0000      -0.284513        -7.7420
 172   2.0000      -0.280980        -7.6458
 173   2.0000      -0.262927        -7.1546
 174   2.0000      -0.234842        -6.3904
 175   2.0000      -0.184628        -5.0240
 176   2.0000      -0.174471        -4.7476
 177   2.0000      -0.062271        -1.6945
 178   2.0000      -0.051537        -1.4024
 179   0.0000       0.034124         0.9286
 180   0.0000       0.061168         1.6645
 181   0.0000       0.089546         2.4367
 182   0.0000       0.097326         2.6484
 183   0.0000       0.105317         2.8658

MULLIKEN ATOMIC CHARGES
-----------------------
   0 C :    0.227036
   1 N :   -0.422295
   2 C :   -0.067532
   3 N :   -0.342424
   4 C :   -0.080540
   5 N :   -0.564555
   6 C :   -0.028552
   7 N :   -0.337192
   8 C :    0.223029
   9 N :   -0.565322
  10 C :    0.107313
  11 N :   -0.438568
  12 C :   -0.059458
  13 N :   -0.448438
  14 C :    0.222276
  15 N :   -0.441286
  16 C :    0.251777
  17 C :   -0.035685
  18 C :   -0.177614
  19 C :    0.226594
  20 C :    0.194262
  21 C :   -0.066468
  22 C :   -0.088059
  23 C :   -0.062871
  24 C :    0.216340
  25 C :    0.114273
  26 C :   -0.069057
  27 C :    0.241477
  28 C :   -0.042270
  29 C :   -0.193624
  30 C :    0.224135
  31 C :    0.193433
  32 C :   -0.064811
  33 C :   -0.098000
  34 C :   -0.049897
  35 C :    0.183802
  36 C :    0.119449
  37 C :   -0.069470
  38 C :    0.243316
  39 C :   -0.064857
  40 C :   -0.200361
  41 C :    0.216428
  42 C :    0.210180
  43 C :   -0.076509
  44 C :   -0.090537
  45 C :   -0.041786
  46 C :    0.189367
  47 C :    0.116391
  48 C :   -0.081239
  49 C :    0.212010
  50 C :   -0.063477
  51 C :   -0.190128
  52 H :    0.074045
  53 H :   -0.009317
  54 H :    0.060446
  55 H :    0.073117
  56 H :    0.077324
  57 H :    0.070639
  58 H :    0.069103
  59 H :   -0.025335
  60 H :    0.059608
  61 H :    0.175851
  62 H :    0.169236
  63 H :    0.054623
  64 H :   -0.031630
  65 H :    0.042837
  66 H :    0.056439
  67 H :    0.060193
  68 H :    0.057010
  69 H :    0.059532
  70 H :   -0.016846
  71 H :    0.047933
  72 H :    0.041813
  73 H :   -0.018434
  74 H :    0.033396
  75 H :    0.040533
  76 H :    0.049798
  77 H :    0.048797
  78 H :    0.047978
  79 H :   -0.011890
  80 H :    0.033177
  81 H :    0.051326
  82 H :   -0.023425
  83 H :    0.042904
  84 H :    0.050342
  85 H :    0.055533
  86 H :    0.056428
  87 H :    0.055120
  88 H :   -0.029050
  89 H :    0.040836
Sum of atomic charges:   -0.0000000

LOEWDIN ATOMIC CHARGES
----------------------
   0 C :    0.027314
   1 N :    0.175894
   2 C :   -0.100335
   3 N :    0.172630
   4 C :    0.091835
   5 N :   -0.145090
   6 C :   -0.010393
   7 N :    0.177440
   8 C :    0.024841
   9 N :   -0.138459
  10 C :    0.036882
  11 N :    0.142151
  12 C :   -0.097176
  13 N :    0.119931
  14 C :   -0.059064
  15 N :    0.135919
  16 C :   -0.023780
  17 C :   -0.014145
  18 C :   -0.116634
  19 C :   -0.089492
  20 C :   -0.012259
  21 C :   -0.099675
  22 C :    0.038826
  23 C :   -0.030363
  24 C :    0.007400
  25 C :    0.029887
  26 C :   -0.096250
  27 C :   -0.064859
  28 C :   -0.015670
  29 C :   -0.115108
  30 C :   -0.061297
  31 C :   -0.019881
  32 C :   -0.100118
  33 C :    0.004307
  34 C :   -0.024860
  35 C :   -0.028412
  36 C :    0.024609
  37 C :   -0.107656
  38 C :   -0.031141
  39 C :   -0.032605
  40 C :   -0.112165
  41 C :   -0.094917
  42 C :   -0.000448
  43 C :   -0.112153
  44 C :    0.030073
  45 C :   -0.016176
  46 C :   -0.018558
  47 C :    0.028506
  48 C :   -0.113642
  49 C :   -0.110920
  50 C :   -0.030638
  51 C :   -0.109338
  52 H :    0.038312
  53 H :    0.006582
  54 H :    0.052445
  55 H :    0.038358
  56 H :    0.035905
  57 H :    0.037126
  58 H :    0.037167
  59 H :    0.000635
  60 H :    0.052125
  61 H :    0.061994
  62 H :    0.058503
  63 H :    0.029701
  64 H :   -0.004033
  65 H :    0.042858
  66 H :    0.030500
  67 H :    0.027316
  68 H :    0.031498
  69 H :    0.031567
  70 H :    0.001493
  71 H :    0.045870
  72 H :    0.024025
  73 H :    0.002155
  74 H :    0.039417
  75 H :    0.023047
  76 H :    0.021848
  77 H :    0.027182
  78 H :    0.026844
  79 H :    0.005445
  80 H :    0.038512
  81 H :    0.028300
  82 H :   -0.001609
  83 H :    0.044037
  84 H :    0.027396
  85 H :    0.024893
  86 H :    0.030408
  87 H :    0.030399
  88 H :   -0.004561
  89 H :    0.041573

  Mayer bond orders larger than 0.100000
B(  0-C ,  1-N ) :   1.1759 B(  0-C , 17-C ) :   1.5539 B(  0-C , 52-H ) :   0.9676
B(  1-N ,  8-C ) :   1.1696 B(  1-N , 10-C ) :   0.9373 B(  2-C , 12-C ) :   1.5656
B(  2-C , 16-C ) :   1.2880 B(  2-C , 53-H ) :   0.9789 B(  3-N , 14-C ) :   1.1811
B(  3-N , 16-C ) :   1.2020 B(  3-N , 61-H ) :   0.8963 B(  4-C ,  6-C ) :   1.3289
B(  4-C , 17-C ) :   1.3326 B(  4-C , 18-C ) :   1.1101 B(  5-N , 19-C ) :   1.3784
B(  5-N , 27-C ) :   1.4380 B(  6-C ,  8-C ) :   1.5582 B(  6-C , 54-H ) :   0.9711
B(  7-N , 30-C ) :   1.1856 B(  7-N , 38-C ) :   1.2125 B(  7-N , 62-H ) :   0.9004
B(  8-C , 55-H ) :   0.9687 B(  9-N , 41-C ) :   1.4264 B(  9-N , 49-C ) :   1.4008
B( 10-C , 56-H ) :   0.9765 B( 10-C , 57-H ) :   0.9814 B( 10-C , 58-H ) :   0.9820
B( 11-N , 20-C ) :   1.1069 B( 11-N , 24-C ) :   1.1347 B( 11-N , 25-C ) :   0.9598
B( 12-C , 14-C ) :   1.2889 B( 12-C , 59-H ) :   0.9776 B( 13-N , 31-C ) :   1.0931
B( 13-N , 35-C ) :   1.0827 B( 13-N , 36-C ) :   0.9765 B( 14-C , 18-C ) :   1.2462
B( 15-N , 42-C ) :   1.1239 B( 15-N , 46-C ) :   1.0972 B( 15-N , 47-C ) :   0.9649
B( 16-C , 51-C ) :   1.2330 B( 17-C , 60-H ) :   0.9711 B( 18-C , 19-C ) :   1.2855
B( 19-C , 21-C ) :   1.1781 B( 20-C , 28-C ) :   1.6244 B( 20-C , 63-H ) :   0.9706
B( 21-C , 26-C ) :   1.6693 B( 21-C , 64-H ) :   0.9729 B( 22-C , 23-C ) :   1.2651
B( 22-C , 28-C ) :   1.2812 B( 22-C , 29-C ) :   1.2462 B( 23-C , 24-C ) :   1.6275
B( 23-C , 65-H ) :   0.9718 B( 24-C , 66-H ) :   0.9690 B( 25-C , 67-H ) :   0.9763
B( 25-C , 68-H ) :   0.9832 B( 25-C , 69-H ) :   0.9819 B( 26-C , 27-C ) :   1.1831
B( 26-C , 70-H ) :   0.9749 B( 27-C , 29-C ) :   1.2366 B( 28-C , 71-H ) :   0.9710
B( 29-C , 30-C ) :   1.1881 B( 30-C , 32-C ) :   1.3383 B( 31-C , 39-C ) :   1.6702
B( 31-C , 72-H ) :   0.9706 B( 32-C , 37-C ) :   1.5209 B( 32-C , 73-H ) :   0.9772
B( 33-C , 34-C ) :   1.2443 B( 33-C , 39-C ) :   1.2360 B( 33-C , 40-C ) :   1.3269
B( 34-C , 35-C ) :   1.6681 B( 34-C , 74-H ) :   0.9708 B( 35-C , 75-H ) :   0.9706
B( 36-C , 76-H ) :   0.9757 B( 36-C , 77-H ) :   0.9825 B( 36-C , 78-H ) :   0.9836
B( 37-C , 38-C ) :   1.3345 B( 37-C , 79-H ) :   0.9789 B( 38-C , 40-C ) :   1.1880
B( 39-C , 80-H ) :   0.9720 B( 40-C , 41-C ) :   1.1810 B( 41-C , 43-C ) :   1.2467
B( 42-C , 50-C ) :   1.6392 B( 42-C , 81-H ) :   0.9696 B( 43-C , 48-C ) :   1.6043
B( 43-C , 82-H ) :   0.9750 B( 44-C , 45-C ) :   1.2783 B( 44-C , 50-C ) :   1.2547
B( 44-C , 51-C ) :   1.2515 B( 45-C , 46-C ) :   1.6324 B( 45-C , 83-H ) :   0.9705
B( 46-C , 84-H ) :   0.9707 B( 47-C , 85-H ) :   0.9760 B( 47-C , 86-H ) :   0.9826
B( 47-C , 87-H ) :   0.9829 B( 48-C , 49-C ) :   1.2422 B( 48-C , 88-H ) :   0.9728
B( 49-C , 51-C ) :   1.1955 B( 50-C , 89-H ) :   0.9719

MP2 TOTAL ENERGY:    -2130.889858943 Eh
FINAL SINGLE POINT ENERGY     -2130.889858943111

DIPOLE MOMENT
-------------
                                X             Y             Z
Electronic contribution:     -3.39479       3.45230      -0.17138
Nuclear contribution   :     -0.01589       0.17506       0.21789
                        -----------------------------------------
Total Dipole Moment    :     -3.41068       3.62736       0.04651
                        -----------------------------------------
Magnitude (a.u.)       :      4.97922
Magnitude (Debye)      :     12.65618

Rotational constants in cm-1:     0.001498     0.001473     0.000763
Rotational constants in MHz :    44.900075    44.151327    22.865668

                             ****ORCA TERMINATED NORMALLY****
TOTAL RUN TIME: 0 days 1 hours 13 minutes 29 seconds 39 msec
