                         Program Version 5.0.4 -  RELEASE  -
|  1> ! PAL2
|  2> ! mp2 cc-pvdz TightSCF  NoKeepInts
|  3>
|  4> %scf
|  5>   MaxCore 2000
|  6> end
|  7> %mp2
|  8>   MaxCore 2000
|  9> end
| 10> * xyz 0 1
| 11>    C       -4.30000         5.65200        -1.02300
| 12>    C        1.47400         4.04100         0.05700
| 13>    C       -2.80200         4.09300         0.04900
| 14>    C       -2.88000         4.89000         1.20200
| 15>    C       -3.66000         6.02900         1.20600
| 16>    C       -5.20900         7.60400         0.15200
| 17>    C        0.13200         4.30700         0.06100
| 18>    C       -0.56900         3.05600         0.04700
| 19>    C        1.64900         2.61800         0.02300
| 20>    C       -3.53800         4.50100        -1.07400
| 21>    N       -4.35300         6.39800         0.10300
| 22>    N        0.38800         2.06700         0.02500
| 23>    N       -2.01000         0.39500        -0.07500
| 24>    N       -0.38800        -2.07400        -0.02700
| 25>    N        2.01000        -0.40100         0.06500
| 26>    C       -1.96000         2.86100         0.02400
| 27>    C       -2.62300         1.61500        -0.01800
| 28>    C       -5.57300        -4.32900         1.06600
| 29>    C       -4.07300         1.47100         0.05600
| 30>    C       -4.10600        -2.75600        -0.02600
| 31>    C       -4.99500        -2.75700        -1.11100
| 32>    C       -6.13200        -3.54200        -1.07600
| 33>    C       -7.65100        -5.11300         0.04000
| 34>    C       -4.32400         0.14100         0.03700
| 35>    C       -3.02500        -0.52000        -0.04800
| 36>    C       -4.42200        -3.56600         1.07500
| 37>    N       -6.40700        -4.31300         0.00100
| 38>    C       -2.86700        -1.92200        -0.04000
| 39>    C       -1.65000        -2.62400        -0.02700
| 40>    C        3.56800        -6.14200        -1.04000
| 41>    C       -1.47600        -4.04900        -0.03400
| 42>    C        2.80300        -4.09900        -0.00800
| 43>    C        3.65700        -4.38400         1.06900
| 44>    C        4.42700        -5.53000         1.05900
| 45>    C        5.24500        -7.58800         0.01400
| 46>    C       -0.13400        -4.31500        -0.02200
| 47>    C        0.56800        -3.06400        -0.02700
| 48>    C        2.77500        -5.01200        -1.07400
| 49>    N        4.37600        -6.39100         0.01700
| 50>    C        1.95900        -2.86900        -0.00900
| 51>    C        2.62100        -1.62200         0.00900
| 52>    C        5.54300         4.33900        -1.13000
| 53>    C        4.07000        -1.47900        -0.09400
| 54>    C        4.10400         2.75100        -0.02100
| 55>    C        5.02700         2.72900         1.03600
| 56>    C        6.16600         3.50900         0.97800
| 57>    C        7.61900         5.15300        -0.11500
| 58>    C        4.32100        -0.14800        -0.09200
| 59>    C        3.02500         0.51400         0.01500
| 60>    C        4.38700         3.58200        -1.11500
| 61>    C        2.86600         1.91600         0.01300
| 62>    N        6.41300         4.29600        -0.09500
| 63>    H       -4.87400         6.01100        -1.86900
| 64>    H        2.27400         4.76600         0.08100
| 65>    H       -2.34200         4.62300         2.10300
| 66>    H       -3.75800         6.67000         2.07300
| 67>    H       -6.18900         7.32800         0.54800
| 68>    H       -4.73800         8.34300         0.79900
| 69>    H       -5.31200         8.00100        -0.85700
| 70>    H       -0.33200         5.28200         0.06900
| 71>    H       -3.50800         3.93600        -1.99900
| 72>    H        0.18200         1.07200         0.00500
| 73>    H       -0.18300        -1.08000        -0.02100
| 74>    H       -5.86400        -4.96200         1.89500
| 75>    H       -4.79400         2.27200         0.13900
| 76>    H       -4.80000        -2.16000        -1.99400
| 77>    H       -6.84100        -3.58200        -1.89300
| 78>    H       -8.42800        -4.53600         0.54600
| 79>    H       -7.95600        -5.33700        -0.98100
| 80>    H       -7.45600        -6.03700         0.58400
| 81>    H       -5.28700        -0.34400         0.10000
| 82>    H       -3.78000        -3.60100         1.94700
| 83>    H        3.58700        -6.86800        -1.84300
| 84>    H       -2.27600        -4.77400        -0.05000
| 85>    H        3.71400        -3.72400         1.92600
| 86>    H        5.09200        -5.79500         1.87100
| 87>    H        6.20500        -7.32900        -0.43900
| 88>    H        5.39300        -7.91700         1.04200
| 89>    H        4.75900        -8.37300        -0.56400
| 90>    H        0.32900        -5.29000        -0.00800
| 91>    H        2.14600        -4.84200        -1.94000
| 92>    H        5.80800         4.98600        -1.95600
| 93>    H        4.78800        -2.28100        -0.18500
| 94>    H        4.86000         2.11400         1.91200
| 95>    H        6.90100         3.53100         1.77200
| 96>    H        7.38300         6.10900         0.35600
| 97>    H        8.41400         4.65200         0.43500
| 98>    H        7.92100         5.31000        -1.15000
| 99>    H        5.28300         0.33600        -0.17900
|100>    H        3.72000         3.63200        -1.96700
|101> *
|102>
|103>                          ****END OF INPUT****

CARTESIAN COORDINATES (ANGSTROEM)
---------------------------------
  C     -4.300000    5.652000   -1.023000
  C      1.474000    4.041000    0.057000
  C     -2.802000    4.093000    0.049000
  C     -2.880000    4.890000    1.202000
  C     -3.660000    6.029000    1.206000
  C     -5.209000    7.604000    0.152000
  C      0.132000    4.307000    0.061000
  C     -0.569000    3.056000    0.047000
  C      1.649000    2.618000    0.023000
  C     -3.538000    4.501000   -1.074000
  N     -4.353000    6.398000    0.103000
  N      0.388000    2.067000    0.025000
  N     -2.010000    0.395000   -0.075000
  N     -0.388000   -2.074000   -0.027000
  N      2.010000   -0.401000    0.065000
  C     -1.960000    2.861000    0.024000
  C     -2.623000    1.615000   -0.018000
  C     -5.573000   -4.329000    1.066000
  C     -4.073000    1.471000    0.056000
  C     -4.106000   -2.756000   -0.026000
  C     -4.995000   -2.757000   -1.111000
  C     -6.132000   -3.542000   -1.076000
  C     -7.651000   -5.113000    0.040000
  C     -4.324000    0.141000    0.037000
  C     -3.025000   -0.520000   -0.048000
  C     -4.422000   -3.566000    1.075000
  N     -6.407000   -4.313000    0.001000
  C     -2.867000   -1.922000   -0.040000
  C     -1.650000   -2.624000   -0.027000
  C      3.568000   -6.142000   -1.040000
  C     -1.476000   -4.049000   -0.034000
  C      2.803000   -4.099000   -0.008000
  C      3.657000   -4.384000    1.069000
  C      4.427000   -5.530000    1.059000
  C      5.245000   -7.588000    0.014000
  C     -0.134000   -4.315000   -0.022000
  C      0.568000   -3.064000   -0.027000
  C      2.775000   -5.012000   -1.074000
  N      4.376000   -6.391000    0.017000
  C      1.959000   -2.869000   -0.009000
  C      2.621000   -1.622000    0.009000
  C      5.543000    4.339000   -1.130000
  C      4.070000   -1.479000   -0.094000
  C      4.104000    2.751000   -0.021000
  C      5.027000    2.729000    1.036000
  C      6.166000    3.509000    0.978000
  C      7.619000    5.153000   -0.115000
  C      4.321000   -0.148000   -0.092000
  C      3.025000    0.514000    0.015000
  C      4.387000    3.582000   -1.115000
  C      2.866000    1.916000    0.013000
  N      6.413000    4.296000   -0.095000
  H     -4.874000    6.011000   -1.869000
  H      2.274000    4.766000    0.081000
  H     -2.342000    4.623000    2.103000
  H     -3.758000    6.670000    2.073000
  H     -6.189000    7.328000    0.548000
  H     -4.738000    8.343000    0.799000
  H     -5.312000    8.001000   -0.857000
  H     -0.332000    5.282000    0.069000
  H     -3.508000    3.936000   -1.999000
  H      0.182000    1.072000    0.005000
  H     -0.183000   -1.080000   -0.021000
  H     -5.864000   -4.962000    1.895000
  H     -4.794000    2.272000    0.139000
  H     -4.800000   -2.160000   -1.994000
  H     -6.841000   -3.582000   -1.893000
  H     -8.428000   -4.536000    0.546000
  H     -7.956000   -5.337000   -0.981000
  H     -7.456000   -6.037000    0.584000
  H     -5.287000   -0.344000    0.100000
  H     -3.780000   -3.601000    1.947000
  H      3.587000   -6.868000   -1.843000
  H     -2.276000   -4.774000   -0.050000
  H      3.714000   -3.724000    1.926000
  H      5.092000   -5.795000    1.871000
  H      6.205000   -7.329000   -0.439000
  H      5.393000   -7.917000    1.042000
  H      4.759000   -8.373000   -0.564000
  H      0.329000   -5.290000   -0.008000
  H      2.146000   -4.842000   -1.940000
  H      5.808000    4.986000   -1.956000
  H      4.788000   -2.281000   -0.185000
  H      4.860000    2.114000    1.912000
  H      6.901000    3.531000    1.772000
  H      7.383000    6.109000    0.356000
  H      8.414000    4.652000    0.435000
  H      7.921000    5.310000   -1.150000
  H      5.283000    0.336000   -0.179000
  H      3.720000    3.632000   -1.967000

 Total Charge           Charge          ....    0
 Multiplicity           Mult            ....    1
 Number of Electrons    NEL             ....  358
 Basis Dimension        Dim             ....  918

ORBITAL ENERGIES
----------------

  NO   OCC          E(Eh)            E(eV)
   0   2.0000     -15.659184      -426.1081
   1   2.0000     -15.638967      -425.5579
   2   2.0000     -15.625934      -425.2033
   3   2.0000     -15.612282      -424.8318
   4   2.0000     -15.516634      -422.2291
   5   2.0000     -15.512994      -422.1300
   6   2.0000     -15.446664      -420.3251
   7   2.0000     -15.436513      -420.0489
   8   2.0000     -11.314525      -307.8839
   9   2.0000     -11.310830      -307.7833
  10   2.0000     -11.309648      -307.7512
  11   2.0000     -11.302430      -307.5548
  12   2.0000     -11.295990      -307.3795
  13   2.0000     -11.294092      -307.3279
  14   2.0000     -11.292270      -307.2783
  15   2.0000     -11.285812      -307.1026
  16   2.0000     -11.284751      -307.0737
  17   2.0000     -11.281080      -306.9738
  18   2.0000     -11.273397      -306.7647
  19   2.0000     -11.270118      -306.6755
  20   2.0000     -11.260172      -306.4049
  21   2.0000     -11.247779      -306.0676
  22   2.0000     -11.247409      -306.0576
  23   2.0000     -11.242258      -305.9174
  24   2.0000     -11.234005      -305.6928
  25   2.0000     -11.233233      -305.6718
  26   2.0000     -11.230092      -305.5863
  27   2.0000     -11.224099      -305.4233
  28   2.0000     -11.223977      -305.4199
  29   2.0000     -11.217874      -305.2539
  30   2.0000     -11.214638      -305.1658
  31   2.0000     -11.213815      -305.1434
  32   2.0000     -11.199471      -304.7531
  33   2.0000     -11.199398      -304.7511
  34   2.0000     -11.192208      -304.5555
  35   2.0000     -11.192070      -304.5517
  36   2.0000     -11.179564      -304.2114
  37   2.0000     -11.179526      -304.2104
  38   2.0000     -11.176428      -304.1261
  39   2.0000     -11.169973      -303.9504
  40   2.0000     -11.163656      -303.7785
  41   2.0000     -11.161337      -303.7154
  42   2.0000     -11.159708      -303.6711
  43   2.0000     -11.159384      -303.6623
  44   2.0000     -11.157260      -303.6045
  45   2.0000     -11.156424      -303.5817
  46   2.0000     -11.152506      -303.4751
  47   2.0000     -11.152071      -303.4633
  48   2.0000     -11.149487      -303.3930
  49   2.0000     -11.147709      -303.3446
  50   2.0000     -11.130841      -302.8856
  51   2.0000     -11.128827      -302.8308
  52   2.0000      -1.342200       -36.5231
  53   2.0000      -1.325470       -36.0679
  54   2.0000      -1.313974       -35.7551
  55   2.0000      -1.302603       -35.4456
  56   2.0000      -1.216484       -33.1022
  57   2.0000      -1.210280       -32.9334
  58   2.0000      -1.165721       -31.7209
  59   2.0000      -1.149254       -31.2728
  60   2.0000      -1.127053       -30.6687
  61   2.0000      -1.113012       -30.2866
  62   2.0000      -1.103330       -30.0231
  63   2.0000      -1.092818       -29.7371
  64   2.0000      -1.064688       -28.9716
  65   2.0000      -1.049239       -28.5513
  66   2.0000      -1.038533       -28.2599
  67   2.0000      -1.029596       -28.0167
  68   2.0000      -1.028070       -27.9752
  69   2.0000      -1.012998       -27.5651
  70   2.0000      -1.006265       -27.3819
  71   2.0000      -0.994060       -27.0497
  72   2.0000      -0.981200       -26.6998
  73   2.0000      -0.974454       -26.5162
  74   2.0000      -0.971351       -26.4318
  75   2.0000      -0.960532       -26.1374
  76   2.0000      -0.948669       -25.8146
  77   2.0000      -0.948225       -25.8025
  78   2.0000      -0.931569       -25.3493
  79   2.0000      -0.921599       -25.0780
  80   2.0000      -0.893911       -24.3245
  81   2.0000      -0.887300       -24.1446
  82   2.0000      -0.875973       -23.8364
  83   2.0000      -0.865833       -23.5605
  84   2.0000      -0.861394       -23.4397
  85   2.0000      -0.856575       -23.3086
  86   2.0000      -0.851392       -23.1675
  87   2.0000      -0.836361       -22.7586
  88   2.0000      -0.822275       -22.3752
  89   2.0000      -0.797003       -21.6875
  90   2.0000      -0.795594       -21.6492
  91   2.0000      -0.741587       -20.1796
  92   2.0000      -0.732296       -19.9268
  93   2.0000      -0.726893       -19.7798
  94   2.0000      -0.722953       -19.6726
  95   2.0000      -0.716097       -19.4860
  96   2.0000      -0.710073       -19.3221
  97   2.0000      -0.705879       -19.2079
  98   2.0000      -0.699414       -19.0320
  99   2.0000      -0.692417       -18.8416
 100   2.0000      -0.690808       -18.7979
 101   2.0000      -0.682254       -18.5651
 102   2.0000      -0.679746       -18.4968
 103   2.0000      -0.672048       -18.2874
 104   2.0000      -0.670447       -18.2438
 105   2.0000      -0.668759       -18.1979
 106   2.0000      -0.662498       -18.0275
 107   2.0000      -0.660636       -17.9768
 108   2.0000      -0.657072       -17.8798
 109   2.0000      -0.656190       -17.8558
 110   2.0000      -0.650424       -17.6989
 111   2.0000      -0.647535       -17.6203
 112   2.0000      -0.643876       -17.5208
 113   2.0000      -0.638226       -17.3670
 114   2.0000      -0.632829       -17.2202
 115   2.0000      -0.630149       -17.1472
 116   2.0000      -0.622942       -16.9511
 117   2.0000      -0.616330       -16.7712
 118   2.0000      -0.613435       -16.6924
 119   2.0000      -0.608146       -16.5485
 120   2.0000      -0.606155       -16.4943
 121   2.0000      -0.598890       -16.2966
 122   2.0000      -0.597553       -16.2602
 123   2.0000      -0.596170       -16.2226
 124   2.0000      -0.592333       -16.1182
 125   2.0000      -0.584693       -15.9103
 126   2.0000      -0.576290       -15.6816
 127   2.0000      -0.570702       -15.5296
 128   2.0000      -0.567679       -15.4473
 129   2.0000      -0.562914       -15.3177
 130   2.0000      -0.555272       -15.1097
 131   2.0000      -0.548211       -14.9176
 132   2.0000      -0.540374       -14.7043
 133   2.0000      -0.534138       -14.5346
 134   2.0000      -0.531759       -14.4699
 135   2.0000      -0.530556       -14.4372
 136   2.0000      -0.524956       -14.2848
 137   2.0000      -0.522011       -14.2046
 138   2.0000      -0.518857       -14.1188
 139   2.0000      -0.514644       -14.0042
 140   2.0000      -0.508983       -13.8501
 141   2.0000      -0.505860       -13.7652
 142   2.0000      -0.502275       -13.6676
 143   2.0000      -0.499524       -13.5927
 144   2.0000      -0.498691       -13.5701
 145   2.0000      -0.496162       -13.5013
 146   2.0000      -0.493447       -13.4274
 147   2.0000      -0.492258       -13.3950
 148   2.0000      -0.486929       -13.2500
 149   2.0000      -0.466120       -12.6838
 150   2.0000      -0.460809       -12.5393
 151   2.0000      -0.453041       -12.3279
 152   2.0000      -0.448080       -12.1929
 153   2.0000      -0.443000       -12.0546
 154   2.0000      -0.441221       -12.0062
 155   2.0000      -0.440246       -11.9797
 156   2.0000      -0.431942       -11.7538
 157   2.0000      -0.424882       -11.5616
 158   2.0000      -0.392465       -10.6795
 159   2.0000      -0.385192       -10.4816
 160   2.0000      -0.373994       -10.1769
 161   2.0000      -0.372428       -10.1343
 162   2.0000      -0.367521       -10.0008
 163   2.0000      -0.359615        -9.7856
 164   2.0000      -0.350454        -9.5363
 165   2.0000      -0.341764        -9.2999
 166   2.0000      -0.338246        -9.2041
 167   2.0000      -0.334885        -9.1127
 168   2.0000      -0.322443        -8.7741
 169   2.0000      -0.299876        -8.1601
 170   2.0000      -0.294433        -8.0119
 171   2.0000      -0.287431        -7.8214
 172   2.0000      -0.285783        -7.7765
 173   2.0000      -0.258413        -7.0318
 174   2.0000      -0.241355        -6.5676
 175   2.0000      -0.186156        -5.0656
 176   2.0000      -0.175819        -4.7843
 177   2.0000      -0.063001        -1.7143
 178   2.0000      -0.052593        -1.4311
 179   0.0000       0.032971         0.8972
 180   0.0000       0.067245         1.8298
 181   0.0000       0.092232         2.5097
 182   0.0000       0.095892         2.6094
 183   0.0000       0.121089         3.2950

MULLIKEN ATOMIC CHARGES
-----------------------
   0 C :    0.215696
   1 N :   -0.431619
   2 C :   -0.067086
   3 N :   -0.340559
   4 C :   -0.084642
   5 N :   -0.563635
   6 C :   -0.039617
   7 N :   -0.337548
   8 C :    0.212465
   9 N :   -0.564185
  10 C :    0.111211
  11 N :   -0.437537
  12 C :   -0.062404
  13 N :   -0.444603
  14 C :    0.227989
  15 N :   -0.440809
  16 C :    0.244397
  17 C :   -0.044517
  18 C :   -0.185106
  19 C :    0.226106
  20 C :    0.201693
  21 C :   -0.068683
  22 C :   -0.085621
  23 C :   -0.056351
  24 C :    0.212939
  25 C :    0.113745
  26 C :   -0.071851
  27 C :    0.233118
  28 C :   -0.046445
  29 C :   -0.189834
  30 C :    0.229221
  31 C :    0.201252
  32 C :   -0.065258
  33 C :   -0.090769
  34 C :   -0.049788
  35 C :    0.192641
  36 C :    0.117079
  37 C :   -0.068067
  38 C :    0.240655
  39 C :   -0.063479
  40 C :   -0.195127
  41 C :    0.217981
  42 C :    0.207390
  43 C :   -0.075196
  44 C :   -0.089029
  45 C :   -0.046732
  46 C :    0.196335
  47 C :    0.115912
  48 C :   -0.078759
  49 C :    0.218236
  50 C :   -0.058308
  51 C :   -0.190312
  52 H :    0.064742
  53 H :   -0.011905
  54 H :    0.052803
  55 H :    0.063669
  56 H :    0.068689
  57 H :    0.063852
  58 H :    0.062612
  59 H :   -0.020101
  60 H :    0.051279
  61 H :    0.174334
  62 H :    0.171008
  63 H :    0.056435
  64 H :   -0.026908
  65 H :    0.045205
  66 H :    0.057768
  67 H :    0.062194
  68 H :    0.058011
  69 H :    0.059780
  70 H :   -0.020909
  71 H :    0.048823
  72 H :    0.048301
  73 H :   -0.016874
  74 H :    0.039324
  75 H :    0.047151
  76 H :    0.055199
  77 H :    0.052932
  78 H :    0.052100
  79 H :   -0.012617
  80 H :    0.039300
  81 H :    0.052688
  82 H :   -0.023591
  83 H :    0.043235
  84 H :    0.051906
  85 H :    0.057377
  86 H :    0.056541
  87 H :    0.056045
  88 H :   -0.026178
  89 H :    0.043188
Sum of atomic charges:    0.0000000

LOEWDIN ATOMIC CHARGES
----------------------
   0 C :    0.011690
   1 N :    0.157147
   2 C :   -0.100957
   3 N :    0.174890
   4 C :    0.063103
   5 N :   -0.141906
   6 C :   -0.015599
   7 N :    0.177488
   8 C :    0.009596
   9 N :   -0.138546
  10 C :    0.033129
  11 N :    0.144669
  12 C :   -0.099163
  13 N :    0.129636
  14 C :   -0.052733
  15 N :    0.137650
  16 C :   -0.034181
  17 C :   -0.018943
  18 C :   -0.112756
  19 C :   -0.088571
  20 C :   -0.004977
  21 C :   -0.101566
  22 C :    0.043664
  23 C :   -0.025429
  24 C :    0.005106
  25 C :    0.030440
  26 C :   -0.100573
  27 C :   -0.078703
  28 C :   -0.017555
  29 C :   -0.111543
  30 C :   -0.054607
  31 C :   -0.010361
  32 C :   -0.099845
  33 C :    0.020335
  34 C :   -0.022457
  35 C :   -0.017898
  36 C :    0.026864
  37 C :   -0.104444
  38 C :   -0.035558
  39 C :   -0.029402
  40 C :   -0.110525
  41 C :   -0.094911
  42 C :   -0.002248
  43 C :   -0.108858
  44 C :    0.033218
  45 C :   -0.018913
  46 C :   -0.011854
  47 C :    0.028962
  48 C :   -0.110220
  49 C :   -0.101331
  50 C :   -0.026809
  51 C :   -0.109356
  52 H :    0.034125
  53 H :    0.005341
  54 H :    0.048343
  55 H :    0.034073
  56 H :    0.031612
  57 H :    0.033728
  58 H :    0.034070
  59 H :    0.002337
  60 H :    0.047833
  61 H :    0.061264
  62 H :    0.059478
  63 H :    0.030751
  64 H :   -0.002470
  65 H :    0.044238
  66 H :    0.030907
  67 H :    0.028276
  68 H :    0.031970
  69 H :    0.031746
  70 H :   -0.000468
  71 H :    0.046038
  72 H :    0.026999
  73 H :    0.002880
  74 H :    0.041879
  75 H :    0.026120
  76 H :    0.024613
  77 H :    0.029112
  78 H :    0.028765
  79 H :    0.005035
  80 H :    0.041134
  81 H :    0.028757
  82 H :   -0.001786
  83 H :    0.043909
  84 H :    0.028324
  85 H :    0.025776
  86 H :    0.030510
  87 H :    0.030839
  88 H :   -0.003186
  89 H :    0.042839

  Mayer bond orders larger than 0.100000
B(  0-C ,  1-N ) :   1.1464 B(  0-C , 17-C ) :   1.5928 B(  0-C , 52-H ) :   0.9685
B(  1-N ,  8-C ) :   1.1394 B(  1-N , 10-C ) :   0.9496 B(  2-C , 12-C ) :   1.5509
B(  2-C , 16-C ) :   1.3047 B(  2-C , 53-H ) :   0.9785 B(  3-N , 14-C ) :   1.1905
B(  3-N , 16-C ) :   1.1991 B(  3-N , 61-H ) :   0.8974 B(  4-C ,  6-C ) :   1.2975
B(  4-C , 17-C ) :   1.3017 B(  4-C , 18-C ) :   1.1812 B(  5-N , 19-C ) :   1.3967
B(  5-N , 27-C ) :   1.4234 B(  6-C ,  8-C ) :   1.5978 B(  6-C , 54-H ) :   0.9713
B(  7-N , 30-C ) :   1.1887 B(  7-N , 38-C ) :   1.2079 B(  7-N , 62-H ) :   0.8994
B(  8-C , 55-H ) :   0.9697 B(  9-N , 41-C ) :   1.4176 B(  9-N , 49-C ) :   1.4085
B( 10-C , 56-H ) :   0.9763 B( 10-C , 57-H ) :   0.9819 B( 10-C , 58-H ) :   0.9825
B( 11-N , 20-C ) :   1.1171 B( 11-N , 24-C ) :   1.1318 B( 11-N , 25-C ) :   0.9580
B( 12-C , 14-C ) :   1.3056 B( 12-C , 59-H ) :   0.9780 B( 13-N , 31-C ) :   1.1068
B( 13-N , 35-C ) :   1.0973 B( 13-N , 36-C ) :   0.9691 B( 14-C , 18-C ) :   1.2248
B( 15-N , 42-C ) :   1.1208 B( 15-N , 46-C ) :   1.1061 B( 15-N , 47-C ) :   0.9634
B( 16-C , 51-C ) :   1.2178 B( 17-C , 60-H ) :   0.9713 B( 18-C , 19-C ) :   1.2525
B( 19-C , 21-C ) :   1.1950 B( 20-C , 28-C ) :   1.6216 B( 20-C , 63-H ) :   0.9704
B( 21-C , 26-C ) :   1.6551 B( 21-C , 64-H ) :   0.9737 B( 22-C , 23-C ) :   1.2751
B( 22-C , 28-C ) :   1.2801 B( 22-C , 29-C ) :   1.2364 B( 23-C , 24-C ) :   1.6211
B( 23-C , 65-H ) :   0.9714 B( 24-C , 66-H ) :   0.9690 B( 25-C , 67-H ) :   0.9763
B( 25-C , 68-H ) :   0.9831 B( 25-C , 69-H ) :   0.9820 B( 26-C , 27-C ) :   1.1960
B( 26-C , 70-H ) :   0.9741 B( 27-C , 29-C ) :   1.2324 B( 28-C , 71-H ) :   0.9711
B( 29-C , 30-C ) :   1.2000 B( 30-C , 32-C ) :   1.3256 B( 31-C , 39-C ) :   1.6523
B( 31-C , 72-H ) :   0.9702 B( 32-C , 37-C ) :   1.5330 B( 32-C , 73-H ) :   0.9774
B( 33-C , 34-C ) :   1.2582 B( 33-C , 39-C ) :   1.2502 B( 33-C , 40-C ) :   1.2909
B( 34-C , 35-C ) :   1.6498 B( 34-C , 74-H ) :   0.9707 B( 35-C , 75-H ) :   0.9702
B( 36-C , 76-H ) :   0.9760 B( 36-C , 77-H ) :   0.9823 B( 36-C , 78-H ) :   0.9834
B( 37-C , 38-C ) :   1.3245 B( 37-C , 79-H ) :   0.9784 B( 38-C , 40-C ) :   1.1978
B( 39-C , 80-H ) :   0.9718 B( 40-C , 41-C ) :   1.1974 B( 41-C , 43-C ) :   1.2328
B( 42-C , 50-C ) :   1.6357 B( 42-C , 81-H ) :   0.9696 B( 43-C , 48-C ) :   1.6183
B( 43-C , 82-H ) :   0.9744 B( 44-C , 45-C ) :   1.2753 B( 44-C , 50-C ) :   1.2611
B( 44-C , 51-C ) :   1.2534 B( 45-C , 46-C ) :   1.6318 B( 45-C , 83-H ) :   0.9708
B( 46-C , 84-H ) :   0.9705 B( 47-C , 85-H ) :   0.9761 B( 47-C , 86-H ) :   0.9827
B( 47-C , 87-H ) :   0.9827 B( 48-C , 49-C ) :   1.2301 B( 48-C , 88-H ) :   0.9732
B( 49-C , 51-C ) :   1.2051 B( 50-C , 89-H ) :   0.9716

MP2 TOTAL ENERGY:    -2130.904859484 Eh
FINAL SINGLE POINT ENERGY     -2130.904859483629

DIPOLE MOMENT
-------------
                                X             Y             Z
Electronic contribution:     -1.98369       1.43977      -0.18699
Nuclear contribution   :     -0.00827       0.17914       0.22198
                        -----------------------------------------
Total Dipole Moment    :     -1.99197       1.61891       0.03499
                        -----------------------------------------
Magnitude (a.u.)       :      2.56710
Magnitude (Debye)      :      6.52506

Rotational constants in cm-1:     0.001498     0.001473     0.000763
Rotational constants in MHz :    44.903346    44.167801    22.859952

                             ****ORCA TERMINATED NORMALLY****
TOTAL RUN TIME: 0 days 1 hours 31 minutes 15 seconds 521 msec
