                         Program Version 5.0.4 -  RELEASE  -
|  1> ! PAL2
|  2> ! mp2 cc-pvdz TightSCF  NoKeepInts
|  3>
|  4> %scf
|  5>   MaxCore 2000
|  6> end
|  7> %mp2
|  8>   MaxCore 2000
|  9> end
| 10> * xyz 0 1
| 11>    C       -4.79600         5.30400        -0.56900
| 12>    C        1.47400         4.04100         0.05700
| 13>    C       -2.80200         4.09300         0.04900
| 14>    C       -2.37200         5.24700         0.72300
| 15>    C       -3.16100         6.37900         0.73200
| 16>    C       -5.19200         7.61600         0.14900
| 17>    C        0.13200         4.30700         0.06100
| 18>    C       -0.56900         3.05600         0.04700
| 19>    C        1.64900         2.61800         0.02300
| 20>    C       -4.04500         4.14500        -0.60100
| 21>    N       -4.35300         6.39900         0.08900
| 22>    N        0.38800         2.06700         0.02500
| 23>    N       -2.01000         0.39500        -0.07500
| 24>    N       -0.38800        -2.07400        -0.02700
| 25>    N        2.01000        -0.40100         0.06500
| 26>    C       -1.96000         2.86100         0.02400
| 27>    C       -2.62300         1.61500        -0.01800
| 28>    C       -5.57300        -4.32900         1.06600
| 29>    C       -4.07300         1.47100         0.05600
| 30>    C       -4.10600        -2.75600        -0.02600
| 31>    C       -4.99500        -2.75700        -1.11100
| 32>    C       -6.13200        -3.54200        -1.07600
| 33>    C       -7.65100        -5.11300         0.04000
| 34>    C       -4.32400         0.14100         0.03700
| 35>    C       -3.02500        -0.52000        -0.04800
| 36>    C       -4.42200        -3.56600         1.07500
| 37>    N       -6.40700        -4.31300         0.00100
| 38>    C       -2.86700        -1.92200        -0.04000
| 39>    C       -1.65000        -2.62400        -0.02700
| 40>    C        3.56800        -6.14200        -1.04000
| 41>    C       -1.47600        -4.04900        -0.03400
| 42>    C        2.80300        -4.09900        -0.00800
| 43>    C        3.65700        -4.38400         1.06900
| 44>    C        4.42700        -5.53000         1.05900
| 45>    C        5.24500        -7.58800         0.01400
| 46>    C       -0.13400        -4.31500        -0.02200
| 47>    C        0.56800        -3.06400        -0.02700
| 48>    C        2.77500        -5.01200        -1.07400
| 49>    N        4.37600        -6.39100         0.01700
| 50>    C        1.95900        -2.86900        -0.00900
| 51>    C        2.62100        -1.62200         0.00900
| 52>    C        5.54300         4.33900        -1.13000
| 53>    C        4.07000        -1.47900        -0.09400
| 54>    C        4.10400         2.75100        -0.02100
| 55>    C        5.02700         2.72900         1.03600
| 56>    C        6.16600         3.50900         0.97800
| 57>    C        7.61900         5.15300        -0.11500
| 58>    C        4.32100        -0.14800        -0.09200
| 59>    C        3.02500         0.51400         0.01500
| 60>    C        4.38700         3.58200        -1.11500
| 61>    C        2.86600         1.91600         0.01300
| 62>    N        6.41300         4.29600        -0.09500
| 63>    H       -5.75400         5.39300        -1.06600
| 64>    H        2.27400         4.76600         0.08100
| 65>    H       -1.42700         5.26600         1.25100
| 66>    H       -2.87600         7.28900         1.24400
| 67>    H       -5.80000         7.58400         1.05700
| 68>    H       -4.54200         8.49000         0.16400
| 69>    H       -5.83400         7.64200        -0.73100
| 70>    H       -0.33200         5.28200         0.06900
| 71>    H       -4.42500         3.29200        -1.15000
| 72>    H        0.18200         1.07200         0.00500
| 73>    H       -0.18300        -1.08000        -0.02100
| 74>    H       -5.86400        -4.96200         1.89500
| 75>    H       -4.79400         2.27200         0.13900
| 76>    H       -4.80000        -2.16000        -1.99400
| 77>    H       -6.84100        -3.58200        -1.89300
| 78>    H       -8.42800        -4.53600         0.54600
| 79>    H       -7.95600        -5.33700        -0.98100
| 80>    H       -7.45600        -6.03700         0.58400
| 81>    H       -5.28700        -0.34400         0.10000
| 82>    H       -3.78000        -3.60100         1.94700
| 83>    H        3.58700        -6.86800        -1.84300
| 84>    H       -2.27600        -4.77400        -0.05000
| 85>    H        3.71400        -3.72400         1.92600
| 86>    H        5.09200        -5.79500         1.87100
| 87>    H        6.20500        -7.32900        -0.43900
| 88>    H        5.39300        -7.91700         1.04200
| 89>    H        4.75900        -8.37300        -0.56400
| 90>    H        0.32900        -5.29000        -0.00800
| 91>    H        2.14600        -4.84200        -1.94000
| 92>    H        5.80800         4.98600        -1.95600
| 93>    H        4.78800        -2.28100        -0.18500
| 94>    H        4.86000         2.11400         1.91200
| 95>    H        6.90100         3.53100         1.77200
| 96>    H        7.38300         6.10900         0.35600
| 97>    H        8.41400         4.65200         0.43500
| 98>    H        7.92100         5.31000        -1.15000
| 99>    H        5.28300         0.33600        -0.17900
|100>    H        3.72000         3.63200        -1.96700
|101> *
|102>
|103>                          ****END OF INPUT****

CARTESIAN COORDINATES (ANGSTROEM)
---------------------------------
  C     -4.796000    5.304000   -0.569000
  C      1.474000    4.041000    0.057000
  C     -2.802000    4.093000    0.049000
  C     -2.372000    5.247000    0.723000
  C     -3.161000    6.379000    0.732000
  C     -5.192000    7.616000    0.149000
  C      0.132000    4.307000    0.061000
  C     -0.569000    3.056000    0.047000
  C      1.649000    2.618000    0.023000
  C     -4.045000    4.145000   -0.601000
  N     -4.353000    6.399000    0.089000
  N      0.388000    2.067000    0.025000
  N     -2.010000    0.395000   -0.075000
  N     -0.388000   -2.074000   -0.027000
  N      2.010000   -0.401000    0.065000
  C     -1.960000    2.861000    0.024000
  C     -2.623000    1.615000   -0.018000
  C     -5.573000   -4.329000    1.066000
  C     -4.073000    1.471000    0.056000
  C     -4.106000   -2.756000   -0.026000
  C     -4.995000   -2.757000   -1.111000
  C     -6.132000   -3.542000   -1.076000
  C     -7.651000   -5.113000    0.040000
  C     -4.324000    0.141000    0.037000
  C     -3.025000   -0.520000   -0.048000
  C     -4.422000   -3.566000    1.075000
  N     -6.407000   -4.313000    0.001000
  C     -2.867000   -1.922000   -0.040000
  C     -1.650000   -2.624000   -0.027000
  C      3.568000   -6.142000   -1.040000
  C     -1.476000   -4.049000   -0.034000
  C      2.803000   -4.099000   -0.008000
  C      3.657000   -4.384000    1.069000
  C      4.427000   -5.530000    1.059000
  C      5.245000   -7.588000    0.014000
  C     -0.134000   -4.315000   -0.022000
  C      0.568000   -3.064000   -0.027000
  C      2.775000   -5.012000   -1.074000
  N      4.376000   -6.391000    0.017000
  C      1.959000   -2.869000   -0.009000
  C      2.621000   -1.622000    0.009000
  C      5.543000    4.339000   -1.130000
  C      4.070000   -1.479000   -0.094000
  C      4.104000    2.751000   -0.021000
  C      5.027000    2.729000    1.036000
  C      6.166000    3.509000    0.978000
  C      7.619000    5.153000   -0.115000
  C      4.321000   -0.148000   -0.092000
  C      3.025000    0.514000    0.015000
  C      4.387000    3.582000   -1.115000
  C      2.866000    1.916000    0.013000
  N      6.413000    4.296000   -0.095000
  H     -5.754000    5.393000   -1.066000
  H      2.274000    4.766000    0.081000
  H     -1.427000    5.266000    1.251000
  H     -2.876000    7.289000    1.244000
  H     -5.800000    7.584000    1.057000
  H     -4.542000    8.490000    0.164000
  H     -5.834000    7.642000   -0.731000
  H     -0.332000    5.282000    0.069000
  H     -4.425000    3.292000   -1.150000
  H      0.182000    1.072000    0.005000
  H     -0.183000   -1.080000   -0.021000
  H     -5.864000   -4.962000    1.895000
  H     -4.794000    2.272000    0.139000
  H     -4.800000   -2.160000   -1.994000
  H     -6.841000   -3.582000   -1.893000
  H     -8.428000   -4.536000    0.546000
  H     -7.956000   -5.337000   -0.981000
  H     -7.456000   -6.037000    0.584000
  H     -5.287000   -0.344000    0.100000
  H     -3.780000   -3.601000    1.947000
  H      3.587000   -6.868000   -1.843000
  H     -2.276000   -4.774000   -0.050000
  H      3.714000   -3.724000    1.926000
  H      5.092000   -5.795000    1.871000
  H      6.205000   -7.329000   -0.439000
  H      5.393000   -7.917000    1.042000
  H      4.759000   -8.373000   -0.564000
  H      0.329000   -5.290000   -0.008000
  H      2.146000   -4.842000   -1.940000
  H      5.808000    4.986000   -1.956000
  H      4.788000   -2.281000   -0.185000
  H      4.860000    2.114000    1.912000
  H      6.901000    3.531000    1.772000
  H      7.383000    6.109000    0.356000
  H      8.414000    4.652000    0.435000
  H      7.921000    5.310000   -1.150000
  H      5.283000    0.336000   -0.179000
  H      3.720000    3.632000   -1.967000

 Total Charge           Charge          ....    0
 Multiplicity           Mult            ....    1
 Number of Electrons    NEL             ....  358
 Basis Dimension        Dim             ....  918

ORBITAL ENERGIES
----------------

  NO   OCC          E(Eh)            E(eV)
   0   2.0000     -15.671872      -426.4533
   1   2.0000     -15.637546      -425.5193
   2   2.0000     -15.628725      -425.2792
   3   2.0000     -15.590753      -424.2460
   4   2.0000     -15.525082      -422.4590
   5   2.0000     -15.515912      -422.2094
   6   2.0000     -15.451603      -420.4595
   7   2.0000     -15.442868      -420.2218
   8   2.0000     -11.323308      -308.1229
   9   2.0000     -11.323044      -308.1157
  10   2.0000     -11.321198      -308.0655
  11   2.0000     -11.301548      -307.5307
  12   2.0000     -11.296363      -307.3897
  13   2.0000     -11.295550      -307.3676
  14   2.0000     -11.290238      -307.2230
  15   2.0000     -11.288101      -307.1648
  16   2.0000     -11.284241      -307.0598
  17   2.0000     -11.274638      -306.7985
  18   2.0000     -11.273293      -306.7619
  19   2.0000     -11.257853      -306.3418
  20   2.0000     -11.256912      -306.3161
  21   2.0000     -11.256097      -306.2940
  22   2.0000     -11.255249      -306.2709
  23   2.0000     -11.241193      -305.8884
  24   2.0000     -11.233867      -305.6891
  25   2.0000     -11.233538      -305.6801
  26   2.0000     -11.233286      -305.6733
  27   2.0000     -11.227391      -305.5128
  28   2.0000     -11.227087      -305.5046
  29   2.0000     -11.210462      -305.0522
  30   2.0000     -11.209038      -305.0134
  31   2.0000     -11.200805      -304.7894
  32   2.0000     -11.194269      -304.6116
  33   2.0000     -11.193643      -304.5945
  34   2.0000     -11.189587      -304.4842
  35   2.0000     -11.189009      -304.4684
  36   2.0000     -11.188112      -304.4440
  37   2.0000     -11.184156      -304.3364
  38   2.0000     -11.183154      -304.3091
  39   2.0000     -11.174561      -304.0753
  40   2.0000     -11.172815      -304.0277
  41   2.0000     -11.168545      -303.9116
  42   2.0000     -11.168390      -303.9074
  43   2.0000     -11.162016      -303.7339
  44   2.0000     -11.160634      -303.6963
  45   2.0000     -11.158760      -303.6453
  46   2.0000     -11.157445      -303.6095
  47   2.0000     -11.152517      -303.4754
  48   2.0000     -11.147536      -303.3399
  49   2.0000     -11.140516      -303.1489
  50   2.0000     -11.134089      -302.9740
  51   2.0000     -11.126136      -302.7576
  52   2.0000      -1.353646       -36.8346
  53   2.0000      -1.324316       -36.0365
  54   2.0000      -1.316909       -35.8349
  55   2.0000      -1.284875       -34.9632
  56   2.0000      -1.225730       -33.3538
  57   2.0000      -1.210287       -32.9336
  58   2.0000      -1.170237       -31.8438
  59   2.0000      -1.153346       -31.3841
  60   2.0000      -1.137979       -30.9660
  61   2.0000      -1.112803       -30.2809
  62   2.0000      -1.106685       -30.1144
  63   2.0000      -1.081164       -29.4200
  64   2.0000      -1.075835       -29.2750
  65   2.0000      -1.048379       -28.5279
  66   2.0000      -1.041685       -28.3457
  67   2.0000      -1.037492       -28.2316
  68   2.0000      -1.015020       -27.6201
  69   2.0000      -1.013616       -27.5819
  70   2.0000      -1.009376       -27.4665
  71   2.0000      -0.993158       -27.0252
  72   2.0000      -0.986967       -26.8567
  73   2.0000      -0.979594       -26.6561
  74   2.0000      -0.972050       -26.4508
  75   2.0000      -0.959965       -26.1220
  76   2.0000      -0.952367       -25.9152
  77   2.0000      -0.946523       -25.7562
  78   2.0000      -0.935279       -25.4502
  79   2.0000      -0.919537       -25.0219
  80   2.0000      -0.905036       -24.6273
  81   2.0000      -0.893217       -24.3057
  82   2.0000      -0.875687       -23.8287
  83   2.0000      -0.871982       -23.7278
  84   2.0000      -0.867312       -23.6008
  85   2.0000      -0.855844       -23.2887
  86   2.0000      -0.839929       -22.8556
  87   2.0000      -0.837090       -22.7784
  88   2.0000      -0.823254       -22.4019
  89   2.0000      -0.798177       -21.7195
  90   2.0000      -0.792107       -21.5543
  91   2.0000      -0.749225       -20.3874
  92   2.0000      -0.740154       -20.1406
  93   2.0000      -0.733167       -19.9505
  94   2.0000      -0.724280       -19.7087
  95   2.0000      -0.720655       -19.6100
  96   2.0000      -0.715184       -19.4611
  97   2.0000      -0.709486       -19.3061
  98   2.0000      -0.704888       -19.1810
  99   2.0000      -0.696555       -18.9542
 100   2.0000      -0.696015       -18.9395
 101   2.0000      -0.683409       -18.5965
 102   2.0000      -0.679856       -18.4998
 103   2.0000      -0.679015       -18.4769
 104   2.0000      -0.675608       -18.3842
 105   2.0000      -0.671316       -18.2674
 106   2.0000      -0.668007       -18.1774
 107   2.0000      -0.661875       -18.0105
 108   2.0000      -0.655624       -17.8404
 109   2.0000      -0.653680       -17.7875
 110   2.0000      -0.649058       -17.6618
 111   2.0000      -0.642938       -17.4952
 112   2.0000      -0.641277       -17.4500
 113   2.0000      -0.640312       -17.4238
 114   2.0000      -0.637006       -17.3338
 115   2.0000      -0.625778       -17.0283
 116   2.0000      -0.624505       -16.9936
 117   2.0000      -0.616594       -16.7784
 118   2.0000      -0.615082       -16.7372
 119   2.0000      -0.613103       -16.6834
 120   2.0000      -0.609076       -16.5738
 121   2.0000      -0.606364       -16.5000
 122   2.0000      -0.599549       -16.3146
 123   2.0000      -0.586643       -15.9634
 124   2.0000      -0.583549       -15.8792
 125   2.0000      -0.581117       -15.8130
 126   2.0000      -0.578884       -15.7522
 127   2.0000      -0.577600       -15.7173
 128   2.0000      -0.566148       -15.4057
 129   2.0000      -0.558719       -15.2035
 130   2.0000      -0.551187       -14.9986
 131   2.0000      -0.547801       -14.9064
 132   2.0000      -0.543557       -14.7910
 133   2.0000      -0.539892       -14.6912
 134   2.0000      -0.539575       -14.6826
 135   2.0000      -0.534221       -14.5369
 136   2.0000      -0.526303       -14.3214
 137   2.0000      -0.523089       -14.2340
 138   2.0000      -0.518292       -14.1035
 139   2.0000      -0.512935       -13.9577
 140   2.0000      -0.512634       -13.9495
 141   2.0000      -0.510305       -13.8861
 142   2.0000      -0.510192       -13.8830
 143   2.0000      -0.503524       -13.7016
 144   2.0000      -0.500317       -13.6143
 145   2.0000      -0.496550       -13.5118
 146   2.0000      -0.494241       -13.4490
 147   2.0000      -0.484130       -13.1738
 148   2.0000      -0.479665       -13.0523
 149   2.0000      -0.467216       -12.7136
 150   2.0000      -0.465634       -12.6705
 151   2.0000      -0.457249       -12.4424
 152   2.0000      -0.449667       -12.2361
 153   2.0000      -0.446243       -12.1429
 154   2.0000      -0.442657       -12.0453
 155   2.0000      -0.436522       -11.8784
 156   2.0000      -0.429586       -11.6896
 157   2.0000      -0.423630       -11.5276
 158   2.0000      -0.404633       -11.0106
 159   2.0000      -0.386676       -10.5220
 160   2.0000      -0.382452       -10.4071
 161   2.0000      -0.378477       -10.2989
 162   2.0000      -0.370967       -10.0945
 163   2.0000      -0.359123        -9.7722
 164   2.0000      -0.353644        -9.6231
 165   2.0000      -0.339414        -9.2359
 166   2.0000      -0.337690        -9.1890
 167   2.0000      -0.327408        -8.9092
 168   2.0000      -0.325632        -8.8609
 169   2.0000      -0.304633        -8.2895
 170   2.0000      -0.299581        -8.1520
 171   2.0000      -0.285939        -7.7808
 172   2.0000      -0.282375        -7.6838
 173   2.0000      -0.261550        -7.1171
 174   2.0000      -0.243894        -6.6367
 175   2.0000      -0.189922        -5.1680
 176   2.0000      -0.180261        -4.9052
 177   2.0000      -0.075272        -2.0482
 178   2.0000      -0.058247        -1.5850
 179   0.0000       0.028467         0.7746
 180   0.0000       0.066429         1.8076
 181   0.0000       0.091547         2.4911
 182   0.0000       0.108975         2.9654
 183   0.0000       0.111464         3.0331

MULLIKEN ATOMIC CHARGES
-----------------------
   0 C :    0.207680
   1 N :   -0.455839
   2 C :   -0.066444
   3 N :   -0.336712
   4 C :   -0.055425
   5 N :   -0.561615
   6 C :   -0.117278
   7 N :   -0.340249
   8 C :    0.207970
   9 N :   -0.562677
  10 C :    0.119007
  11 N :   -0.437757
  12 C :   -0.080714
  13 N :   -0.431265
  14 C :    0.222411
  15 N :   -0.441511
  16 C :    0.230041
  17 C :   -0.115066
  18 C :   -0.164930
  19 C :    0.209127
  20 C :    0.213992
  21 C :   -0.092190
  22 C :   -0.088777
  23 C :   -0.041197
  24 C :    0.196785
  25 C :    0.114124
  26 C :   -0.076795
  27 C :    0.212462
  28 C :   -0.059867
  29 C :   -0.180912
  30 C :    0.244145
  31 C :    0.227962
  32 C :   -0.061652
  33 C :   -0.064249
  34 C :   -0.049716
  35 C :    0.222910
  36 C :    0.109280
  37 C :   -0.064664
  38 C :    0.233288
  39 C :   -0.059343
  40 C :   -0.181793
  41 C :    0.223682
  42 C :    0.197439
  43 C :   -0.072857
  44 C :   -0.091163
  45 C :   -0.060300
  46 C :    0.208928
  47 C :    0.115719
  48 C :   -0.068615
  49 C :    0.236389
  50 C :   -0.047449
  51 C :   -0.193562
  52 H :    0.040032
  53 H :   -0.016557
  54 H :    0.050905
  55 H :    0.038857
  56 H :    0.049562
  57 H :    0.048219
  58 H :    0.047375
  59 H :    0.001655
  60 H :    0.051158
  61 H :    0.171079
  62 H :    0.175336
  63 H :    0.056560
  64 H :   -0.004562
  65 H :    0.047074
  66 H :    0.056708
  67 H :    0.063413
  68 H :    0.057841
  69 H :    0.057384
  70 H :   -0.028178
  71 H :    0.046332
  72 H :    0.068861
  73 H :   -0.008774
  74 H :    0.058163
  75 H :    0.068095
  76 H :    0.072796
  77 H :    0.066326
  78 H :    0.065485
  79 H :   -0.015562
  80 H :    0.058746
  81 H :    0.053621
  82 H :   -0.025121
  83 H :    0.041063
  84 H :    0.053076
  85 H :    0.059819
  86 H :    0.055082
  87 H :    0.056684
  88 H :   -0.015601
  89 H :    0.046285
Sum of atomic charges:   -0.0000000

LOEWDIN ATOMIC CHARGES
----------------------
   0 C :   -0.023077
   1 N :    0.115610
   2 C :   -0.102078
   3 N :    0.183338
   4 C :   -0.007210
   5 N :   -0.130756
   6 C :   -0.041447
   7 N :    0.175736
   8 C :   -0.020717
   9 N :   -0.140320
  10 C :    0.023798
  11 N :    0.143743
  12 C :   -0.111786
  13 N :    0.161982
  14 C :   -0.032120
  15 N :    0.137387
  16 C :   -0.057248
  17 C :   -0.040296
  18 C :   -0.100994
  19 C :   -0.084167
  20 C :    0.005538
  21 C :   -0.116425
  22 C :    0.039633
  23 C :   -0.015345
  24 C :   -0.009451
  25 C :    0.030250
  26 C :   -0.107933
  27 C :   -0.114480
  28 C :   -0.025839
  29 C :   -0.099293
  30 C :   -0.033498
  31 C :    0.021361
  32 C :   -0.093925
  33 C :    0.074618
  34 C :   -0.015117
  35 C :    0.017190
  36 C :    0.034280
  37 C :   -0.095225
  38 C :   -0.048440
  39 C :   -0.019505
  40 C :   -0.108049
  41 C :   -0.093893
  42 C :   -0.010647
  43 C :   -0.100617
  44 C :    0.031033
  45 C :   -0.027827
  46 C :   -0.000784
  47 C :    0.029165
  48 C :   -0.097294
  49 C :   -0.072368
  50 C :   -0.019764
  51 C :   -0.109957
  52 H :    0.023603
  53 H :    0.003100
  54 H :    0.040478
  55 H :    0.023710
  56 H :    0.021889
  57 H :    0.026426
  58 H :    0.027071
  59 H :    0.010688
  60 H :    0.041304
  61 H :    0.060004
  62 H :    0.061769
  63 H :    0.031284
  64 H :    0.006282
  65 H :    0.045816
  66 H :    0.029804
  67 H :    0.028723
  68 H :    0.031908
  69 H :    0.030766
  70 H :   -0.003923
  71 H :    0.044214
  72 H :    0.036601
  73 H :    0.006746
  74 H :    0.049809
  75 H :    0.036053
  76 H :    0.033687
  77 H :    0.035397
  78 H :    0.035028
  79 H :    0.003456
  80 H :    0.049565
  81 H :    0.028772
  82 H :   -0.002833
  83 H :    0.042204
  84 H :    0.029319
  85 H :    0.026865
  86 H :    0.029948
  87 H :    0.031157
  88 H :    0.001855
  89 H :    0.044685

  Mayer bond orders larger than 0.100000
B(  0-C ,  1-N ) :   1.0887 B(  0-C , 17-C ) :   1.7056 B(  0-C , 52-H ) :   0.9669
B(  1-N ,  8-C ) :   1.0889 B(  1-N , 10-C ) :   0.9776 B(  2-C , 12-C ) :   1.5093
B(  2-C , 16-C ) :   1.3535 B(  2-C , 53-H ) :   0.9760 B(  3-N , 14-C ) :   1.2176
B(  3-N , 16-C ) :   1.1917 B(  3-N , 61-H ) :   0.8994 B(  4-C ,  6-C ) :   1.2123
B(  4-C , 17-C ) :   1.2128 B(  4-C , 18-C ) :   1.4263 B(  5-N , 19-C ) :   1.4509
B(  5-N , 27-C ) :   1.3811 B(  6-C ,  8-C ) :   1.7055 B(  6-C , 54-H ) :   0.9591
B(  7-N , 30-C ) :   1.1939 B(  7-N , 38-C ) :   1.1930 B(  7-N , 62-H ) :   0.8968
B(  8-C , 55-H ) :   0.9679 B(  9-N , 41-C ) :   1.3935 B(  9-N , 49-C ) :   1.4273
B( 10-C , 56-H ) :   0.9768 B( 10-C , 57-H ) :   0.9832 B( 10-C , 58-H ) :   0.9834
B( 11-N , 20-C ) :   1.1319 B( 11-N , 24-C ) :   1.1115 B( 11-N , 25-C ) :   0.9588
B( 12-C , 14-C ) :   1.3545 B( 12-C , 59-H ) :   0.9746 B( 13-N , 31-C ) :   1.1561
B( 13-N , 35-C ) :   1.1508 B( 13-N , 36-C ) :   0.9446 B( 14-C , 18-C ) :   1.1333
B( 15-N , 42-C ) :   1.1071 B( 15-N , 46-C ) :   1.1206 B( 15-N , 47-C ) :   0.9624
B( 16-C , 51-C ) :   1.1735 B( 17-C , 60-H ) :   0.9592 B( 18-C , 19-C ) :   1.1380
B( 19-C , 21-C ) :   1.2419 B( 20-C , 28-C ) :   1.6254 B( 20-C , 63-H ) :   0.9701
B( 21-C , 26-C ) :   1.6150 B( 21-C , 64-H ) :   0.9713 B( 22-C , 23-C ) :   1.2908
B( 22-C , 28-C ) :   1.2678 B( 22-C , 29-C ) :   1.2203 B( 23-C , 24-C ) :   1.6172
B( 23-C , 65-H ) :   0.9705 B( 24-C , 66-H ) :   0.9694 B( 25-C , 67-H ) :   0.9760
B( 25-C , 68-H ) :   0.9828 B( 25-C , 69-H ) :   0.9823 B( 26-C , 27-C ) :   1.2362
B( 26-C , 70-H ) :   0.9705 B( 27-C , 29-C ) :   1.2150 B( 28-C , 71-H ) :   0.9718
B( 29-C , 30-C ) :   1.2410 B( 30-C , 32-C ) :   1.2833 B( 31-C , 39-C ) :   1.5956
B( 31-C , 72-H ) :   0.9684 B( 32-C , 37-C ) :   1.5760 B( 32-C , 73-H ) :   0.9784
B( 33-C , 34-C ) :   1.3031 B( 33-C , 39-C ) :   1.2967 B( 33-C , 40-C ) :   1.1869
B( 34-C , 35-C ) :   1.5921 B( 34-C , 74-H ) :   0.9697 B( 35-C , 75-H ) :   0.9684
B( 36-C , 76-H ) :   0.9767 B( 36-C , 77-H ) :   0.9816 B( 36-C , 78-H ) :   0.9825
B( 37-C , 38-C ) :   1.2874 B( 37-C , 79-H ) :   0.9768 B( 38-C , 40-C ) :   1.2310
B( 39-C , 80-H ) :   0.9708 B( 40-C , 41-C ) :   1.2451 B( 41-C , 43-C ) :   1.1915
B( 42-C , 50-C ) :   1.6360 B( 42-C , 81-H ) :   0.9697 B( 43-C , 48-C ) :   1.6604
B( 43-C , 82-H ) :   0.9723 B( 44-C , 45-C ) :   1.2625 B( 44-C , 50-C ) :   1.2691
B( 44-C , 51-C ) :   1.2650 B( 45-C , 46-C ) :   1.6369 B( 45-C , 83-H ) :   0.9718
B( 46-C , 84-H ) :   0.9701 B( 47-C , 85-H ) :   0.9762 B( 47-C , 86-H ) :   0.9829
B( 47-C , 87-H ) :   0.9825 B( 48-C , 49-C ) :   1.1949 B( 48-C , 88-H ) :   0.9748
B( 49-C , 51-C ) :   1.2354 B( 50-C , 89-H ) :   0.9710

MP2 TOTAL ENERGY:    -2130.898764930 Eh
FINAL SINGLE POINT ENERGY     -2130.898764930258

DIPOLE MOMENT
-------------
                                X             Y             Z
Electronic contribution:      2.05370      -3.93595      -0.22458
Nuclear contribution   :      0.03423       0.20788       0.22486
                        -----------------------------------------
Total Dipole Moment    :      2.08793      -3.72807       0.00028
                        -----------------------------------------
Magnitude (a.u.)       :      4.27294
Magnitude (Debye)      :     10.86094

Rotational constants in cm-1:     0.001500     0.001478     0.000761
Rotational constants in MHz :    44.967202    44.303117    22.806990

                             ****ORCA TERMINATED NORMALLY****
TOTAL RUN TIME: 0 days 1 hours 27 minutes 11 seconds 209 msec
