                         Program Version 5.0.4 -  RELEASE  -
|  1> ! PAL2
|  2> ! mp2 cc-pvdz TightSCF  NoKeepInts
|  3>
|  4> %scf
|  5>   MaxCore 2000
|  6> end
|  7> %mp2
|  8>   MaxCore 2000
|  9> end
| 10> * xyz 0 1
| 11>    C       -4.62800         5.42300        -0.80000
| 12>    C        1.47400         4.04100         0.05700
| 13>    C       -2.80200         4.09300         0.04900
| 14>    C       -2.54300         5.12500         0.96500
| 15>    C       -3.32900         6.26000         0.97100
| 16>    C       -5.19900         7.61100         0.15200
| 17>    C        0.13200         4.30700         0.06100
| 18>    C       -0.56900         3.05600         0.04700
| 19>    C        1.64900         2.61800         0.02300
| 20>    C       -3.87400         4.26700        -0.84000
| 21>    N       -4.35200         6.39900         0.09500
| 22>    N        0.38800         2.06700         0.02500
| 23>    N       -2.01000         0.39500        -0.07500
| 24>    N       -0.38800        -2.07400        -0.02700
| 25>    N        2.01000        -0.40100         0.06500
| 26>    C       -1.96000         2.86100         0.02400
| 27>    C       -2.62300         1.61500        -0.01800
| 28>    C       -5.57300        -4.32900         1.06600
| 29>    C       -4.07300         1.47100         0.05600
| 30>    C       -4.10600        -2.75600        -0.02600
| 31>    C       -4.99500        -2.75700        -1.11100
| 32>    C       -6.13200        -3.54200        -1.07600
| 33>    C       -7.65100        -5.11300         0.04000
| 34>    C       -4.32400         0.14100         0.03700
| 35>    C       -3.02500        -0.52000        -0.04800
| 36>    C       -4.42200        -3.56600         1.07500
| 37>    N       -6.40700        -4.31300         0.00100
| 38>    C       -2.86700        -1.92200        -0.04000
| 39>    C       -1.65000        -2.62400        -0.02700
| 40>    C        3.56800        -6.14200        -1.04000
| 41>    C       -1.47600        -4.04900        -0.03400
| 42>    C        2.80300        -4.09900        -0.00800
| 43>    C        3.65700        -4.38400         1.06900
| 44>    C        4.42700        -5.53000         1.05900
| 45>    C        5.24500        -7.58800         0.01400
| 46>    C       -0.13400        -4.31500        -0.02200
| 47>    C        0.56800        -3.06400        -0.02700
| 48>    C        2.77500        -5.01200        -1.07400
| 49>    N        4.37600        -6.39100         0.01700
| 50>    C        1.95900        -2.86900        -0.00900
| 51>    C        2.62100        -1.62200         0.00900
| 52>    C        5.54300         4.33900        -1.13000
| 53>    C        4.07000        -1.47900        -0.09400
| 54>    C        4.10400         2.75100        -0.02100
| 55>    C        5.02700         2.72900         1.03600
| 56>    C        6.16600         3.50900         0.97800
| 57>    C        7.61900         5.15300        -0.11500
| 58>    C        4.32100        -0.14800        -0.09200
| 59>    C        3.02500         0.51400         0.01500
| 60>    C        4.38700         3.58200        -1.11500
| 61>    C        2.86600         1.91600         0.01300
| 62>    N        6.41300         4.29600        -0.09500
| 63>    H       -5.45500         5.60500        -1.47400
| 64>    H        2.27400         4.76600         0.08100
| 65>    H       -1.73600         5.04500         1.68300
| 66>    H       -3.17400         7.07700         1.66300
| 67>    H       -5.98900         7.45800         0.89000
| 68>    H       -4.57800         8.46000         0.43800
| 69>    H       -5.63400         7.78100        -0.83200
| 70>    H       -0.33200         5.28200         0.06900
| 71>    H       -4.11500         3.51200        -1.58100
| 72>    H        0.18200         1.07200         0.00500
| 73>    H       -0.18300        -1.08000        -0.02100
| 74>    H       -5.86400        -4.96200         1.89500
| 75>    H       -4.79400         2.27200         0.13900
| 76>    H       -4.80000        -2.16000        -1.99400
| 77>    H       -6.84100        -3.58200        -1.89300
| 78>    H       -8.42800        -4.53600         0.54600
| 79>    H       -7.95600        -5.33700        -0.98100
| 80>    H       -7.45600        -6.03700         0.58400
| 81>    H       -5.28700        -0.34400         0.10000
| 82>    H       -3.78000        -3.60100         1.94700
| 83>    H        3.58700        -6.86800        -1.84300
| 84>    H       -2.27600        -4.77400        -0.05000
| 85>    H        3.71400        -3.72400         1.92600
| 86>    H        5.09200        -5.79500         1.87100
| 87>    H        6.20500        -7.32900        -0.43900
| 88>    H        5.39300        -7.91700         1.04200
| 89>    H        4.75900        -8.37300        -0.56400
| 90>    H        0.32900        -5.29000        -0.00800
| 91>    H        2.14600        -4.84200        -1.94000
| 92>    H        5.80800         4.98600        -1.95600
| 93>    H        4.78800        -2.28100        -0.18500
| 94>    H        4.86000         2.11400         1.91200
| 95>    H        6.90100         3.53100         1.77200
| 96>    H        7.38300         6.10900         0.35600
| 97>    H        8.41400         4.65200         0.43500
| 98>    H        7.92100         5.31000        -1.15000
| 99>    H        5.28300         0.33600        -0.17900
|100>    H        3.72000         3.63200        -1.96700
|101> *
|102>
|103>                          ****END OF INPUT****

CARTESIAN COORDINATES (ANGSTROEM)
---------------------------------
  C     -4.628000    5.423000   -0.800000
  C      1.474000    4.041000    0.057000
  C     -2.802000    4.093000    0.049000
  C     -2.543000    5.125000    0.965000
  C     -3.329000    6.260000    0.971000
  C     -5.199000    7.611000    0.152000
  C      0.132000    4.307000    0.061000
  C     -0.569000    3.056000    0.047000
  C      1.649000    2.618000    0.023000
  C     -3.874000    4.267000   -0.840000
  N     -4.352000    6.399000    0.095000
  N      0.388000    2.067000    0.025000
  N     -2.010000    0.395000   -0.075000
  N     -0.388000   -2.074000   -0.027000
  N      2.010000   -0.401000    0.065000
  C     -1.960000    2.861000    0.024000
  C     -2.623000    1.615000   -0.018000
  C     -5.573000   -4.329000    1.066000
  C     -4.073000    1.471000    0.056000
  C     -4.106000   -2.756000   -0.026000
  C     -4.995000   -2.757000   -1.111000
  C     -6.132000   -3.542000   -1.076000
  C     -7.651000   -5.113000    0.040000
  C     -4.324000    0.141000    0.037000
  C     -3.025000   -0.520000   -0.048000
  C     -4.422000   -3.566000    1.075000
  N     -6.407000   -4.313000    0.001000
  C     -2.867000   -1.922000   -0.040000
  C     -1.650000   -2.624000   -0.027000
  C      3.568000   -6.142000   -1.040000
  C     -1.476000   -4.049000   -0.034000
  C      2.803000   -4.099000   -0.008000
  C      3.657000   -4.384000    1.069000
  C      4.427000   -5.530000    1.059000
  C      5.245000   -7.588000    0.014000
  C     -0.134000   -4.315000   -0.022000
  C      0.568000   -3.064000   -0.027000
  C      2.775000   -5.012000   -1.074000
  N      4.376000   -6.391000    0.017000
  C      1.959000   -2.869000   -0.009000
  C      2.621000   -1.622000    0.009000
  C      5.543000    4.339000   -1.130000
  C      4.070000   -1.479000   -0.094000
  C      4.104000    2.751000   -0.021000
  C      5.027000    2.729000    1.036000
  C      6.166000    3.509000    0.978000
  C      7.619000    5.153000   -0.115000
  C      4.321000   -0.148000   -0.092000
  C      3.025000    0.514000    0.015000
  C      4.387000    3.582000   -1.115000
  C      2.866000    1.916000    0.013000
  N      6.413000    4.296000   -0.095000
  H     -5.455000    5.605000   -1.474000
  H      2.274000    4.766000    0.081000
  H     -1.736000    5.045000    1.683000
  H     -3.174000    7.077000    1.663000
  H     -5.989000    7.458000    0.890000
  H     -4.578000    8.460000    0.438000
  H     -5.634000    7.781000   -0.832000
  H     -0.332000    5.282000    0.069000
  H     -4.115000    3.512000   -1.581000
  H      0.182000    1.072000    0.005000
  H     -0.183000   -1.080000   -0.021000
  H     -5.864000   -4.962000    1.895000
  H     -4.794000    2.272000    0.139000
  H     -4.800000   -2.160000   -1.994000
  H     -6.841000   -3.582000   -1.893000
  H     -8.428000   -4.536000    0.546000
  H     -7.956000   -5.337000   -0.981000
  H     -7.456000   -6.037000    0.584000
  H     -5.287000   -0.344000    0.100000
  H     -3.780000   -3.601000    1.947000
  H      3.587000   -6.868000   -1.843000
  H     -2.276000   -4.774000   -0.050000
  H      3.714000   -3.724000    1.926000
  H      5.092000   -5.795000    1.871000
  H      6.205000   -7.329000   -0.439000
  H      5.393000   -7.917000    1.042000
  H      4.759000   -8.373000   -0.564000
  H      0.329000   -5.290000   -0.008000
  H      2.146000   -4.842000   -1.940000
  H      5.808000    4.986000   -1.956000
  H      4.788000   -2.281000   -0.185000
  H      4.860000    2.114000    1.912000
  H      6.901000    3.531000    1.772000
  H      7.383000    6.109000    0.356000
  H      8.414000    4.652000    0.435000
  H      7.921000    5.310000   -1.150000
  H      5.283000    0.336000   -0.179000
  H      3.720000    3.632000   -1.967000

 Total Charge           Charge          ....    0
 Multiplicity           Mult            ....    1
 Number of Electrons    NEL             ....  358
 Basis Dimension        Dim             ....  918

ORBITAL ENERGIES
----------------

  NO   OCC          E(Eh)            E(eV)
   0   2.0000     -15.657316      -426.0572
   1   2.0000     -15.639098      -425.5615
   2   2.0000     -15.628481      -425.2726
   3   2.0000     -15.603962      -424.6054
   4   2.0000     -15.522548      -422.3900
   5   2.0000     -15.515726      -422.2044
   6   2.0000     -15.448191      -420.3666
   7   2.0000     -15.443669      -420.2436
   8   2.0000     -11.314010      -307.8699
   9   2.0000     -11.311220      -307.7940
  10   2.0000     -11.308756      -307.7269
  11   2.0000     -11.302452      -307.5554
  12   2.0000     -11.296037      -307.3808
  13   2.0000     -11.295904      -307.3772
  14   2.0000     -11.292450      -307.2832
  15   2.0000     -11.286947      -307.1335
  16   2.0000     -11.284511      -307.0672
  17   2.0000     -11.281583      -306.9875
  18   2.0000     -11.266865      -306.5870
  19   2.0000     -11.266828      -306.5860
  20   2.0000     -11.260847      -306.4232
  21   2.0000     -11.247469      -306.0592
  22   2.0000     -11.246565      -306.0346
  23   2.0000     -11.242579      -305.9261
  24   2.0000     -11.234718      -305.7122
  25   2.0000     -11.234131      -305.6963
  26   2.0000     -11.233077      -305.6676
  27   2.0000     -11.226862      -305.4985
  28   2.0000     -11.226655      -305.4928
  29   2.0000     -11.213477      -305.1342
  30   2.0000     -11.208686      -305.0039
  31   2.0000     -11.207989      -304.9849
  32   2.0000     -11.206258      -304.9378
  33   2.0000     -11.205256      -304.9105
  34   2.0000     -11.191301      -304.5308
  35   2.0000     -11.190903      -304.5199
  36   2.0000     -11.181063      -304.2522
  37   2.0000     -11.178211      -304.1746
  38   2.0000     -11.177747      -304.1620
  39   2.0000     -11.173882      -304.0568
  40   2.0000     -11.167556      -303.8847
  41   2.0000     -11.167099      -303.8722
  42   2.0000     -11.165755      -303.8356
  43   2.0000     -11.164970      -303.8143
  44   2.0000     -11.164632      -303.8051
  45   2.0000     -11.162374      -303.7436
  46   2.0000     -11.150854      -303.4302
  47   2.0000     -11.149870      -303.4034
  48   2.0000     -11.147300      -303.3335
  49   2.0000     -11.146188      -303.3032
  50   2.0000     -11.137942      -303.0788
  51   2.0000     -11.133210      -302.9500
  52   2.0000      -1.341221       -36.4965
  53   2.0000      -1.325599       -36.0714
  54   2.0000      -1.316549       -35.8251
  55   2.0000      -1.296322       -35.2747
  56   2.0000      -1.222317       -33.2609
  57   2.0000      -1.211172       -32.9577
  58   2.0000      -1.165623       -31.7182
  59   2.0000      -1.155619       -31.4460
  60   2.0000      -1.127395       -30.6780
  61   2.0000      -1.113733       -30.3062
  62   2.0000      -1.106033       -30.0967
  63   2.0000      -1.090039       -29.6615
  64   2.0000      -1.064250       -28.9597
  65   2.0000      -1.049514       -28.5587
  66   2.0000      -1.041245       -28.3337
  67   2.0000      -1.031314       -28.0635
  68   2.0000      -1.023473       -27.8501
  69   2.0000      -1.013106       -27.5680
  70   2.0000      -1.009333       -27.4654
  71   2.0000      -0.993747       -27.0412
  72   2.0000      -0.986597       -26.8467
  73   2.0000      -0.974857       -26.5272
  74   2.0000      -0.973143       -26.4806
  75   2.0000      -0.958752       -26.0890
  76   2.0000      -0.950957       -25.8769
  77   2.0000      -0.946906       -25.7666
  78   2.0000      -0.937517       -25.5111
  79   2.0000      -0.922147       -25.0929
  80   2.0000      -0.897018       -24.4091
  81   2.0000      -0.887873       -24.1602
  82   2.0000      -0.876373       -23.8473
  83   2.0000      -0.869228       -23.6529
  84   2.0000      -0.863430       -23.4951
  85   2.0000      -0.854665       -23.2566
  86   2.0000      -0.846887       -23.0450
  87   2.0000      -0.839826       -22.8528
  88   2.0000      -0.821946       -22.3663
  89   2.0000      -0.798780       -21.7359
  90   2.0000      -0.795873       -21.6568
  91   2.0000      -0.742310       -20.1993
  92   2.0000      -0.735549       -20.0153
  93   2.0000      -0.731160       -19.8959
  94   2.0000      -0.722768       -19.6675
  95   2.0000      -0.719465       -19.5776
  96   2.0000      -0.713110       -19.4047
  97   2.0000      -0.705259       -19.1911
  98   2.0000      -0.700940       -19.0736
  99   2.0000      -0.695669       -18.9301
 100   2.0000      -0.691639       -18.8204
 101   2.0000      -0.681499       -18.5445
 102   2.0000      -0.678739       -18.4694
 103   2.0000      -0.673959       -18.3394
 104   2.0000      -0.670587       -18.2476
 105   2.0000      -0.669507       -18.2182
 106   2.0000      -0.664050       -18.0697
 107   2.0000      -0.661588       -18.0027
 108   2.0000      -0.657142       -17.8818
 109   2.0000      -0.655143       -17.8274
 110   2.0000      -0.650758       -17.7080
 111   2.0000      -0.648077       -17.6351
 112   2.0000      -0.643850       -17.5201
 113   2.0000      -0.636825       -17.3289
 114   2.0000      -0.632917       -17.2226
 115   2.0000      -0.629731       -17.1358
 116   2.0000      -0.622962       -16.9517
 117   2.0000      -0.616281       -16.7699
 118   2.0000      -0.613051       -16.6820
 119   2.0000      -0.611354       -16.6358
 120   2.0000      -0.608534       -16.5591
 121   2.0000      -0.602128       -16.3847
 122   2.0000      -0.596945       -16.2437
 123   2.0000      -0.591641       -16.0994
 124   2.0000      -0.589884       -16.0516
 125   2.0000      -0.584794       -15.9130
 126   2.0000      -0.578308       -15.7366
 127   2.0000      -0.576058       -15.6753
 128   2.0000      -0.564062       -15.3489
 129   2.0000      -0.558692       -15.2028
 130   2.0000      -0.553994       -15.0749
 131   2.0000      -0.549512       -14.9530
 132   2.0000      -0.542120       -14.7518
 133   2.0000      -0.537881       -14.6365
 134   2.0000      -0.534151       -14.5350
 135   2.0000      -0.531251       -14.4561
 136   2.0000      -0.525318       -14.2946
 137   2.0000      -0.523332       -14.2406
 138   2.0000      -0.517609       -14.0849
 139   2.0000      -0.517434       -14.0801
 140   2.0000      -0.509710       -13.8699
 141   2.0000      -0.508403       -13.8344
 142   2.0000      -0.507834       -13.8189
 143   2.0000      -0.501659       -13.6508
 144   2.0000      -0.500357       -13.6154
 145   2.0000      -0.497624       -13.5410
 146   2.0000      -0.493918       -13.4402
 147   2.0000      -0.488437       -13.2911
 148   2.0000      -0.487680       -13.2704
 149   2.0000      -0.469321       -12.7709
 150   2.0000      -0.462668       -12.5898
 151   2.0000      -0.454567       -12.3694
 152   2.0000      -0.448180       -12.1956
 153   2.0000      -0.446880       -12.1602
 154   2.0000      -0.446108       -12.1392
 155   2.0000      -0.439786       -11.9672
 156   2.0000      -0.434210       -11.8155
 157   2.0000      -0.429655       -11.6915
 158   2.0000      -0.397199       -10.8083
 159   2.0000      -0.384570       -10.4647
 160   2.0000      -0.379213       -10.3189
 161   2.0000      -0.372601       -10.1390
 162   2.0000      -0.370869       -10.0919
 163   2.0000      -0.359952        -9.7948
 164   2.0000      -0.353085        -9.6079
 165   2.0000      -0.337480        -9.1833
 166   2.0000      -0.336601        -9.1594
 167   2.0000      -0.335640        -9.1332
 168   2.0000      -0.328761        -8.9460
 169   2.0000      -0.300716        -8.1829
 170   2.0000      -0.299824        -8.1586
 171   2.0000      -0.287589        -7.8257
 172   2.0000      -0.285556        -7.7704
 173   2.0000      -0.257943        -7.0190
 174   2.0000      -0.246597        -6.7102
 175   2.0000      -0.189049        -5.1443
 176   2.0000      -0.179145        -4.8748
 177   2.0000      -0.070118        -1.9080
 178   2.0000      -0.056410        -1.5350
 179   0.0000       0.029595         0.8053
 180   0.0000       0.068922         1.8755
 181   0.0000       0.092609         2.5200
 182   0.0000       0.102409         2.7867
 183   0.0000       0.121367         3.3026

MULLIKEN ATOMIC CHARGES
-----------------------
   0 C :    0.205047
   1 N :   -0.450986
   2 C :   -0.064073
   3 N :   -0.336168
   4 C :   -0.059504
   5 N :   -0.560888
   6 C :   -0.093424
   7 N :   -0.339306
   8 C :    0.203676
   9 N :   -0.562766
  10 C :    0.117891
  11 N :   -0.437373
  12 C :   -0.076943
  13 N :   -0.434700
  14 C :    0.233687
  15 N :   -0.441216
  16 C :    0.230810
  17 C :   -0.092224
  18 C :   -0.188754
  19 C :    0.220919
  20 C :    0.212195
  21 C :   -0.085116
  22 C :   -0.087304
  23 C :   -0.044111
  24 C :    0.200792
  25 C :    0.113866
  26 C :   -0.073747
  27 C :    0.215703
  28 C :   -0.056739
  29 C :   -0.181886
  30 C :    0.240669
  31 C :    0.221377
  32 C :   -0.063016
  33 C :   -0.071144
  34 C :   -0.049567
  35 C :    0.215209
  36 C :    0.111205
  37 C :   -0.065416
  38 C :    0.234989
  39 C :   -0.060355
  40 C :   -0.184476
  41 C :    0.222159
  42 C :    0.199460
  43 C :   -0.073252
  44 C :   -0.090369
  45 C :   -0.057495
  46 C :    0.206772
  47 C :    0.115704
  48 C :   -0.071224
  49 C :    0.232185
  50 C :   -0.049450
  51 C :   -0.191717
  52 H :    0.045285
  53 H :   -0.015397
  54 H :    0.047798
  55 H :    0.044331
  56 H :    0.052745
  57 H :    0.051174
  58 H :    0.050316
  59 H :   -0.004307
  60 H :    0.046370
  61 H :    0.171654
  62 H :    0.174415
  63 H :    0.057043
  64 H :   -0.011592
  65 H :    0.046969
  66 H :    0.057375
  67 H :    0.063561
  68 H :    0.058164
  69 H :    0.058223
  70 H :   -0.026651
  71 H :    0.047401
  72 H :    0.063916
  73 H :   -0.010946
  74 H :    0.053615
  75 H :    0.063042
  76 H :    0.068481
  77 H :    0.063051
  78 H :    0.062204
  79 H :   -0.014744
  80 H :    0.054045
  81 H :    0.053557
  82 H :   -0.024642
  83 H :    0.041716
  84 H :    0.053011
  85 H :    0.059418
  86 H :    0.055495
  87 H :    0.056660
  88 H :   -0.018164
  89 H :    0.045796
Sum of atomic charges:   -0.0000000

LOEWDIN ATOMIC CHARGES
----------------------
   0 C :   -0.016284
   1 N :    0.122046
   2 C :   -0.100943
   3 N :    0.181305
   4 C :    0.009477
   5 N :   -0.133209
   6 C :   -0.032505
   7 N :    0.176502
   8 C :   -0.016522
   9 N :   -0.139638
  10 C :    0.025742
  11 N :    0.144751
  12 C :   -0.104414
  13 N :    0.153905
  14 C :   -0.038674
  15 N :    0.137757
  16 C :   -0.053469
  17 C :   -0.033034
  18 C :   -0.102938
  19 C :   -0.086450
  20 C :    0.004266
  21 C :   -0.108397
  22 C :    0.041998
  23 C :   -0.017166
  24 C :   -0.005663
  25 C :    0.030466
  26 C :   -0.105952
  27 C :   -0.107065
  28 C :   -0.023681
  29 C :   -0.102207
  30 C :   -0.038549
  31 C :    0.013608
  32 C :   -0.095852
  33 C :    0.061005
  34 C :   -0.016758
  35 C :    0.008401
  36 C :    0.032451
  37 C :   -0.097433
  38 C :   -0.045368
  39 C :   -0.021872
  40 C :   -0.108159
  41 C :   -0.094388
  42 C :   -0.008861
  43 C :   -0.102441
  44 C :    0.031997
  45 C :   -0.025841
  46 C :   -0.002584
  47 C :    0.029183
  48 C :   -0.100544
  49 C :   -0.079176
  50 C :   -0.020970
  51 C :   -0.109401
  52 H :    0.025605
  53 H :    0.003683
  54 H :    0.041182
  55 H :    0.025682
  56 H :    0.023303
  57 H :    0.027913
  58 H :    0.028398
  59 H :    0.007088
  60 H :    0.041424
  61 H :    0.060137
  62 H :    0.061294
  63 H :    0.031417
  64 H :    0.002097
  65 H :    0.045635
  66 H :    0.030240
  67 H :    0.028834
  68 H :    0.032054
  69 H :    0.031131
  70 H :   -0.003192
  71 H :    0.044849
  72 H :    0.034273
  73 H :    0.005697
  74 H :    0.047888
  75 H :    0.033624
  76 H :    0.031452
  77 H :    0.033856
  78 H :    0.033489
  79 H :    0.003880
  80 H :    0.047510
  81 H :    0.028818
  82 H :   -0.002529
  83 H :    0.042645
  84 H :    0.029205
  85 H :    0.026693
  86 H :    0.030116
  87 H :    0.031142
  88 H :    0.000635
  89 H :    0.044377

  Mayer bond orders larger than 0.100000
B(  0-C ,  1-N ) :   1.0965 B(  0-C , 17-C ) :   1.6793 B(  0-C , 52-H ) :   0.9687
B(  1-N ,  8-C ) :   1.0948 B(  1-N , 10-C ) :   0.9723 B(  2-C , 12-C ) :   1.5237
B(  2-C , 16-C ) :   1.3391 B(  2-C , 53-H ) :   0.9771 B(  3-N , 14-C ) :   1.2125
B(  3-N , 16-C ) :   1.1935 B(  3-N , 61-H ) :   0.8992 B(  4-C ,  6-C ) :   1.2285
B(  4-C , 17-C ) :   1.2297 B(  4-C , 18-C ) :   1.3646 B(  5-N , 19-C ) :   1.4395
B(  5-N , 27-C ) :   1.3903 B(  6-C ,  8-C ) :   1.6797 B(  6-C , 54-H ) :   0.9683
B(  7-N , 30-C ) :   1.1934 B(  7-N , 38-C ) :   1.1967 B(  7-N , 62-H ) :   0.8974
B(  8-C , 55-H ) :   0.9697 B(  9-N , 41-C ) :   1.3985 B(  9-N , 49-C ) :   1.4238
B( 10-C , 56-H ) :   0.9765 B( 10-C , 57-H ) :   0.9829 B( 10-C , 58-H ) :   0.9833
B( 11-N , 20-C ) :   1.1300 B( 11-N , 24-C ) :   1.1169 B( 11-N , 25-C ) :   0.9581
B( 12-C , 14-C ) :   1.3418 B( 12-C , 59-H ) :   0.9753 B( 13-N , 31-C ) :   1.1433
B( 13-N , 35-C ) :   1.1367 B( 13-N , 36-C ) :   0.9506 B( 14-C , 18-C ) :   1.1612
B( 15-N , 42-C ) :   1.1101 B( 15-N , 46-C ) :   1.1182 B( 15-N , 47-C ) :   0.9625
B( 16-C , 51-C ) :   1.1852 B( 17-C , 60-H ) :   0.9680 B( 18-C , 19-C ) :   1.1699
B( 19-C , 21-C ) :   1.2292 B( 20-C , 28-C ) :   1.6234 B( 20-C , 63-H ) :   0.9701
B( 21-C , 26-C ) :   1.6294 B( 21-C , 64-H ) :   0.9717 B( 22-C , 23-C ) :   1.2890
B( 22-C , 28-C ) :   1.2714 B( 22-C , 29-C ) :   1.2215 B( 23-C , 24-C ) :   1.6163
B( 23-C , 65-H ) :   0.9706 B( 24-C , 66-H ) :   0.9693 B( 25-C , 67-H ) :   0.9761
B( 25-C , 68-H ) :   0.9828 B( 25-C , 69-H ) :   0.9822 B( 26-C , 27-C ) :   1.2237
B( 26-C , 70-H ) :   0.9721 B( 27-C , 29-C ) :   1.2220 B( 28-C , 71-H ) :   0.9716
B( 29-C , 30-C ) :   1.2295 B( 30-C , 32-C ) :   1.2943 B( 31-C , 39-C ) :   1.6096
B( 31-C , 72-H ) :   0.9689 B( 32-C , 37-C ) :   1.5646 B( 32-C , 73-H ) :   0.9781
B( 33-C , 34-C ) :   1.2923 B( 33-C , 39-C ) :   1.2850 B( 33-C , 40-C ) :   1.2109
B( 34-C , 35-C ) :   1.6061 B( 34-C , 74-H ) :   0.9700 B( 35-C , 75-H ) :   0.9689
B( 36-C , 76-H ) :   0.9765 B( 36-C , 77-H ) :   0.9818 B( 36-C , 78-H ) :   0.9827
B( 37-C , 38-C ) :   1.2972 B( 37-C , 79-H ) :   0.9772 B( 38-C , 40-C ) :   1.2223
B( 39-C , 80-H ) :   0.9711 B( 40-C , 41-C ) :   1.2343 B( 41-C , 43-C ) :   1.2013
B( 42-C , 50-C ) :   1.6351 B( 42-C , 81-H ) :   0.9696 B( 43-C , 48-C ) :   1.6503
B( 43-C , 82-H ) :   0.9728 B( 44-C , 45-C ) :   1.2653 B( 44-C , 50-C ) :   1.2683
B( 44-C , 51-C ) :   1.2618 B( 45-C , 46-C ) :   1.6355 B( 45-C , 83-H ) :   0.9715
B( 46-C , 84-H ) :   0.9702 B( 47-C , 85-H ) :   0.9762 B( 47-C , 86-H ) :   0.9829
B( 47-C , 87-H ) :   0.9825 B( 48-C , 49-C ) :   1.2033 B( 48-C , 88-H ) :   0.9744
B( 49-C , 51-C ) :   1.2269 B( 50-C , 89-H ) :   0.9711

MP2 TOTAL ENERGY:    -2130.915127235 Eh
FINAL SINGLE POINT ENERGY     -2130.915127234632

DIPOLE MOMENT
-------------
                                X             Y             Z
Electronic contribution:      1.11391      -2.73921      -0.21781
Nuclear contribution   :      0.01756       0.19511       0.22756
                        -----------------------------------------
Total Dipole Moment    :      1.13147      -2.54410       0.00975
                        -----------------------------------------
Magnitude (a.u.)       :      2.78438
Magnitude (Debye)      :      7.07733

Rotational constants in cm-1:     0.001499     0.001476     0.000762
Rotational constants in MHz :    44.935069    44.247598    22.830259

                             ****ORCA TERMINATED NORMALLY****
TOTAL RUN TIME: 0 days 1 hours 31 minutes 14 seconds 963 msec
