                         Program Version 5.0.4 -  RELEASE  -
|  1> ! PAL2
|  2> ! mp2 cc-pvdz TightSCF  NoKeepInts
|  3>
|  4> %scf
|  5>   MaxCore 2000
|  6> end
|  7> %mp2
|  8>   MaxCore 2000
|  9> end
| 10> * xyz 0 1
| 11>    C       -4.73100         5.32000         0.82200
| 12>    C        1.47400         4.04100         0.05700
| 13>    C       -2.80200         4.09300         0.04900
| 14>    C       -2.45600         5.21800        -0.71500
| 15>    C       -3.24900         6.34800        -0.68400
| 16>    C       -5.17800         7.62600         0.11500
| 17>    C        0.13200         4.30700         0.06100
| 18>    C       -0.56900         3.05600         0.04700
| 19>    C        1.64900         2.61800         0.02300
| 20>    C       -3.96600         4.16900         0.82900
| 21>    N       -4.37000         6.38700         0.07400
| 22>    N        0.38800         2.06700         0.02500
| 23>    N       -2.01000         0.39500        -0.07500
| 24>    N       -0.38800        -2.07400        -0.02700
| 25>    N        2.01000        -0.40100         0.06500
| 26>    C       -1.96000         2.86100         0.02400
| 27>    C       -2.62300         1.61500        -0.01800
| 28>    C       -5.57300        -4.32900         1.06600
| 29>    C       -4.07300         1.47100         0.05600
| 30>    C       -4.10600        -2.75600        -0.02600
| 31>    C       -4.99500        -2.75700        -1.11100
| 32>    C       -6.13200        -3.54200        -1.07600
| 33>    C       -7.65100        -5.11300         0.04000
| 34>    C       -4.32400         0.14100         0.03700
| 35>    C       -3.02500        -0.52000        -0.04800
| 36>    C       -4.42200        -3.56600         1.07500
| 37>    N       -6.40700        -4.31300         0.00100
| 38>    C       -2.86700        -1.92200        -0.04000
| 39>    C       -1.65000        -2.62400        -0.02700
| 40>    C        3.56800        -6.14200        -1.04000
| 41>    C       -1.47600        -4.04900        -0.03400
| 42>    C        2.80300        -4.09900        -0.00800
| 43>    C        3.65700        -4.38400         1.06900
| 44>    C        4.42700        -5.53000         1.05900
| 45>    C        5.24500        -7.58800         0.01400
| 46>    C       -0.13400        -4.31500        -0.02200
| 47>    C        0.56800        -3.06400        -0.02700
| 48>    C        2.77500        -5.01200        -1.07400
| 49>    N        4.37600        -6.39100         0.01700
| 50>    C        1.95900        -2.86900        -0.00900
| 51>    C        2.62100        -1.62200         0.00900
| 52>    C        5.54300         4.33900        -1.13000
| 53>    C        4.07000        -1.47900        -0.09400
| 54>    C        4.10400         2.75100        -0.02100
| 55>    C        5.02700         2.72900         1.03600
| 56>    C        6.16600         3.50900         0.97800
| 57>    C        7.61900         5.15300        -0.11500
| 58>    C        4.32100        -0.14800        -0.09200
| 59>    C        3.02500         0.51400         0.01500
| 60>    C        4.38700         3.58200        -1.11500
| 61>    C        2.86600         1.91600         0.01300
| 62>    N        6.41300         4.29600        -0.09500
| 63>    H       -5.64300         5.41900         1.39800
| 64>    H        2.27400         4.76600         0.08100
| 65>    H       -1.56400         5.22400        -1.33000
| 66>    H       -3.01900         7.24200        -1.24900
| 67>    H       -4.76600         8.29400         0.87500
| 68>    H       -5.13900         8.10300        -0.86400
| 69>    H       -6.20600         7.36600         0.36300
| 70>    H       -0.33200         5.28200         0.06900
| 71>    H       -4.29400         3.32900         1.43000
| 72>    H        0.18200         1.07200         0.00500
| 73>    H       -0.18300        -1.08000        -0.02100
| 74>    H       -5.86400        -4.96200         1.89500
| 75>    H       -4.79400         2.27200         0.13900
| 76>    H       -4.80000        -2.16000        -1.99400
| 77>    H       -6.84100        -3.58200        -1.89300
| 78>    H       -8.42800        -4.53600         0.54600
| 79>    H       -7.95600        -5.33700        -0.98100
| 80>    H       -7.45600        -6.03700         0.58400
| 81>    H       -5.28700        -0.34400         0.10000
| 82>    H       -3.78000        -3.60100         1.94700
| 83>    H        3.58700        -6.86800        -1.84300
| 84>    H       -2.27600        -4.77400        -0.05000
| 85>    H        3.71400        -3.72400         1.92600
| 86>    H        5.09200        -5.79500         1.87100
| 87>    H        6.20500        -7.32900        -0.43900
| 88>    H        5.39300        -7.91700         1.04200
| 89>    H        4.75900        -8.37300        -0.56400
| 90>    H        0.32900        -5.29000        -0.00800
| 91>    H        2.14600        -4.84200        -1.94000
| 92>    H        5.80800         4.98600        -1.95600
| 93>    H        4.78800        -2.28100        -0.18500
| 94>    H        4.86000         2.11400         1.91200
| 95>    H        6.90100         3.53100         1.77200
| 96>    H        7.38300         6.10900         0.35600
| 97>    H        8.41400         4.65200         0.43500
| 98>    H        7.92100         5.31000        -1.15000
| 99>    H        5.28300         0.33600        -0.17900
|100>    H        3.72000         3.63200        -1.96700
|101> *
|102>
|103>                          ****END OF INPUT****

CARTESIAN COORDINATES (ANGSTROEM)
---------------------------------
  C     -4.731000    5.320000    0.822000
  C      1.474000    4.041000    0.057000
  C     -2.802000    4.093000    0.049000
  C     -2.456000    5.218000   -0.715000
  C     -3.249000    6.348000   -0.684000
  C     -5.178000    7.626000    0.115000
  C      0.132000    4.307000    0.061000
  C     -0.569000    3.056000    0.047000
  C      1.649000    2.618000    0.023000
  C     -3.966000    4.169000    0.829000
  N     -4.370000    6.387000    0.074000
  N      0.388000    2.067000    0.025000
  N     -2.010000    0.395000   -0.075000
  N     -0.388000   -2.074000   -0.027000
  N      2.010000   -0.401000    0.065000
  C     -1.960000    2.861000    0.024000
  C     -2.623000    1.615000   -0.018000
  C     -5.573000   -4.329000    1.066000
  C     -4.073000    1.471000    0.056000
  C     -4.106000   -2.756000   -0.026000
  C     -4.995000   -2.757000   -1.111000
  C     -6.132000   -3.542000   -1.076000
  C     -7.651000   -5.113000    0.040000
  C     -4.324000    0.141000    0.037000
  C     -3.025000   -0.520000   -0.048000
  C     -4.422000   -3.566000    1.075000
  N     -6.407000   -4.313000    0.001000
  C     -2.867000   -1.922000   -0.040000
  C     -1.650000   -2.624000   -0.027000
  C      3.568000   -6.142000   -1.040000
  C     -1.476000   -4.049000   -0.034000
  C      2.803000   -4.099000   -0.008000
  C      3.657000   -4.384000    1.069000
  C      4.427000   -5.530000    1.059000
  C      5.245000   -7.588000    0.014000
  C     -0.134000   -4.315000   -0.022000
  C      0.568000   -3.064000   -0.027000
  C      2.775000   -5.012000   -1.074000
  N      4.376000   -6.391000    0.017000
  C      1.959000   -2.869000   -0.009000
  C      2.621000   -1.622000    0.009000
  C      5.543000    4.339000   -1.130000
  C      4.070000   -1.479000   -0.094000
  C      4.104000    2.751000   -0.021000
  C      5.027000    2.729000    1.036000
  C      6.166000    3.509000    0.978000
  C      7.619000    5.153000   -0.115000
  C      4.321000   -0.148000   -0.092000
  C      3.025000    0.514000    0.015000
  C      4.387000    3.582000   -1.115000
  C      2.866000    1.916000    0.013000
  N      6.413000    4.296000   -0.095000
  H     -5.643000    5.419000    1.398000
  H      2.274000    4.766000    0.081000
  H     -1.564000    5.224000   -1.330000
  H     -3.019000    7.242000   -1.249000
  H     -4.766000    8.294000    0.875000
  H     -5.139000    8.103000   -0.864000
  H     -6.206000    7.366000    0.363000
  H     -0.332000    5.282000    0.069000
  H     -4.294000    3.329000    1.430000
  H      0.182000    1.072000    0.005000
  H     -0.183000   -1.080000   -0.021000
  H     -5.864000   -4.962000    1.895000
  H     -4.794000    2.272000    0.139000
  H     -4.800000   -2.160000   -1.994000
  H     -6.841000   -3.582000   -1.893000
  H     -8.428000   -4.536000    0.546000
  H     -7.956000   -5.337000   -0.981000
  H     -7.456000   -6.037000    0.584000
  H     -5.287000   -0.344000    0.100000
  H     -3.780000   -3.601000    1.947000
  H      3.587000   -6.868000   -1.843000
  H     -2.276000   -4.774000   -0.050000
  H      3.714000   -3.724000    1.926000
  H      5.092000   -5.795000    1.871000
  H      6.205000   -7.329000   -0.439000
  H      5.393000   -7.917000    1.042000
  H      4.759000   -8.373000   -0.564000
  H      0.329000   -5.290000   -0.008000
  H      2.146000   -4.842000   -1.940000
  H      5.808000    4.986000   -1.956000
  H      4.788000   -2.281000   -0.185000
  H      4.860000    2.114000    1.912000
  H      6.901000    3.531000    1.772000
  H      7.383000    6.109000    0.356000
  H      8.414000    4.652000    0.435000
  H      7.921000    5.310000   -1.150000
  H      5.283000    0.336000   -0.179000
  H      3.720000    3.632000   -1.967000

 Total Charge           Charge          ....    0
 Multiplicity           Mult            ....    1
 Number of Electrons    NEL             ....  358
 Basis Dimension        Dim             ....  918

ORBITAL ENERGIES
----------------

  NO   OCC          E(Eh)            E(eV)
   0   2.0000     -15.663614      -426.2286
   1   2.0000     -15.636380      -425.4875
   2   2.0000     -15.629967      -425.3130
   3   2.0000     -15.599382      -424.4808
   4   2.0000     -15.523302      -422.4105
   5   2.0000     -15.516365      -422.2218
   6   2.0000     -15.450135      -420.4195
   7   2.0000     -15.442547      -420.2131
   8   2.0000     -11.317929      -307.9765
   9   2.0000     -11.316257      -307.9310
  10   2.0000     -11.314394      -307.8803
  11   2.0000     -11.300804      -307.5105
  12   2.0000     -11.297069      -307.4089
  13   2.0000     -11.294128      -307.3288
  14   2.0000     -11.289514      -307.2033
  15   2.0000     -11.288586      -307.1780
  16   2.0000     -11.285701      -307.0996
  17   2.0000     -11.278576      -306.9057
  18   2.0000     -11.266831      -306.5861
  19   2.0000     -11.263257      -306.4888
  20   2.0000     -11.262634      -306.4719
  21   2.0000     -11.251967      -306.1816
  22   2.0000     -11.251039      -306.1563
  23   2.0000     -11.239884      -305.8528
  24   2.0000     -11.234672      -305.7110
  25   2.0000     -11.232864      -305.6618
  26   2.0000     -11.232073      -305.6403
  27   2.0000     -11.228221      -305.5354
  28   2.0000     -11.228112      -305.5325
  29   2.0000     -11.208662      -305.0032
  30   2.0000     -11.207260      -304.9651
  31   2.0000     -11.206247      -304.9375
  32   2.0000     -11.203983      -304.8759
  33   2.0000     -11.201857      -304.8180
  34   2.0000     -11.191199      -304.5280
  35   2.0000     -11.190565      -304.5107
  36   2.0000     -11.184111      -304.3351
  37   2.0000     -11.181759      -304.2711
  38   2.0000     -11.180969      -304.2496
  39   2.0000     -11.172852      -304.0288
  40   2.0000     -11.169165      -303.9284
  41   2.0000     -11.168817      -303.9190
  42   2.0000     -11.165147      -303.8191
  43   2.0000     -11.164137      -303.7916
  44   2.0000     -11.162423      -303.7450
  45   2.0000     -11.160791      -303.7006
  46   2.0000     -11.154578      -303.5315
  47   2.0000     -11.150714      -303.4264
  48   2.0000     -11.149690      -303.3985
  49   2.0000     -11.144312      -303.2522
  50   2.0000     -11.135999      -303.0259
  51   2.0000     -11.129177      -302.8403
  52   2.0000      -1.346610       -36.6431
  53   2.0000      -1.323273       -36.0081
  54   2.0000      -1.317918       -35.8624
  55   2.0000      -1.292390       -35.1677
  56   2.0000      -1.223226       -33.2857
  57   2.0000      -1.211308       -32.9614
  58   2.0000      -1.168253       -31.7898
  59   2.0000      -1.154222       -31.4080
  60   2.0000      -1.132015       -30.8037
  61   2.0000      -1.111800       -30.2536
  62   2.0000      -1.107448       -30.1352
  63   2.0000      -1.086981       -29.5783
  64   2.0000      -1.069278       -29.0965
  65   2.0000      -1.047317       -28.4989
  66   2.0000      -1.042639       -28.3716
  67   2.0000      -1.033703       -28.1285
  68   2.0000      -1.019928       -27.7537
  69   2.0000      -1.013450       -27.5774
  70   2.0000      -1.009772       -27.4773
  71   2.0000      -0.992799       -27.0154
  72   2.0000      -0.987189       -26.8628
  73   2.0000      -0.976613       -26.5750
  74   2.0000      -0.973104       -26.4795
  75   2.0000      -0.959668       -26.1139
  76   2.0000      -0.951053       -25.8795
  77   2.0000      -0.948108       -25.7993
  78   2.0000      -0.936413       -25.4811
  79   2.0000      -0.921451       -25.0740
  80   2.0000      -0.900029       -24.4910
  81   2.0000      -0.890683       -24.2367
  82   2.0000      -0.874734       -23.8027
  83   2.0000      -0.870567       -23.6893
  84   2.0000      -0.865537       -23.5525
  85   2.0000      -0.855714       -23.2852
  86   2.0000      -0.844944       -22.9921
  87   2.0000      -0.838187       -22.8082
  88   2.0000      -0.822734       -22.3877
  89   2.0000      -0.798595       -21.7309
  90   2.0000      -0.794672       -21.6241
  91   2.0000      -0.744937       -20.2708
  92   2.0000      -0.737843       -20.0777
  93   2.0000      -0.731546       -19.9064
  94   2.0000      -0.722727       -19.6664
  95   2.0000      -0.720769       -19.6131
  96   2.0000      -0.713926       -19.4269
  97   2.0000      -0.706942       -19.2369
  98   2.0000      -0.702880       -19.1263
  99   2.0000      -0.695852       -18.9351
 100   2.0000      -0.693934       -18.8829
 101   2.0000      -0.682001       -18.5582
 102   2.0000      -0.678786       -18.4707
 103   2.0000      -0.675843       -18.3906
 104   2.0000      -0.673752       -18.3337
 105   2.0000      -0.671710       -18.2782
 106   2.0000      -0.664954       -18.0943
 107   2.0000      -0.662605       -18.0304
 108   2.0000      -0.655336       -17.8326
 109   2.0000      -0.654164       -17.8007
 110   2.0000      -0.650147       -17.6914
 111   2.0000      -0.646919       -17.6036
 112   2.0000      -0.642732       -17.4896
 113   2.0000      -0.637701       -17.3527
 114   2.0000      -0.634342       -17.2613
 115   2.0000      -0.630493       -17.1566
 116   2.0000      -0.625453       -17.0194
 117   2.0000      -0.615823       -16.7574
 118   2.0000      -0.614136       -16.7115
 119   2.0000      -0.611525       -16.6404
 120   2.0000      -0.609877       -16.5956
 121   2.0000      -0.601961       -16.3802
 122   2.0000      -0.600452       -16.3391
 123   2.0000      -0.589133       -16.0311
 124   2.0000      -0.585848       -15.9417
 125   2.0000      -0.582640       -15.8544
 126   2.0000      -0.579342       -15.7647
 127   2.0000      -0.576861       -15.6972
 128   2.0000      -0.563691       -15.3388
 129   2.0000      -0.558529       -15.1983
 130   2.0000      -0.554311       -15.0836
 131   2.0000      -0.548885       -14.9359
 132   2.0000      -0.541627       -14.7384
 133   2.0000      -0.538061       -14.6414
 134   2.0000      -0.535156       -14.5623
 135   2.0000      -0.534761       -14.5516
 136   2.0000      -0.526188       -14.3183
 137   2.0000      -0.524589       -14.2748
 138   2.0000      -0.516679       -14.0596
 139   2.0000      -0.515612       -14.0305
 140   2.0000      -0.511075       -13.9070
 141   2.0000      -0.510109       -13.8808
 142   2.0000      -0.508323       -13.8322
 143   2.0000      -0.502480       -13.6732
 144   2.0000      -0.501378       -13.6432
 145   2.0000      -0.497991       -13.5510
 146   2.0000      -0.494293       -13.4504
 147   2.0000      -0.486532       -13.2392
 148   2.0000      -0.484435       -13.1821
 149   2.0000      -0.468606       -12.7514
 150   2.0000      -0.463930       -12.6242
 151   2.0000      -0.456041       -12.4095
 152   2.0000      -0.448733       -12.2107
 153   2.0000      -0.446326       -12.1452
 154   2.0000      -0.444553       -12.0969
 155   2.0000      -0.440716       -11.9925
 156   2.0000      -0.431895       -11.7525
 157   2.0000      -0.426048       -11.5934
 158   2.0000      -0.400051       -10.8859
 159   2.0000      -0.387415       -10.5421
 160   2.0000      -0.378470       -10.2987
 161   2.0000      -0.376508       -10.2453
 162   2.0000      -0.370478       -10.0812
 163   2.0000      -0.358150        -9.7458
 164   2.0000      -0.354384        -9.6433
 165   2.0000      -0.338094        -9.2000
 166   2.0000      -0.336956        -9.1690
 167   2.0000      -0.332010        -9.0345
 168   2.0000      -0.327493        -8.9115
 169   2.0000      -0.301679        -8.2091
 170   2.0000      -0.299859        -8.1596
 171   2.0000      -0.287230        -7.8159
 172   2.0000      -0.284579        -7.7438
 173   2.0000      -0.260253        -7.0818
 174   2.0000      -0.245337        -6.6760
 175   2.0000      -0.189442        -5.1550
 176   2.0000      -0.179649        -4.8885
 177   2.0000      -0.072201        -1.9647
 178   2.0000      -0.056984        -1.5506
 179   0.0000       0.029171         0.7938
 180   0.0000       0.068114         1.8535
 181   0.0000       0.092099         2.5061
 182   0.0000       0.105069         2.8591
 183   0.0000       0.117004         3.1839

MULLIKEN ATOMIC CHARGES
-----------------------
   0 C :    0.208121
   1 N :   -0.452156
   2 C :   -0.062789
   3 N :   -0.336013
   4 C :   -0.049496
   5 N :   -0.562957
   6 C :   -0.103828
   7 N :   -0.339432
   8 C :    0.203913
   9 N :   -0.562676
  10 C :    0.118280
  11 N :   -0.437906
  12 C :   -0.083370
  13 N :   -0.433268
  14 C :    0.240629
  15 N :   -0.441107
  16 C :    0.228388
  17 C :   -0.105667
  18 C :   -0.207408
  19 C :    0.234431
  20 C :    0.211987
  21 C :   -0.095265
  22 C :   -0.090023
  23 C :   -0.042400
  24 C :    0.197723
  25 C :    0.114272
  26 C :   -0.074666
  27 C :    0.214512
  28 C :   -0.058708
  29 C :   -0.180772
  30 C :    0.242322
  31 C :    0.223571
  32 C :   -0.062914
  33 C :   -0.068017
  34 C :   -0.050428
  35 C :    0.219305
  36 C :    0.110362
  37 C :   -0.065309
  38 C :    0.233573
  39 C :   -0.059210
  40 C :   -0.184025
  41 C :    0.224069
  42 C :    0.198998
  43 C :   -0.072708
  44 C :   -0.089784
  45 C :   -0.058333
  46 C :    0.208450
  47 C :    0.115535
  48 C :   -0.069537
  49 C :    0.234542
  50 C :   -0.048754
  51 C :   -0.190604
  52 H :    0.044073
  53 H :   -0.015589
  54 H :    0.048804
  55 H :    0.041958
  56 H :    0.051515
  57 H :    0.049897
  58 H :    0.049773
  59 H :   -0.000947
  60 H :    0.051640
  61 H :    0.171624
  62 H :    0.174609
  63 H :    0.055921
  64 H :   -0.009045
  65 H :    0.047617
  66 H :    0.056668
  67 H :    0.062640
  68 H :    0.057756
  69 H :    0.057329
  70 H :   -0.027669
  71 H :    0.045892
  72 H :    0.066052
  73 H :   -0.010020
  74 H :    0.055537
  75 H :    0.065295
  76 H :    0.070294
  77 H :    0.064470
  78 H :    0.063714
  79 H :   -0.015491
  80 H :    0.056222
  81 H :    0.053642
  82 H :   -0.024357
  83 H :    0.042197
  84 H :    0.053686
  85 H :    0.060110
  86 H :    0.055680
  87 H :    0.056788
  88 H :   -0.016804
  89 H :    0.045069
Sum of atomic charges:    0.0000000

LOEWDIN ATOMIC CHARGES
----------------------
   0 C :   -0.016703
   1 N :    0.120286
   2 C :   -0.100989
   3 N :    0.182579
   4 C :    0.003392
   5 N :   -0.133782
   6 C :   -0.035641
   7 N :    0.176469
   8 C :   -0.019874
   9 N :   -0.140107
  10 C :    0.025187
  11 N :    0.143205
  12 C :   -0.108819
  13 N :    0.157358
  14 C :   -0.034339
  15 N :    0.138269
  16 C :   -0.055679
  17 C :   -0.037160
  18 C :   -0.103181
  19 C :   -0.083545
  20 C :    0.003614
  21 C :   -0.115420
  22 C :    0.038677
  23 C :   -0.016061
  24 C :   -0.008634
  25 C :    0.030099
  26 C :   -0.105466
  27 C :   -0.110095
  28 C :   -0.025407
  29 C :   -0.101921
  30 C :   -0.035508
  31 C :    0.016410
  32 C :   -0.095976
  33 C :    0.066864
  34 C :   -0.016548
  35 C :    0.012902
  36 C :    0.033243
  37 C :   -0.096805
  38 C :   -0.048006
  39 C :   -0.020403
  40 C :   -0.108370
  41 C :   -0.092432
  42 C :   -0.009292
  43 C :   -0.101052
  44 C :    0.032676
  45 C :   -0.026192
  46 C :   -0.000926
  47 C :    0.029341
  48 C :   -0.098057
  49 C :   -0.076285
  50 C :   -0.020673
  51 C :   -0.108638
  52 H :    0.025447
  53 H :    0.003566
  54 H :    0.040780
  55 H :    0.024585
  56 H :    0.022774
  57 H :    0.027358
  58 H :    0.028056
  59 H :    0.008419
  60 H :    0.042528
  61 H :    0.060180
  62 H :    0.061415
  63 H :    0.030930
  64 H :    0.003589
  65 H :    0.045937
  66 H :    0.029828
  67 H :    0.028365
  68 H :    0.031863
  69 H :    0.030716
  70 H :   -0.003525
  71 H :    0.044083
  72 H :    0.035253
  73 H :    0.006144
  74 H :    0.048652
  75 H :    0.034734
  76 H :    0.032398
  77 H :    0.034524
  78 H :    0.034191
  79 H :    0.003504
  80 H :    0.048497
  81 H :    0.028829
  82 H :   -0.002429
  83 H :    0.042799
  84 H :    0.029557
  85 H :    0.027017
  86 H :    0.030218
  87 H :    0.031204
  88 H :    0.001279
  89 H :    0.044150

  Mayer bond orders larger than 0.100000
B(  0-C ,  1-N ) :   1.0964 B(  0-C , 17-C ) :   1.6877 B(  0-C , 52-H ) :   0.9681
B(  1-N ,  8-C ) :   1.0921 B(  1-N , 10-C ) :   0.9740 B(  2-C , 12-C ) :   1.5172
B(  2-C , 16-C ) :   1.3468 B(  2-C , 53-H ) :   0.9763 B(  3-N , 14-C ) :   1.2149
B(  3-N , 16-C ) :   1.1926 B(  3-N , 61-H ) :   0.8990 B(  4-C ,  6-C ) :   1.2235
B(  4-C , 17-C ) :   1.2233 B(  4-C , 18-C ) :   1.3933 B(  5-N , 19-C ) :   1.4447
B(  5-N , 27-C ) :   1.3851 B(  6-C ,  8-C ) :   1.6874 B(  6-C , 54-H ) :   0.9652
B(  7-N , 30-C ) :   1.1951 B(  7-N , 38-C ) :   1.1945 B(  7-N , 62-H ) :   0.8973
B(  8-C , 55-H ) :   0.9688 B(  9-N , 41-C ) :   1.3981 B(  9-N , 49-C ) :   1.4228
B( 10-C , 56-H ) :   0.9767 B( 10-C , 57-H ) :   0.9821 B( 10-C , 58-H ) :   0.9842
B( 11-N , 20-C ) :   1.1296 B( 11-N , 24-C ) :   1.1124 B( 11-N , 25-C ) :   0.9593
B( 12-C , 14-C ) :   1.3478 B( 12-C , 59-H ) :   0.9743 B( 13-N , 31-C ) :   1.1479
B( 13-N , 35-C ) :   1.1436 B( 13-N , 36-C ) :   0.9480 B( 14-C , 18-C ) :   1.1477
B( 15-N , 42-C ) :   1.1097 B( 15-N , 46-C ) :   1.1200 B( 15-N , 47-C ) :   0.9619
B( 16-C , 51-C ) :   1.1789 B( 17-C , 60-H ) :   0.9646 B( 18-C , 19-C ) :   1.1557
B( 19-C , 21-C ) :   1.2340 B( 20-C , 28-C ) :   1.6262 B( 20-C , 63-H ) :   0.9702
B( 21-C , 26-C ) :   1.6228 B( 21-C , 64-H ) :   0.9699 B( 22-C , 23-C ) :   1.2887
B( 22-C , 28-C ) :   1.2678 B( 22-C , 29-C ) :   1.2226 B( 23-C , 24-C ) :   1.6185
B( 23-C , 65-H ) :   0.9705 B( 24-C , 66-H ) :   0.9694 B( 25-C , 67-H ) :   0.9761
B( 25-C , 68-H ) :   0.9828 B( 25-C , 69-H ) :   0.9822 B( 26-C , 27-C ) :   1.2300
B( 26-C , 70-H ) :   0.9717 B( 27-C , 29-C ) :   1.2212 B( 28-C , 71-H ) :   0.9718
B( 29-C , 30-C ) :   1.2313 B( 30-C , 32-C ) :   1.2923 B( 31-C , 39-C ) :   1.6035
B( 31-C , 72-H ) :   0.9687 B( 32-C , 37-C ) :   1.5665 B( 32-C , 73-H ) :   0.9783
B( 33-C , 34-C ) :   1.2961 B( 33-C , 39-C ) :   1.2906 B( 33-C , 40-C ) :   1.2018
B( 34-C , 35-C ) :   1.6004 B( 34-C , 74-H ) :   0.9699 B( 35-C , 75-H ) :   0.9687
B( 36-C , 76-H ) :   0.9766 B( 36-C , 77-H ) :   0.9818 B( 36-C , 78-H ) :   0.9826
B( 37-C , 38-C ) :   1.2958 B( 37-C , 79-H ) :   0.9770 B( 38-C , 40-C ) :   1.2236
B( 39-C , 80-H ) :   0.9709 B( 40-C , 41-C ) :   1.2400 B( 41-C , 43-C ) :   1.1948
B( 42-C , 50-C ) :   1.6340 B( 42-C , 81-H ) :   0.9697 B( 43-C , 48-C ) :   1.6574
B( 43-C , 82-H ) :   0.9727 B( 44-C , 45-C ) :   1.2654 B( 44-C , 50-C ) :   1.2699
B( 44-C , 51-C ) :   1.2600 B( 45-C , 46-C ) :   1.6348 B( 45-C , 83-H ) :   0.9716
B( 46-C , 84-H ) :   0.9701 B( 47-C , 85-H ) :   0.9761 B( 47-C , 86-H ) :   0.9829
B( 47-C , 87-H ) :   0.9825 B( 48-C , 49-C ) :   1.1973 B( 48-C , 88-H ) :   0.9745
B( 49-C , 51-C ) :   1.2342 B( 50-C , 89-H ) :   0.9711

MP2 TOTAL ENERGY:    -2130.905371323 Eh
FINAL SINGLE POINT ENERGY     -2130.905371323471

DIPOLE MOMENT
-------------
                                X             Y             Z
Electronic contribution:      1.59183      -3.17203      -0.14482
Nuclear contribution   :      0.07940       0.24156       0.14890
                        -----------------------------------------
Total Dipole Moment    :      1.67123      -2.93047       0.00408
                        -----------------------------------------
Magnitude (a.u.)       :      3.37352
Magnitude (Debye)      :      8.57481

Rotational constants in cm-1:     0.001500     0.001477     0.000761
Rotational constants in MHz :    44.958380    44.278981    22.816205

                             ****ORCA TERMINATED NORMALLY****
TOTAL RUN TIME: 0 days 1 hours 21 minutes 46 seconds 744 msec
