                         Program Version 5.0.4 -  RELEASE  -
|  1> ! PAL2
|  2> ! mp2 cc-pvdz TightSCF  NoKeepInts
|  3>
|  4> %scf
|  5>   MaxCore 2000
|  6> end
|  7> %mp2
|  8>   MaxCore 2000
|  9> end
| 10> * xyz 0 1
| 11>    C       -3.49500         6.20000        -0.90300
| 12>    C        1.47400         4.04100         0.05700
| 13>    C       -2.80200         4.09300         0.04900
| 14>    C       -3.71400         4.32200         1.09100
| 15>    C       -4.48100         5.47000         1.10100
| 16>    C       -5.22800         7.59200         0.13600
| 17>    C        0.13200         4.30700         0.06100
| 18>    C       -0.56900         3.05600         0.04700
| 19>    C        1.64900         2.61800         0.02300
| 20>    C       -2.71000         5.06400        -0.96000
| 21>    N       -4.36400         6.39000         0.11600
| 22>    N        0.38800         2.06700         0.02500
| 23>    N       -2.01000         0.39500        -0.07500
| 24>    N       -0.38800        -2.07400        -0.02700
| 25>    N        2.01000        -0.40100         0.06500
| 26>    C       -1.96000         2.86100         0.02400
| 27>    C       -2.62300         1.61500        -0.01800
| 28>    C       -5.57300        -4.32900         1.06600
| 29>    C       -4.07300         1.47100         0.05600
| 30>    C       -4.10600        -2.75600        -0.02600
| 31>    C       -4.99500        -2.75700        -1.11100
| 32>    C       -6.13200        -3.54200        -1.07600
| 33>    C       -7.65100        -5.11300         0.04000
| 34>    C       -4.32400         0.14100         0.03700
| 35>    C       -3.02500        -0.52000        -0.04800
| 36>    C       -4.42200        -3.56600         1.07500
| 37>    N       -6.40700        -4.31300         0.00100
| 38>    C       -2.86700        -1.92200        -0.04000
| 39>    C       -1.65000        -2.62400        -0.02700
| 40>    C        3.56800        -6.14200        -1.04000
| 41>    C       -1.47600        -4.04900        -0.03400
| 42>    C        2.80300        -4.09900        -0.00800
| 43>    C        3.65700        -4.38400         1.06900
| 44>    C        4.42700        -5.53000         1.05900
| 45>    C        5.24500        -7.58800         0.01400
| 46>    C       -0.13400        -4.31500        -0.02200
| 47>    C        0.56800        -3.06400        -0.02700
| 48>    C        2.77500        -5.01200        -1.07400
| 49>    N        4.37600        -6.39100         0.01700
| 50>    C        1.95900        -2.86900        -0.00900
| 51>    C        2.62100        -1.62200         0.00900
| 52>    C        5.54300         4.33900        -1.13000
| 53>    C        4.07000        -1.47900        -0.09400
| 54>    C        4.10400         2.75100        -0.02100
| 55>    C        5.02700         2.72900         1.03600
| 56>    C        6.16600         3.50900         0.97800
| 57>    C        7.61900         5.15300        -0.11500
| 58>    C        4.32100        -0.14800        -0.09200
| 59>    C        3.02500         0.51400         0.01500
| 60>    C        4.38700         3.58200        -1.11500
| 61>    C        2.86600         1.91600         0.01300
| 62>    N        6.41300         4.29600        -0.09500
| 63>    H       -3.44900         6.98000        -1.65200
| 64>    H        2.27400         4.76600         0.08100
| 65>    H       -3.83700         3.60500         1.89400
| 66>    H       -5.20300         5.68600         1.87800
| 67>    H       -6.18000         7.35300        -0.34400
| 68>    H       -5.39300         7.88800         1.17100
| 69>    H       -4.72600         8.39300        -0.40700
| 70>    H       -0.33200         5.28200         0.06900
| 71>    H       -2.01500         4.95200        -1.78400
| 72>    H        0.18200         1.07200         0.00500
| 73>    H       -0.18300        -1.08000        -0.02100
| 74>    H       -5.86400        -4.96200         1.89500
| 75>    H       -4.79400         2.27200         0.13900
| 76>    H       -4.80000        -2.16000        -1.99400
| 77>    H       -6.84100        -3.58200        -1.89300
| 78>    H       -8.42800        -4.53600         0.54600
| 79>    H       -7.95600        -5.33700        -0.98100
| 80>    H       -7.45600        -6.03700         0.58400
| 81>    H       -5.28700        -0.34400         0.10000
| 82>    H       -3.78000        -3.60100         1.94700
| 83>    H        3.58700        -6.86800        -1.84300
| 84>    H       -2.27600        -4.77400        -0.05000
| 85>    H        3.71400        -3.72400         1.92600
| 86>    H        5.09200        -5.79500         1.87100
| 87>    H        6.20500        -7.32900        -0.43900
| 88>    H        5.39300        -7.91700         1.04200
| 89>    H        4.75900        -8.37300        -0.56400
| 90>    H        0.32900        -5.29000        -0.00800
| 91>    H        2.14600        -4.84200        -1.94000
| 92>    H        5.80800         4.98600        -1.95600
| 93>    H        4.78800        -2.28100        -0.18500
| 94>    H        4.86000         2.11400         1.91200
| 95>    H        6.90100         3.53100         1.77200
| 96>    H        7.38300         6.10900         0.35600
| 97>    H        8.41400         4.65200         0.43500
| 98>    H        7.92100         5.31000        -1.15000
| 99>    H        5.28300         0.33600        -0.17900
|100>    H        3.72000         3.63200        -1.96700
|101> *
|102>
|103>                          ****END OF INPUT****

CARTESIAN COORDINATES (ANGSTROEM)
---------------------------------
  C     -3.495000    6.200000   -0.903000
  C      1.474000    4.041000    0.057000
  C     -2.802000    4.093000    0.049000
  C     -3.714000    4.322000    1.091000
  C     -4.481000    5.470000    1.101000
  C     -5.228000    7.592000    0.136000
  C      0.132000    4.307000    0.061000
  C     -0.569000    3.056000    0.047000
  C      1.649000    2.618000    0.023000
  C     -2.710000    5.064000   -0.960000
  N     -4.364000    6.390000    0.116000
  N      0.388000    2.067000    0.025000
  N     -2.010000    0.395000   -0.075000
  N     -0.388000   -2.074000   -0.027000
  N      2.010000   -0.401000    0.065000
  C     -1.960000    2.861000    0.024000
  C     -2.623000    1.615000   -0.018000
  C     -5.573000   -4.329000    1.066000
  C     -4.073000    1.471000    0.056000
  C     -4.106000   -2.756000   -0.026000
  C     -4.995000   -2.757000   -1.111000
  C     -6.132000   -3.542000   -1.076000
  C     -7.651000   -5.113000    0.040000
  C     -4.324000    0.141000    0.037000
  C     -3.025000   -0.520000   -0.048000
  C     -4.422000   -3.566000    1.075000
  N     -6.407000   -4.313000    0.001000
  C     -2.867000   -1.922000   -0.040000
  C     -1.650000   -2.624000   -0.027000
  C      3.568000   -6.142000   -1.040000
  C     -1.476000   -4.049000   -0.034000
  C      2.803000   -4.099000   -0.008000
  C      3.657000   -4.384000    1.069000
  C      4.427000   -5.530000    1.059000
  C      5.245000   -7.588000    0.014000
  C     -0.134000   -4.315000   -0.022000
  C      0.568000   -3.064000   -0.027000
  C      2.775000   -5.012000   -1.074000
  N      4.376000   -6.391000    0.017000
  C      1.959000   -2.869000   -0.009000
  C      2.621000   -1.622000    0.009000
  C      5.543000    4.339000   -1.130000
  C      4.070000   -1.479000   -0.094000
  C      4.104000    2.751000   -0.021000
  C      5.027000    2.729000    1.036000
  C      6.166000    3.509000    0.978000
  C      7.619000    5.153000   -0.115000
  C      4.321000   -0.148000   -0.092000
  C      3.025000    0.514000    0.015000
  C      4.387000    3.582000   -1.115000
  C      2.866000    1.916000    0.013000
  N      6.413000    4.296000   -0.095000
  H     -3.449000    6.980000   -1.652000
  H      2.274000    4.766000    0.081000
  H     -3.837000    3.605000    1.894000
  H     -5.203000    5.686000    1.878000
  H     -6.180000    7.353000   -0.344000
  H     -5.393000    7.888000    1.171000
  H     -4.726000    8.393000   -0.407000
  H     -0.332000    5.282000    0.069000
  H     -2.015000    4.952000   -1.784000
  H      0.182000    1.072000    0.005000
  H     -0.183000   -1.080000   -0.021000
  H     -5.864000   -4.962000    1.895000
  H     -4.794000    2.272000    0.139000
  H     -4.800000   -2.160000   -1.994000
  H     -6.841000   -3.582000   -1.893000
  H     -8.428000   -4.536000    0.546000
  H     -7.956000   -5.337000   -0.981000
  H     -7.456000   -6.037000    0.584000
  H     -5.287000   -0.344000    0.100000
  H     -3.780000   -3.601000    1.947000
  H      3.587000   -6.868000   -1.843000
  H     -2.276000   -4.774000   -0.050000
  H      3.714000   -3.724000    1.926000
  H      5.092000   -5.795000    1.871000
  H      6.205000   -7.329000   -0.439000
  H      5.393000   -7.917000    1.042000
  H      4.759000   -8.373000   -0.564000
  H      0.329000   -5.290000   -0.008000
  H      2.146000   -4.842000   -1.940000
  H      5.808000    4.986000   -1.956000
  H      4.788000   -2.281000   -0.185000
  H      4.860000    2.114000    1.912000
  H      6.901000    3.531000    1.772000
  H      7.383000    6.109000    0.356000
  H      8.414000    4.652000    0.435000
  H      7.921000    5.310000   -1.150000
  H      5.283000    0.336000   -0.179000
  H      3.720000    3.632000   -1.967000

 Total Charge           Charge          ....    0
 Multiplicity           Mult            ....    1
 Number of Electrons    NEL             ....  358
 Basis Dimension        Dim             ....  918

ORBITAL ENERGIES
----------------

  NO   OCC          E(Eh)            E(eV)
   0   2.0000     -15.638169      -425.5362
   1   2.0000     -15.633923      -425.4207
   2   2.0000     -15.631040      -425.3422
   3   2.0000     -15.629405      -425.2977
   4   2.0000     -15.517461      -422.2516
   5   2.0000     -15.516681      -422.2304
   6   2.0000     -15.444241      -420.2592
   7   2.0000     -15.442937      -420.2237
   8   2.0000     -11.301854      -307.5391
   9   2.0000     -11.299428      -307.4731
  10   2.0000     -11.297966      -307.4333
  11   2.0000     -11.296421      -307.3913
  12   2.0000     -11.293518      -307.3122
  13   2.0000     -11.293128      -307.3016
  14   2.0000     -11.291357      -307.2534
  15   2.0000     -11.289068      -307.1912
  16   2.0000     -11.288916      -307.1870
  17   2.0000     -11.287649      -307.1526
  18   2.0000     -11.286515      -307.1217
  19   2.0000     -11.285890      -307.1047
  20   2.0000     -11.241428      -305.8948
  21   2.0000     -11.238591      -305.8176
  22   2.0000     -11.236312      -305.7556
  23   2.0000     -11.233738      -305.6856
  24   2.0000     -11.233576      -305.6811
  25   2.0000     -11.232779      -305.6595
  26   2.0000     -11.230557      -305.5990
  27   2.0000     -11.229690      -305.5754
  28   2.0000     -11.228594      -305.5456
  29   2.0000     -11.227901      -305.5267
  30   2.0000     -11.227249      -305.5090
  31   2.0000     -11.227052      -305.5036
  32   2.0000     -11.197987      -304.7127
  33   2.0000     -11.197905      -304.7105
  34   2.0000     -11.195914      -304.6563
  35   2.0000     -11.195363      -304.6413
  36   2.0000     -11.172378      -304.0159
  37   2.0000     -11.171701      -303.9974
  38   2.0000     -11.170297      -303.9592
  39   2.0000     -11.170295      -303.9592
  40   2.0000     -11.169989      -303.9508
  41   2.0000     -11.168862      -303.9202
  42   2.0000     -11.168751      -303.9172
  43   2.0000     -11.167119      -303.8728
  44   2.0000     -11.157412      -303.6086
  45   2.0000     -11.155834      -303.5657
  46   2.0000     -11.154481      -303.5289
  47   2.0000     -11.153142      -303.4924
  48   2.0000     -11.143910      -303.2412
  49   2.0000     -11.141805      -303.1839
  50   2.0000     -11.141572      -303.1776
  51   2.0000     -11.140048      -303.1361
  52   2.0000      -1.324741       -36.0480
  53   2.0000      -1.321210       -35.9519
  54   2.0000      -1.318926       -35.8898
  55   2.0000      -1.317151       -35.8415
  56   2.0000      -1.216072       -33.0910
  57   2.0000      -1.213591       -33.0235
  58   2.0000      -1.161575       -31.6081
  59   2.0000      -1.156746       -31.4767
  60   2.0000      -1.114004       -30.3136
  61   2.0000      -1.110067       -30.2065
  62   2.0000      -1.107510       -30.1369
  63   2.0000      -1.105101       -30.0713
  64   2.0000      -1.048558       -28.5327
  65   2.0000      -1.045537       -28.4505
  66   2.0000      -1.043740       -28.4016
  67   2.0000      -1.041708       -28.3463
  68   2.0000      -1.025896       -27.9161
  69   2.0000      -1.009964       -27.4825
  70   2.0000      -1.008266       -27.4363
  71   2.0000      -0.999157       -27.1884
  72   2.0000      -0.979846       -26.6630
  73   2.0000      -0.977152       -26.5897
  74   2.0000      -0.967142       -26.3173
  75   2.0000      -0.961970       -26.1765
  76   2.0000      -0.952318       -25.9139
  77   2.0000      -0.942971       -25.6596
  78   2.0000      -0.940362       -25.5886
  79   2.0000      -0.923560       -25.1313
  80   2.0000      -0.892525       -24.2868
  81   2.0000      -0.875870       -23.8336
  82   2.0000      -0.873510       -23.7694
  83   2.0000      -0.870661       -23.6919
  84   2.0000      -0.867408       -23.6034
  85   2.0000      -0.856603       -23.3094
  86   2.0000      -0.847496       -23.0615
  87   2.0000      -0.845261       -23.0007
  88   2.0000      -0.821884       -22.3646
  89   2.0000      -0.798362       -21.7245
  90   2.0000      -0.798021       -21.7153
  91   2.0000      -0.739001       -20.1092
  92   2.0000      -0.728087       -19.8123
  93   2.0000      -0.727520       -19.7968
  94   2.0000      -0.722034       -19.6476
  95   2.0000      -0.719122       -19.5683
  96   2.0000      -0.711951       -19.3732
  97   2.0000      -0.711129       -19.3508
  98   2.0000      -0.698171       -18.9982
  99   2.0000      -0.691284       -18.8108
 100   2.0000      -0.683075       -18.5874
 101   2.0000      -0.679894       -18.5009
 102   2.0000      -0.677419       -18.4335
 103   2.0000      -0.675290       -18.3756
 104   2.0000      -0.669833       -18.2271
 105   2.0000      -0.667000       -18.1500
 106   2.0000      -0.663035       -18.0421
 107   2.0000      -0.657606       -17.8944
 108   2.0000      -0.655329       -17.8324
 109   2.0000      -0.654010       -17.7965
 110   2.0000      -0.652133       -17.7454
 111   2.0000      -0.651178       -17.7195
 112   2.0000      -0.650345       -17.6968
 113   2.0000      -0.648275       -17.6405
 114   2.0000      -0.634510       -17.2659
 115   2.0000      -0.623848       -16.9758
 116   2.0000      -0.615489       -16.7483
 117   2.0000      -0.612795       -16.6750
 118   2.0000      -0.612141       -16.6572
 119   2.0000      -0.609516       -16.5858
 120   2.0000      -0.608194       -16.5498
 121   2.0000      -0.607412       -16.5285
 122   2.0000      -0.603382       -16.4189
 123   2.0000      -0.594765       -16.1844
 124   2.0000      -0.584324       -15.9003
 125   2.0000      -0.581757       -15.8304
 126   2.0000      -0.579958       -15.7815
 127   2.0000      -0.578743       -15.7484
 128   2.0000      -0.569077       -15.4854
 129   2.0000      -0.563568       -15.3355
 130   2.0000      -0.553534       -15.0624
 131   2.0000      -0.540945       -14.7199
 132   2.0000      -0.538490       -14.6531
 133   2.0000      -0.536314       -14.5938
 134   2.0000      -0.535321       -14.5668
 135   2.0000      -0.531057       -14.4508
 136   2.0000      -0.524818       -14.2810
 137   2.0000      -0.523480       -14.2446
 138   2.0000      -0.515889       -14.0381
 139   2.0000      -0.513194       -13.9647
 140   2.0000      -0.512327       -13.9411
 141   2.0000      -0.507786       -13.8176
 142   2.0000      -0.503021       -13.6879
 143   2.0000      -0.502474       -13.6730
 144   2.0000      -0.498882       -13.5753
 145   2.0000      -0.498036       -13.5523
 146   2.0000      -0.496554       -13.5119
 147   2.0000      -0.494494       -13.4559
 148   2.0000      -0.491471       -13.3736
 149   2.0000      -0.468757       -12.7555
 150   2.0000      -0.459950       -12.5159
 151   2.0000      -0.451065       -12.2741
 152   2.0000      -0.447798       -12.1852
 153   2.0000      -0.445963       -12.1353
 154   2.0000      -0.444806       -12.1038
 155   2.0000      -0.440012       -11.9733
 156   2.0000      -0.435053       -11.8384
 157   2.0000      -0.431955       -11.7541
 158   2.0000      -0.391299       -10.6478
 159   2.0000      -0.380196       -10.3457
 160   2.0000      -0.377406       -10.2697
 161   2.0000      -0.374966       -10.2033
 162   2.0000      -0.359017        -9.7693
 163   2.0000      -0.356620        -9.7041
 164   2.0000      -0.354356        -9.6425
 165   2.0000      -0.353269        -9.6129
 166   2.0000      -0.337271        -9.1776
 167   2.0000      -0.331887        -9.0311
 168   2.0000      -0.328908        -8.9500
 169   2.0000      -0.300329        -8.1724
 170   2.0000      -0.292881        -7.9697
 171   2.0000      -0.290633        -7.9085
 172   2.0000      -0.287527        -7.8240
 173   2.0000      -0.255144        -6.9428
 174   2.0000      -0.248085        -6.7507
 175   2.0000      -0.187753        -5.1090
 176   2.0000      -0.177600        -4.8327
 177   2.0000      -0.065758        -1.7894
 178   2.0000      -0.053808        -1.4642
 179   0.0000       0.031474         0.8564
 180   0.0000       0.070847         1.9279
 181   0.0000       0.092673         2.5218
 182   0.0000       0.096099         2.6150
 183   0.0000       0.134916         3.6713

MULLIKEN ATOMIC CHARGES
-----------------------
   0 C :    0.209246
   1 N :   -0.441469
   2 C :   -0.064073
   3 N :   -0.337701
   4 C :   -0.064985
   5 N :   -0.563802
   6 C :   -0.065579
   7 N :   -0.337843
   8 C :    0.208035
   9 N :   -0.563429
  10 C :    0.114209
  11 N :   -0.437516
  12 C :   -0.071202
  13 N :   -0.440026
  14 C :    0.242427
  15 N :   -0.440548
  16 C :    0.234737
  17 C :   -0.069237
  18 C :   -0.213885
  19 C :    0.241190
  20 C :    0.207074
  21 C :   -0.084336
  22 C :   -0.087051
  23 C :   -0.049392
  24 C :    0.205901
  25 C :    0.113914
  26 C :   -0.071548
  27 C :    0.224399
  28 C :   -0.052123
  29 C :   -0.186383
  30 C :    0.235178
  31 C :    0.209896
  32 C :   -0.065618
  33 C :   -0.081566
  34 C :   -0.050766
  35 C :    0.204330
  36 C :    0.114262
  37 C :   -0.066998
  38 C :    0.236638
  39 C :   -0.060975
  40 C :   -0.190452
  41 C :    0.221752
  42 C :    0.204077
  43 C :   -0.073521
  44 C :   -0.088629
  45 C :   -0.051845
  46 C :    0.202896
  47 C :    0.115522
  48 C :   -0.074188
  49 C :    0.225745
  50 C :   -0.053558
  51 C :   -0.188724
  52 H :    0.054808
  53 H :   -0.013714
  54 H :    0.050440
  55 H :    0.054066
  56 H :    0.060600
  57 H :    0.057687
  58 H :    0.056489
  59 H :   -0.012592
  60 H :    0.046666
  61 H :    0.173186
  62 H :    0.172486
  63 H :    0.056343
  64 H :   -0.019318
  65 H :    0.047016
  66 H :    0.057548
  67 H :    0.062456
  68 H :    0.058102
  69 H :    0.058785
  70 H :   -0.024123
  71 H :    0.047591
  72 H :    0.055819
  73 H :   -0.014515
  74 H :    0.046129
  75 H :    0.054912
  76 H :    0.061494
  77 H :    0.057786
  78 H :    0.057058
  79 H :   -0.014118
  80 H :    0.046586
  81 H :    0.053530
  82 H :   -0.023221
  83 H :    0.043516
  84 H :    0.053425
  85 H :    0.059178
  86 H :    0.056550
  87 H :    0.056685
  88 H :   -0.021857
  89 H :    0.044061
Sum of atomic charges:   -0.0000000

LOEWDIN ATOMIC CHARGES
----------------------
   0 C :   -0.002772
   1 N :    0.138960
   2 C :   -0.100452
   3 N :    0.178598
   4 C :    0.036855
   5 N :   -0.139204
   6 C :   -0.022528
   7 N :    0.177648
   8 C :   -0.003761
   9 N :   -0.139319
  10 C :    0.029528
  11 N :    0.144385
  12 C :   -0.102986
  13 N :    0.141118
  14 C :   -0.043719
  15 N :    0.138894
  16 C :   -0.045480
  17 C :   -0.025888
  18 C :   -0.109082
  19 C :   -0.086153
  20 C :   -0.000319
  21 C :   -0.106451
  22 C :    0.042408
  23 C :   -0.020516
  24 C :   -0.001079
  25 C :    0.030351
  26 C :   -0.102028
  27 C :   -0.093186
  28 C :   -0.021100
  29 C :   -0.108559
  30 C :   -0.045810
  31 C :    0.000293
  32 C :   -0.100077
  33 C :    0.039550
  34 C :   -0.020385
  35 C :   -0.004464
  36 C :    0.029535
  37 C :   -0.101549
  38 C :   -0.042266
  39 C :   -0.025147
  40 C :   -0.109509
  41 C :   -0.092152
  42 C :   -0.004850
  43 C :   -0.104571
  44 C :    0.034519
  45 C :   -0.021824
  46 C :   -0.005670
  47 C :    0.029350
  48 C :   -0.103850
  49 C :   -0.090365
  50 C :   -0.023684
  51 C :   -0.107902
  52 H :    0.029688
  53 H :    0.004471
  54 H :    0.044980
  55 H :    0.029776
  56 H :    0.027332
  57 H :    0.030841
  58 H :    0.031238
  59 H :    0.004212
  60 H :    0.043573
  61 H :    0.060790
  62 H :    0.060305
  63 H :    0.030915
  64 H :   -0.000978
  65 H :    0.045334
  66 H :    0.030525
  67 H :    0.028355
  68 H :    0.032015
  69 H :    0.031333
  70 H :   -0.001894
  71 H :    0.045195
  72 H :    0.030452
  73 H :    0.003985
  74 H :    0.044663
  75 H :    0.029800
  76 H :    0.027856
  77 H :    0.031384
  78 H :    0.031073
  79 H :    0.004241
  80 H :    0.044324
  81 H :    0.028975
  82 H :   -0.001734
  83 H :    0.043730
  84 H :    0.029223
  85 H :    0.026617
  86 H :    0.030567
  87 H :    0.031146
  88 H :   -0.001128
  89 H :    0.043485

  Mayer bond orders larger than 0.100000
B(  0-C ,  1-N ) :   1.1190 B(  0-C , 17-C ) :   1.6350 B(  0-C , 52-H ) :   0.9694
B(  1-N ,  8-C ) :   1.1156 B(  1-N , 10-C ) :   0.9609 B(  2-C , 12-C ) :   1.5356
B(  2-C , 16-C ) :   1.3246 B(  2-C , 53-H ) :   0.9777 B(  3-N , 14-C ) :   1.2026
B(  3-N , 16-C ) :   1.1958 B(  3-N , 61-H ) :   0.8980 B(  4-C ,  6-C ) :   1.2632
B(  4-C , 17-C ) :   1.2665 B(  4-C , 18-C ) :   1.2747 B(  5-N , 19-C ) :   1.4188
B(  5-N , 27-C ) :   1.4051 B(  6-C ,  8-C ) :   1.6376 B(  6-C , 54-H ) :   0.9704
B(  7-N , 30-C ) :   1.1937 B(  7-N , 38-C ) :   1.2015 B(  7-N , 62-H ) :   0.8985
B(  8-C , 55-H ) :   0.9696 B(  9-N , 41-C ) :   1.4105 B(  9-N , 49-C ) :   1.4129
B( 10-C , 56-H ) :   0.9764 B( 10-C , 57-H ) :   0.9817 B( 10-C , 58-H ) :   0.9836
B( 11-N , 20-C ) :   1.1239 B( 11-N , 24-C ) :   1.1230 B( 11-N , 25-C ) :   0.9584
B( 12-C , 14-C ) :   1.3250 B( 12-C , 59-H ) :   0.9766 B( 13-N , 31-C ) :   1.1225
B( 13-N , 35-C ) :   1.1167 B( 13-N , 36-C ) :   0.9602 B( 14-C , 18-C ) :   1.1916
B( 15-N , 42-C ) :   1.1169 B( 15-N , 46-C ) :   1.1140 B( 15-N , 47-C ) :   0.9620
B( 16-C , 51-C ) :   1.1991 B( 17-C , 60-H ) :   0.9711 B( 18-C , 19-C ) :   1.2116
B( 19-C , 21-C ) :   1.2092 B( 20-C , 28-C ) :   1.6234 B( 20-C , 63-H ) :   0.9703
B( 21-C , 26-C ) :   1.6436 B( 21-C , 64-H ) :   0.9714 B( 22-C , 23-C ) :   1.2827
B( 22-C , 28-C ) :   1.2745 B( 22-C , 29-C ) :   1.2304 B( 23-C , 24-C ) :   1.6190
B( 23-C , 65-H ) :   0.9709 B( 24-C , 66-H ) :   0.9691 B( 25-C , 67-H ) :   0.9762
B( 25-C , 68-H ) :   0.9829 B( 25-C , 69-H ) :   0.9821 B( 26-C , 27-C ) :   1.2095
B( 26-C , 70-H ) :   0.9733 B( 27-C , 29-C ) :   1.2317 B( 28-C , 71-H ) :   0.9714
B( 29-C , 30-C ) :   1.2083 B( 30-C , 32-C ) :   1.3153 B( 31-C , 39-C ) :   1.6318
B( 31-C , 72-H ) :   0.9696 B( 32-C , 37-C ) :   1.5428 B( 32-C , 73-H ) :   0.9778
B( 33-C , 34-C ) :   1.2735 B( 33-C , 39-C ) :   1.2674 B( 33-C , 40-C ) :   1.2529
B( 34-C , 35-C ) :   1.6291 B( 34-C , 74-H ) :   0.9705 B( 35-C , 75-H ) :   0.9696
B( 36-C , 76-H ) :   0.9763 B( 36-C , 77-H ) :   0.9821 B( 36-C , 78-H ) :   0.9831
B( 37-C , 38-C ) :   1.3166 B( 37-C , 79-H ) :   0.9778 B( 38-C , 40-C ) :   1.2055
B( 39-C , 80-H ) :   0.9715 B( 40-C , 41-C ) :   1.2177 B( 41-C , 43-C ) :   1.2135
B( 42-C , 50-C ) :   1.6329 B( 42-C , 81-H ) :   0.9696 B( 43-C , 48-C ) :   1.6383
B( 43-C , 82-H ) :   0.9738 B( 44-C , 45-C ) :   1.2722 B( 44-C , 50-C ) :   1.2669
B( 44-C , 51-C ) :   1.2529 B( 45-C , 46-C ) :   1.6315 B( 45-C , 83-H ) :   0.9711
B( 46-C , 84-H ) :   0.9702 B( 47-C , 85-H ) :   0.9761 B( 47-C , 86-H ) :   0.9828
B( 47-C , 87-H ) :   0.9826 B( 48-C , 49-C ) :   1.2129 B( 48-C , 88-H ) :   0.9738
B( 49-C , 51-C ) :   1.2218 B( 50-C , 89-H ) :   0.9714

MP2 TOTAL ENERGY:    -2130.912580115 Eh
FINAL SINGLE POINT ENERGY     -2130.912580115353

DIPOLE MOMENT
-------------
                                X             Y             Z
Electronic contribution:     -0.24615      -0.50804      -0.13945
Nuclear contribution   :     -0.04692       0.15399       0.17404
                        -----------------------------------------
Total Dipole Moment    :     -0.29307      -0.35405       0.03459
                        -----------------------------------------
Magnitude (a.u.)       :      0.46091
Magnitude (Debye)      :      1.17154

Rotational constants in cm-1:     0.001499     0.001474     0.000762
Rotational constants in MHz :    44.944239    44.185698    22.844508

                             ****ORCA TERMINATED NORMALLY****
TOTAL RUN TIME: 0 days 1 hours 20 minutes 29 seconds 555 msec
