                         Program Version 5.0.4 -  RELEASE  -
|  1> ! PAL2
|  2> ! mp2 cc-pvdz TightSCF  NoKeepInts
|  3>
|  4> %scf
|  5>   MaxCore 2000
|  6> end
|  7> %mp2
|  8>   MaxCore 2000
|  9> end
| 10> * xyz 0 1
| 11>    C       -3.04100         6.48700         0.24100
| 12>    C        1.47400         4.04100         0.05700
| 13>    C       -2.80200         4.09300         0.04900
| 14>    C       -4.19700         4.01600        -0.08400
| 15>    C       -4.96100         5.16500        -0.05400
| 16>    C       -5.22600         7.59400         0.10100
| 17>    C        0.13200         4.30700         0.06100
| 18>    C       -0.56900         3.05600         0.04700
| 19>    C        1.64900         2.61800         0.02300
| 20>    C       -2.23400         5.36600         0.21100
| 21>    N       -4.38300         6.37800         0.11000
| 22>    N        0.38800         2.06700         0.02500
| 23>    N       -2.01000         0.39500        -0.07500
| 24>    N       -0.38800        -2.07400        -0.02700
| 25>    N        2.01000        -0.40100         0.06500
| 26>    C       -1.96000         2.86100         0.02400
| 27>    C       -2.62300         1.61500        -0.01800
| 28>    C       -5.57300        -4.32900         1.06600
| 29>    C       -4.07300         1.47100         0.05600
| 30>    C       -4.10600        -2.75600        -0.02600
| 31>    C       -4.99500        -2.75700        -1.11100
| 32>    C       -6.13200        -3.54200        -1.07600
| 33>    C       -7.65100        -5.11300         0.04000
| 34>    C       -4.32400         0.14100         0.03700
| 35>    C       -3.02500        -0.52000        -0.04800
| 36>    C       -4.42200        -3.56600         1.07500
| 37>    N       -6.40700        -4.31300         0.00100
| 38>    C       -2.86700        -1.92200        -0.04000
| 39>    C       -1.65000        -2.62400        -0.02700
| 40>    C        3.56800        -6.14200        -1.04000
| 41>    C       -1.47600        -4.04900        -0.03400
| 42>    C        2.80300        -4.09900        -0.00800
| 43>    C        3.65700        -4.38400         1.06900
| 44>    C        4.42700        -5.53000         1.05900
| 45>    C        5.24500        -7.58800         0.01400
| 46>    C       -0.13400        -4.31500        -0.02200
| 47>    C        0.56800        -3.06400        -0.02700
| 48>    C        2.77500        -5.01200        -1.07400
| 49>    N        4.37600        -6.39100         0.01700
| 50>    C        1.95900        -2.86900        -0.00900
| 51>    C        2.62100        -1.62200         0.00900
| 52>    C        5.54300         4.33900        -1.13000
| 53>    C        4.07000        -1.47900        -0.09400
| 54>    C        4.10400         2.75100        -0.02100
| 55>    C        5.02700         2.72900         1.03600
| 56>    C        6.16600         3.50900         0.97800
| 57>    C        7.61900         5.15300        -0.11500
| 58>    C        4.32100        -0.14800        -0.09200
| 59>    C        3.02500         0.51400         0.01500
| 60>    C        4.38700         3.58200        -1.11500
| 61>    C        2.86600         1.91600         0.01300
| 62>    N        6.41300         4.29600        -0.09500
| 63>    H       -2.64700         7.48700         0.37600
| 64>    H        2.27400         4.76600         0.08100
| 65>    H       -4.69300         3.06300        -0.22100
| 66>    H       -6.03800         5.15600        -0.16100
| 67>    H       -5.37000         7.91800        -0.93200
| 68>    H       -6.18700         7.35800         0.55800
| 69>    H       -4.72200         8.37400         0.67100
| 70>    H       -0.33200         5.28200         0.06900
| 71>    H       -1.16400         5.49000         0.33300
| 72>    H        0.18200         1.07200         0.00500
| 73>    H       -0.18300        -1.08000        -0.02100
| 74>    H       -5.86400        -4.96200         1.89500
| 75>    H       -4.79400         2.27200         0.13900
| 76>    H       -4.80000        -2.16000        -1.99400
| 77>    H       -6.84100        -3.58200        -1.89300
| 78>    H       -8.42800        -4.53600         0.54600
| 79>    H       -7.95600        -5.33700        -0.98100
| 80>    H       -7.45600        -6.03700         0.58400
| 81>    H       -5.28700        -0.34400         0.10000
| 82>    H       -3.78000        -3.60100         1.94700
| 83>    H        3.58700        -6.86800        -1.84300
| 84>    H       -2.27600        -4.77400        -0.05000
| 85>    H        3.71400        -3.72400         1.92600
| 86>    H        5.09200        -5.79500         1.87100
| 87>    H        6.20500        -7.32900        -0.43900
| 88>    H        5.39300        -7.91700         1.04200
| 89>    H        4.75900        -8.37300        -0.56400
| 90>    H        0.32900        -5.29000        -0.00800
| 91>    H        2.14600        -4.84200        -1.94000
| 92>    H        5.80800         4.98600        -1.95600
| 93>    H        4.78800        -2.28100        -0.18500
| 94>    H        4.86000         2.11400         1.91200
| 95>    H        6.90100         3.53100         1.77200
| 96>    H        7.38300         6.10900         0.35600
| 97>    H        8.41400         4.65200         0.43500
| 98>    H        7.92100         5.31000        -1.15000
| 99>    H        5.28300         0.33600        -0.17900
|100>    H        3.72000         3.63200        -1.96700
|101> *
|102>
|103>                          ****END OF INPUT****

CARTESIAN COORDINATES (ANGSTROEM)
---------------------------------
  C     -3.041000    6.487000    0.241000
  C      1.474000    4.041000    0.057000
  C     -2.802000    4.093000    0.049000
  C     -4.197000    4.016000   -0.084000
  C     -4.961000    5.165000   -0.054000
  C     -5.226000    7.594000    0.101000
  C      0.132000    4.307000    0.061000
  C     -0.569000    3.056000    0.047000
  C      1.649000    2.618000    0.023000
  C     -2.234000    5.366000    0.211000
  N     -4.383000    6.378000    0.110000
  N      0.388000    2.067000    0.025000
  N     -2.010000    0.395000   -0.075000
  N     -0.388000   -2.074000   -0.027000
  N      2.010000   -0.401000    0.065000
  C     -1.960000    2.861000    0.024000
  C     -2.623000    1.615000   -0.018000
  C     -5.573000   -4.329000    1.066000
  C     -4.073000    1.471000    0.056000
  C     -4.106000   -2.756000   -0.026000
  C     -4.995000   -2.757000   -1.111000
  C     -6.132000   -3.542000   -1.076000
  C     -7.651000   -5.113000    0.040000
  C     -4.324000    0.141000    0.037000
  C     -3.025000   -0.520000   -0.048000
  C     -4.422000   -3.566000    1.075000
  N     -6.407000   -4.313000    0.001000
  C     -2.867000   -1.922000   -0.040000
  C     -1.650000   -2.624000   -0.027000
  C      3.568000   -6.142000   -1.040000
  C     -1.476000   -4.049000   -0.034000
  C      2.803000   -4.099000   -0.008000
  C      3.657000   -4.384000    1.069000
  C      4.427000   -5.530000    1.059000
  C      5.245000   -7.588000    0.014000
  C     -0.134000   -4.315000   -0.022000
  C      0.568000   -3.064000   -0.027000
  C      2.775000   -5.012000   -1.074000
  N      4.376000   -6.391000    0.017000
  C      1.959000   -2.869000   -0.009000
  C      2.621000   -1.622000    0.009000
  C      5.543000    4.339000   -1.130000
  C      4.070000   -1.479000   -0.094000
  C      4.104000    2.751000   -0.021000
  C      5.027000    2.729000    1.036000
  C      6.166000    3.509000    0.978000
  C      7.619000    5.153000   -0.115000
  C      4.321000   -0.148000   -0.092000
  C      3.025000    0.514000    0.015000
  C      4.387000    3.582000   -1.115000
  C      2.866000    1.916000    0.013000
  N      6.413000    4.296000   -0.095000
  H     -2.647000    7.487000    0.376000
  H      2.274000    4.766000    0.081000
  H     -4.693000    3.063000   -0.221000
  H     -6.038000    5.156000   -0.161000
  H     -5.370000    7.918000   -0.932000
  H     -6.187000    7.358000    0.558000
  H     -4.722000    8.374000    0.671000
  H     -0.332000    5.282000    0.069000
  H     -1.164000    5.490000    0.333000
  H      0.182000    1.072000    0.005000
  H     -0.183000   -1.080000   -0.021000
  H     -5.864000   -4.962000    1.895000
  H     -4.794000    2.272000    0.139000
  H     -4.800000   -2.160000   -1.994000
  H     -6.841000   -3.582000   -1.893000
  H     -8.428000   -4.536000    0.546000
  H     -7.956000   -5.337000   -0.981000
  H     -7.456000   -6.037000    0.584000
  H     -5.287000   -0.344000    0.100000
  H     -3.780000   -3.601000    1.947000
  H      3.587000   -6.868000   -1.843000
  H     -2.276000   -4.774000   -0.050000
  H      3.714000   -3.724000    1.926000
  H      5.092000   -5.795000    1.871000
  H      6.205000   -7.329000   -0.439000
  H      5.393000   -7.917000    1.042000
  H      4.759000   -8.373000   -0.564000
  H      0.329000   -5.290000   -0.008000
  H      2.146000   -4.842000   -1.940000
  H      5.808000    4.986000   -1.956000
  H      4.788000   -2.281000   -0.185000
  H      4.860000    2.114000    1.912000
  H      6.901000    3.531000    1.772000
  H      7.383000    6.109000    0.356000
  H      8.414000    4.652000    0.435000
  H      7.921000    5.310000   -1.150000
  H      5.283000    0.336000   -0.179000
  H      3.720000    3.632000   -1.967000

 Total Charge           Charge          ....    0
 Multiplicity           Mult            ....    1
 Number of Electrons    NEL             ....  358
 Basis Dimension        Dim             ....  918

ORBITAL ENERGIES
----------------

  NO   OCC          E(Eh)            E(eV)
   0   2.0000     -15.680633      -426.6917
   1   2.0000     -15.633910      -425.4203
   2   2.0000     -15.632147      -425.3723
   3   2.0000     -15.587338      -424.1530
   4   2.0000     -15.525150      -422.4608
   5   2.0000     -15.515381      -422.1950
   6   2.0000     -15.453997      -420.5246
   7   2.0000     -15.439607      -420.1331
   8   2.0000     -11.330077      -308.3071
   9   2.0000     -11.329105      -308.2806
  10   2.0000     -11.328448      -308.2627
  11   2.0000     -11.299281      -307.4691
  12   2.0000     -11.298567      -307.4496
  13   2.0000     -11.292972      -307.2974
  14   2.0000     -11.291562      -307.2590
  15   2.0000     -11.286703      -307.1268
  16   2.0000     -11.286506      -307.1214
  17   2.0000     -11.282828      -307.0214
  18   2.0000     -11.269116      -306.6482
  19   2.0000     -11.263939      -306.5074
  20   2.0000     -11.262937      -306.4801
  21   2.0000     -11.250918      -306.1530
  22   2.0000     -11.247186      -306.0515
  23   2.0000     -11.237701      -305.7934
  24   2.0000     -11.236917      -305.7720
  25   2.0000     -11.231058      -305.6126
  26   2.0000     -11.230390      -305.5944
  27   2.0000     -11.229974      -305.5831
  28   2.0000     -11.229721      -305.5762
  29   2.0000     -11.211219      -305.0728
  30   2.0000     -11.209840      -305.0352
  31   2.0000     -11.193082      -304.5792
  32   2.0000     -11.191786      -304.5440
  33   2.0000     -11.191747      -304.5429
  34   2.0000     -11.188757      -304.4616
  35   2.0000     -11.188032      -304.4418
  36   2.0000     -11.187283      -304.4215
  37   2.0000     -11.175011      -304.0875
  38   2.0000     -11.172148      -304.0096
  39   2.0000     -11.171843      -304.0013
  40   2.0000     -11.170866      -303.9747
  41   2.0000     -11.168554      -303.9118
  42   2.0000     -11.167524      -303.8838
  43   2.0000     -11.162252      -303.7403
  44   2.0000     -11.160683      -303.6976
  45   2.0000     -11.156967      -303.5965
  46   2.0000     -11.156412      -303.5814
  47   2.0000     -11.151117      -303.4373
  48   2.0000     -11.146803      -303.3199
  49   2.0000     -11.135240      -303.0053
  50   2.0000     -11.129301      -302.8437
  51   2.0000     -11.116867      -302.5053
  52   2.0000      -1.361091       -37.0372
  53   2.0000      -1.321166       -35.9508
  54   2.0000      -1.319887       -35.9159
  55   2.0000      -1.279369       -34.8134
  56   2.0000      -1.226328       -33.3701
  57   2.0000      -1.210238       -32.9322
  58   2.0000      -1.173732       -31.9389
  59   2.0000      -1.150713       -31.3125
  60   2.0000      -1.144238       -31.1363
  61   2.0000      -1.110357       -30.2143
  62   2.0000      -1.109044       -30.1786
  63   2.0000      -1.082727       -29.4625
  64   2.0000      -1.076666       -29.2976
  65   2.0000      -1.045357       -28.4456
  66   2.0000      -1.044510       -28.4226
  67   2.0000      -1.041538       -28.3417
  68   2.0000      -1.015026       -27.6203
  69   2.0000      -1.013776       -27.5862
  70   2.0000      -1.008926       -27.4543
  71   2.0000      -0.993735       -27.0409
  72   2.0000      -0.985405       -26.8142
  73   2.0000      -0.982079       -26.7237
  74   2.0000      -0.973624       -26.4936
  75   2.0000      -0.962322       -26.1861
  76   2.0000      -0.954926       -25.9849
  77   2.0000      -0.946120       -25.7452
  78   2.0000      -0.938688       -25.5430
  79   2.0000      -0.916568       -24.9411
  80   2.0000      -0.911158       -24.7939
  81   2.0000      -0.898030       -24.4366
  82   2.0000      -0.877399       -23.8752
  83   2.0000      -0.872348       -23.7378
  84   2.0000      -0.870960       -23.7000
  85   2.0000      -0.860946       -23.4275
  86   2.0000      -0.843843       -22.9621
  87   2.0000      -0.837590       -22.7920
  88   2.0000      -0.828978       -22.5576
  89   2.0000      -0.796368       -21.6703
  90   2.0000      -0.788853       -21.4658
  91   2.0000      -0.771335       -20.9891
  92   2.0000      -0.753528       -20.5045
  93   2.0000      -0.734073       -19.9751
  94   2.0000      -0.727881       -19.8066
  95   2.0000      -0.725639       -19.7456
  96   2.0000      -0.720041       -19.5933
  97   2.0000      -0.717988       -19.5375
  98   2.0000      -0.713864       -19.4252
  99   2.0000      -0.698980       -19.0202
 100   2.0000      -0.698494       -19.0070
 101   2.0000      -0.694074       -18.8867
 102   2.0000      -0.685719       -18.6594
 103   2.0000      -0.684828       -18.6351
 104   2.0000      -0.678951       -18.4752
 105   2.0000      -0.674580       -18.3563
 106   2.0000      -0.673001       -18.3133
 107   2.0000      -0.660410       -17.9707
 108   2.0000      -0.658226       -17.9112
 109   2.0000      -0.652868       -17.7655
 110   2.0000      -0.652167       -17.7464
 111   2.0000      -0.646758       -17.5992
 112   2.0000      -0.645853       -17.5745
 113   2.0000      -0.637915       -17.3586
 114   2.0000      -0.635358       -17.2890
 115   2.0000      -0.628319       -17.0974
 116   2.0000      -0.623028       -16.9534
 117   2.0000      -0.620196       -16.8764
 118   2.0000      -0.613243       -16.6872
 119   2.0000      -0.612294       -16.6614
 120   2.0000      -0.612061       -16.6550
 121   2.0000      -0.611586       -16.6421
 122   2.0000      -0.601137       -16.3578
 123   2.0000      -0.588994       -16.0273
 124   2.0000      -0.581610       -15.8264
 125   2.0000      -0.580959       -15.8087
 126   2.0000      -0.580355       -15.7923
 127   2.0000      -0.571565       -15.5531
 128   2.0000      -0.566987       -15.4285
 129   2.0000      -0.560027       -15.2391
 130   2.0000      -0.554981       -15.1018
 131   2.0000      -0.548224       -14.9179
 132   2.0000      -0.542974       -14.7751
 133   2.0000      -0.540546       -14.7090
 134   2.0000      -0.538664       -14.6578
 135   2.0000      -0.536079       -14.5875
 136   2.0000      -0.531464       -14.4619
 137   2.0000      -0.518139       -14.0993
 138   2.0000      -0.517235       -14.0747
 139   2.0000      -0.514251       -13.9935
 140   2.0000      -0.512327       -13.9411
 141   2.0000      -0.510064       -13.8796
 142   2.0000      -0.508206       -13.8290
 143   2.0000      -0.504668       -13.7327
 144   2.0000      -0.502171       -13.6648
 145   2.0000      -0.495259       -13.4767
 146   2.0000      -0.488620       -13.2960
 147   2.0000      -0.481115       -13.0918
 148   2.0000      -0.476663       -12.9707
 149   2.0000      -0.468015       -12.7353
 150   2.0000      -0.466218       -12.6864
 151   2.0000      -0.456607       -12.4249
 152   2.0000      -0.451651       -12.2900
 153   2.0000      -0.445187       -12.1142
 154   2.0000      -0.438020       -11.9191
 155   2.0000      -0.427532       -11.6337
 156   2.0000      -0.409493       -11.1429
 157   2.0000      -0.391896       -10.6640
 158   2.0000      -0.389086       -10.5876
 159   2.0000      -0.387662       -10.5488
 160   2.0000      -0.378800       -10.3077
 161   2.0000      -0.373765       -10.1707
 162   2.0000      -0.364243        -9.9116
 163   2.0000      -0.356669        -9.7055
 164   2.0000      -0.356004        -9.6874
 165   2.0000      -0.342031        -9.3071
 166   2.0000      -0.337721        -9.1899
 167   2.0000      -0.324877        -8.8403
 168   2.0000      -0.320403        -8.7186
 169   2.0000      -0.305586        -8.3154
 170   2.0000      -0.299316        -8.1448
 171   2.0000      -0.285596        -7.7715
 172   2.0000      -0.278207        -7.5704
 173   2.0000      -0.263583        -7.1725
 174   2.0000      -0.241731        -6.5778
 175   2.0000      -0.190028        -5.1709
 176   2.0000      -0.181361        -4.9351
 177   2.0000      -0.080277        -2.1844
 178   2.0000      -0.059914        -1.6303
 179   0.0000       0.028307         0.7703
 180   0.0000       0.065150         1.7728
 181   0.0000       0.090058         2.4506
 182   0.0000       0.105707         2.8764
 183   0.0000       0.116553         3.1716

MULLIKEN ATOMIC CHARGES
-----------------------
   0 C :    0.227786
   1 N :   -0.456387
   2 C :   -0.074356
   3 N :   -0.341583
   4 C :   -0.091652
   5 N :   -0.568889
   6 C :   -0.104820
   7 N :   -0.341149
   8 C :    0.216619
   9 N :   -0.562326
  10 C :    0.119651
  11 N :   -0.438471
  12 C :   -0.046882
  13 N :   -0.429136
  14 C :    0.209765
  15 N :   -0.440856
  16 C :    0.235225
  17 C :   -0.119404
  18 C :   -0.161590
  19 C :    0.202924
  20 C :    0.213900
  21 C :   -0.047251
  22 C :   -0.089900
  23 C :   -0.039590
  24 C :    0.193300
  25 C :    0.114602
  26 C :   -0.092974
  27 C :    0.216853
  28 C :   -0.061898
  29 C :   -0.184027
  30 C :    0.246341
  31 C :    0.230612
  32 C :   -0.061561
  33 C :   -0.059643
  34 C :   -0.051299
  35 C :    0.229196
  36 C :    0.108094
  37 C :   -0.064279
  38 C :    0.230840
  39 C :   -0.057512
  40 C :   -0.181402
  41 C :    0.226108
  42 C :    0.197437
  43 C :   -0.072585
  44 C :   -0.089623
  45 C :   -0.061835
  46 C :    0.212086
  47 C :    0.115300
  48 C :   -0.066422
  49 C :    0.238200
  50 C :   -0.045882
  51 C :   -0.194040
  52 H :    0.034005
  53 H :   -0.018334
  54 H :    0.043728
  55 H :    0.032457
  56 H :    0.049030
  57 H :    0.048011
  58 H :    0.046002
  59 H :   -0.019002
  60 H :    0.049674
  61 H :    0.171020
  62 H :    0.175562
  63 H :    0.055280
  64 H :   -0.031115
  65 H :    0.046729
  66 H :    0.055475
  67 H :    0.062474
  68 H :    0.057150
  69 H :    0.056307
  70 H :   -0.030150
  71 H :    0.044799
  72 H :    0.071734
  73 H :   -0.007879
  74 H :    0.060799
  75 H :    0.071204
  76 H :    0.075335
  77 H :    0.068293
  78 H :    0.067601
  79 H :   -0.016759
  80 H :    0.061736
  81 H :    0.054642
  82 H :   -0.024987
  83 H :    0.041956
  84 H :    0.054355
  85 H :    0.061044
  86 H :    0.055608
  87 H :    0.057399
  88 H :   -0.014299
  89 H :    0.047502
Sum of atomic charges:   -0.0000000

LOEWDIN ATOMIC CHARGES
----------------------
   0 C :   -0.016483
   1 N :    0.121536
   2 C :   -0.100521
   3 N :    0.182425
   4 C :   -0.011969
   5 N :   -0.134287
   6 C :   -0.019503
   7 N :    0.174894
   8 C :   -0.023106
   9 N :   -0.140658
  10 C :    0.022838
  11 N :    0.141841
  12 C :   -0.097138
  13 N :    0.166943
  14 C :   -0.015557
  15 N :    0.139074
  16 C :   -0.060963
  17 C :   -0.029074
  18 C :   -0.113374
  19 C :   -0.073271
  20 C :    0.004953
  21 C :   -0.103268
  22 C :    0.037433
  23 C :   -0.014561
  24 C :   -0.012932
  25 C :    0.029793
  26 C :   -0.108426
  27 C :   -0.117331
  28 C :   -0.027709
  29 C :   -0.099495
  30 C :   -0.029442
  31 C :    0.024861
  32 C :   -0.094270
  33 C :    0.083217
  34 C :   -0.015087
  35 C :    0.023960
  36 C :    0.035395
  37 C :   -0.093854
  38 C :   -0.052603
  39 C :   -0.017347
  40 C :   -0.108797
  41 C :   -0.091102
  42 C :   -0.010361
  43 C :   -0.099182
  44 C :    0.034117
  45 C :   -0.028459
  46 C :    0.002464
  47 C :    0.029570
  48 C :   -0.094557
  49 C :   -0.068950
  50 C :   -0.018310
  51 C :   -0.108651
  52 H :    0.022091
  53 H :    0.002343
  54 H :   -0.009996
  55 H :    0.021613
  56 H :    0.021767
  57 H :    0.026437
  58 H :    0.026390
  59 H :    0.002632
  60 H :   -0.006546
  61 H :    0.060237
  62 H :    0.061919
  63 H :    0.030744
  64 H :    0.001483
  65 H :    0.045760
  66 H :    0.029159
  67 H :    0.028240
  68 H :    0.031589
  69 H :    0.030271
  70 H :   -0.004903
  71 H :    0.043481
  72 H :    0.037906
  73 H :    0.007198
  74 H :    0.050847
  75 H :    0.037618
  76 H :    0.035019
  77 H :    0.036326
  78 H :    0.036013
  79 H :    0.002889
  80 H :    0.050944
  81 H :    0.029193
  82 H :   -0.002800
  83 H :    0.042492
  84 H :    0.029976
  85 H :    0.027474
  86 H :    0.030213
  87 H :    0.031492
  88 H :    0.002484
  89 H :    0.045288

  Mayer bond orders larger than 0.100000
B(  0-C ,  1-N ) :   1.1026 B(  0-C , 17-C ) :   1.7219 B(  0-C , 52-H ) :   0.9602
B(  1-N ,  8-C ) :   1.0893 B(  1-N , 10-C ) :   0.9775 B(  2-C , 12-C ) :   1.4835
B(  2-C , 16-C ) :   1.3769 B(  2-C , 53-H ) :   0.9718 B(  3-N , 14-C ) :   1.2239
B(  3-N , 16-C ) :   1.1790 B(  3-N , 61-H ) :   0.8981 B(  4-C ,  6-C ) :   1.2230
B(  4-C , 17-C ) :   1.2240 B(  4-C , 18-C ) :   1.4830 B(  5-N , 19-C ) :   1.4598
B(  5-N , 27-C ) :   1.3690 B(  6-C ,  8-C ) :   1.7283 B(  6-C , 54-H ) :   0.8575
B(  7-N , 30-C ) :   1.1952 B(  7-N , 38-C ) :   1.1892 B(  7-N , 62-H ) :   0.8967
B(  8-C , 55-H ) :   0.9606 B(  9-N , 41-C ) :   1.3943 B(  9-N , 49-C ) :   1.4252
B( 10-C , 56-H ) :   0.9777 B( 10-C , 57-H ) :   0.9828 B( 10-C , 58-H ) :   0.9835
B( 11-N , 20-C ) :   1.1313 B( 11-N , 24-C ) :   1.1066 B( 11-N , 25-C ) :   0.9602
B( 12-C , 14-C ) :   1.3613 B( 12-C , 59-H ) :   0.9152 B( 13-N , 31-C ) :   1.1624
B( 13-N , 35-C ) :   1.1616 B( 13-N , 36-C ) :   0.9409 B( 14-C , 18-C ) :   1.1154
B( 15-N , 42-C ) :   1.1078 B( 15-N , 46-C ) :   1.1253 B( 15-N , 47-C ) :   0.9611
B( 16-C , 51-C ) :   1.1672 B( 17-C , 60-H ) :   0.8735 B( 18-C , 19-C ) :   1.1124
B( 19-C , 21-C ) :   1.2551 B( 20-C , 28-C ) :   1.6288 B( 20-C , 63-H ) :   0.9702
B( 21-C , 26-C ) :   1.5760 B( 21-C , 64-H ) :   0.9025 B( 22-C , 23-C ) :   1.2896
B( 22-C , 28-C ) :   1.2636 B( 22-C , 29-C ) :   1.2276 B( 23-C , 24-C ) :   1.6201
B( 23-C , 65-H ) :   0.9703 B( 24-C , 66-H ) :   0.9695 B( 25-C , 67-H ) :   0.9761
B( 25-C , 68-H ) :   0.9828 B( 25-C , 69-H ) :   0.9824 B( 26-C , 27-C ) :   1.2659
B( 26-C , 70-H ) :   0.9658 B( 27-C , 29-C ) :   1.2040 B( 28-C , 71-H ) :   0.9720
B( 29-C , 30-C ) :   1.2482 B( 30-C , 32-C ) :   1.2776 B( 31-C , 39-C ) :   1.5866
B( 31-C , 72-H ) :   0.9681 B( 32-C , 37-C ) :   1.5810 B( 32-C , 73-H ) :   0.9786
B( 33-C , 34-C ) :   1.3077 B( 33-C , 39-C ) :   1.3052 B( 33-C , 40-C ) :   1.1744
B( 34-C , 35-C ) :   1.5843 B( 34-C , 74-H ) :   0.9696 B( 35-C , 75-H ) :   0.9680
B( 36-C , 76-H ) :   0.9768 B( 36-C , 77-H ) :   0.9816 B( 36-C , 78-H ) :   0.9823
B( 37-C , 38-C ) :   1.2840 B( 37-C , 79-H ) :   0.9764 B( 38-C , 40-C ) :   1.2350
B( 39-C , 80-H ) :   0.9705 B( 40-C , 41-C ) :   1.2510 B( 41-C , 43-C ) :   1.1838
B( 42-C , 50-C ) :   1.6327 B( 42-C , 81-H ) :   0.9696 B( 43-C , 48-C ) :   1.6693
B( 43-C , 82-H ) :   0.9721 B( 44-C , 45-C ) :   1.2634 B( 44-C , 50-C ) :   1.2728
B( 44-C , 51-C ) :   1.2600 B( 45-C , 46-C ) :   1.6342 B( 45-C , 83-H ) :   0.9718
B( 46-C , 84-H ) :   0.9700 B( 47-C , 85-H ) :   0.9762 B( 47-C , 86-H ) :   0.9829
B( 47-C , 87-H ) :   0.9824 B( 48-C , 49-C ) :   1.1871 B( 48-C , 88-H ) :   0.9749
B( 49-C , 51-C ) :   1.2467 B( 50-C , 89-H ) :   0.9708 B( 54-H , 64-H ) :   0.1166

MP2 TOTAL ENERGY:    -2130.762084583 Eh
FINAL SINGLE POINT ENERGY     -2130.762084582783

DIPOLE MOMENT
-------------
                                X             Y             Z
Electronic contribution:      2.91987      -4.37032      -0.07776
Nuclear contribution   :     -0.02939       0.16565       0.09316
                        -----------------------------------------
Total Dipole Moment    :      2.89048      -4.20467       0.01540
                        -----------------------------------------
Magnitude (a.u.)       :      5.10239
Magnitude (Debye)      :     12.96923

Rotational constants in cm-1:     0.001503     0.001478     0.000760
Rotational constants in MHz :    45.073665    44.296657    22.781369

                             ****ORCA TERMINATED NORMALLY****
TOTAL RUN TIME: 0 days 0 hours 54 minutes 56 seconds 812 msec
