                         Program Version 5.0.4 -  RELEASE  -
|  1> ! PAL2
|  2> ! mp2 cc-pvdz TightSCF  NoKeepInts
|  3>
|  4> %scf
|  5>   MaxCore 2000
|  6> end
|  7> %mp2
|  8>   MaxCore 2000
|  9> end
| 10> * xyz 0 1
| 11>    C       -4.70100         5.37200        -0.71500
| 12>    C        1.47400         4.04100         0.05700
| 13>    C       -2.80200         4.09300         0.04900
| 14>    C       -2.46900         5.17700         0.87500
| 15>    C       -3.25600         6.31100         0.88200
| 16>    C       -5.19600         7.61300         0.15100
| 17>    C        0.13200         4.30700         0.06100
| 18>    C       -0.56900         3.05600         0.04700
| 19>    C        1.64900         2.61800         0.02300
| 20>    C       -3.94800         4.21400        -0.75200
| 21>    N       -4.35200         6.39900         0.09300
| 22>    N        0.38800         2.06700         0.02500
| 23>    N       -2.01000         0.39500        -0.07500
| 24>    N       -0.38800        -2.07400        -0.02700
| 25>    N        2.01000        -0.40100         0.06500
| 26>    C       -1.96000         2.86100         0.02400
| 27>    C       -2.62300         1.61500        -0.01800
| 28>    C       -5.57300        -4.32900         1.06600
| 29>    C       -4.07300         1.47100         0.05600
| 30>    C       -4.10600        -2.75600        -0.02600
| 31>    C       -4.99500        -2.75700        -1.11100
| 32>    C       -6.13200        -3.54200        -1.07600
| 33>    C       -7.65100        -5.11300         0.04000
| 34>    C       -4.32400         0.14100         0.03700
| 35>    C       -3.02500        -0.52000        -0.04800
| 36>    C       -4.42200        -3.56600         1.07500
| 37>    N       -6.40700        -4.31300         0.00100
| 38>    C       -2.86700        -1.92200        -0.04000
| 39>    C       -1.65000        -2.62400        -0.02700
| 40>    C        3.56800        -6.14200        -1.04000
| 41>    C       -1.47600        -4.04900        -0.03400
| 42>    C        2.80300        -4.09900        -0.00800
| 43>    C        3.65700        -4.38400         1.06900
| 44>    C        4.42700        -5.53000         1.05900
| 45>    C        5.24500        -7.58800         0.01400
| 46>    C       -0.13400        -4.31500        -0.02200
| 47>    C        0.56800        -3.06400        -0.02700
| 48>    C        2.77500        -5.01200        -1.07400
| 49>    N        4.37600        -6.39100         0.01700
| 50>    C        1.95900        -2.86900        -0.00900
| 51>    C        2.62100        -1.62200         0.00900
| 52>    C        5.54300         4.33900        -1.13000
| 53>    C        4.07000        -1.47900        -0.09400
| 54>    C        4.10400         2.75100        -0.02100
| 55>    C        5.02700         2.72900         1.03600
| 56>    C        6.16600         3.50900         0.97800
| 57>    C        7.61900         5.15300        -0.11500
| 58>    C        4.32100        -0.14800        -0.09200
| 59>    C        3.02500         0.51400         0.01500
| 60>    C        4.38700         3.58200        -1.11500
| 61>    C        2.86600         1.91600         0.01300
| 62>    N        6.41300         4.29600        -0.09500
| 63>    H       -5.58500         5.51400        -1.32400
| 64>    H        2.27400         4.76600         0.08100
| 65>    H       -1.60200         5.14000         1.52400
| 66>    H       -3.04500         7.16800         1.50900
| 67>    H       -5.91900         7.50500         0.96400
| 68>    H       -4.55600         8.47700         0.33100
| 69>    H       -5.71600         7.72400        -0.80000
| 70>    H       -0.33200         5.28200         0.06900
| 71>    H       -4.25000         3.41700        -1.42200
| 72>    H        0.18200         1.07200         0.00500
| 73>    H       -0.18300        -1.08000        -0.02100
| 74>    H       -5.86400        -4.96200         1.89500
| 75>    H       -4.79400         2.27200         0.13900
| 76>    H       -4.80000        -2.16000        -1.99400
| 77>    H       -6.84100        -3.58200        -1.89300
| 78>    H       -8.42800        -4.53600         0.54600
| 79>    H       -7.95600        -5.33700        -0.98100
| 80>    H       -7.45600        -6.03700         0.58400
| 81>    H       -5.28700        -0.34400         0.10000
| 82>    H       -3.78000        -3.60100         1.94700
| 83>    H        3.58700        -6.86800        -1.84300
| 84>    H       -2.27600        -4.77400        -0.05000
| 85>    H        3.71400        -3.72400         1.92600
| 86>    H        5.09200        -5.79500         1.87100
| 87>    H        6.20500        -7.32900        -0.43900
| 88>    H        5.39300        -7.91700         1.04200
| 89>    H        4.75900        -8.37300        -0.56400
| 90>    H        0.32900        -5.29000        -0.00800
| 91>    H        2.14600        -4.84200        -1.94000
| 92>    H        5.80800         4.98600        -1.95600
| 93>    H        4.78800        -2.28100        -0.18500
| 94>    H        4.86000         2.11400         1.91200
| 95>    H        6.90100         3.53100         1.77200
| 96>    H        7.38300         6.10900         0.35600
| 97>    H        8.41400         4.65200         0.43500
| 98>    H        7.92100         5.31000        -1.15000
| 99>    H        5.28300         0.33600        -0.17900
|100>    H        3.72000         3.63200        -1.96700
|101> *
|102>
|103>                          ****END OF INPUT****

CARTESIAN COORDINATES (ANGSTROEM)
---------------------------------
  C     -4.701000    5.372000   -0.715000
  C      1.474000    4.041000    0.057000
  C     -2.802000    4.093000    0.049000
  C     -2.469000    5.177000    0.875000
  C     -3.256000    6.311000    0.882000
  C     -5.196000    7.613000    0.151000
  C      0.132000    4.307000    0.061000
  C     -0.569000    3.056000    0.047000
  C      1.649000    2.618000    0.023000
  C     -3.948000    4.214000   -0.752000
  N     -4.352000    6.399000    0.093000
  N      0.388000    2.067000    0.025000
  N     -2.010000    0.395000   -0.075000
  N     -0.388000   -2.074000   -0.027000
  N      2.010000   -0.401000    0.065000
  C     -1.960000    2.861000    0.024000
  C     -2.623000    1.615000   -0.018000
  C     -5.573000   -4.329000    1.066000
  C     -4.073000    1.471000    0.056000
  C     -4.106000   -2.756000   -0.026000
  C     -4.995000   -2.757000   -1.111000
  C     -6.132000   -3.542000   -1.076000
  C     -7.651000   -5.113000    0.040000
  C     -4.324000    0.141000    0.037000
  C     -3.025000   -0.520000   -0.048000
  C     -4.422000   -3.566000    1.075000
  N     -6.407000   -4.313000    0.001000
  C     -2.867000   -1.922000   -0.040000
  C     -1.650000   -2.624000   -0.027000
  C      3.568000   -6.142000   -1.040000
  C     -1.476000   -4.049000   -0.034000
  C      2.803000   -4.099000   -0.008000
  C      3.657000   -4.384000    1.069000
  C      4.427000   -5.530000    1.059000
  C      5.245000   -7.588000    0.014000
  C     -0.134000   -4.315000   -0.022000
  C      0.568000   -3.064000   -0.027000
  C      2.775000   -5.012000   -1.074000
  N      4.376000   -6.391000    0.017000
  C      1.959000   -2.869000   -0.009000
  C      2.621000   -1.622000    0.009000
  C      5.543000    4.339000   -1.130000
  C      4.070000   -1.479000   -0.094000
  C      4.104000    2.751000   -0.021000
  C      5.027000    2.729000    1.036000
  C      6.166000    3.509000    0.978000
  C      7.619000    5.153000   -0.115000
  C      4.321000   -0.148000   -0.092000
  C      3.025000    0.514000    0.015000
  C      4.387000    3.582000   -1.115000
  C      2.866000    1.916000    0.013000
  N      6.413000    4.296000   -0.095000
  H     -5.585000    5.514000   -1.324000
  H      2.274000    4.766000    0.081000
  H     -1.602000    5.140000    1.524000
  H     -3.045000    7.168000    1.509000
  H     -5.919000    7.505000    0.964000
  H     -4.556000    8.477000    0.331000
  H     -5.716000    7.724000   -0.800000
  H     -0.332000    5.282000    0.069000
  H     -4.250000    3.417000   -1.422000
  H      0.182000    1.072000    0.005000
  H     -0.183000   -1.080000   -0.021000
  H     -5.864000   -4.962000    1.895000
  H     -4.794000    2.272000    0.139000
  H     -4.800000   -2.160000   -1.994000
  H     -6.841000   -3.582000   -1.893000
  H     -8.428000   -4.536000    0.546000
  H     -7.956000   -5.337000   -0.981000
  H     -7.456000   -6.037000    0.584000
  H     -5.287000   -0.344000    0.100000
  H     -3.780000   -3.601000    1.947000
  H      3.587000   -6.868000   -1.843000
  H     -2.276000   -4.774000   -0.050000
  H      3.714000   -3.724000    1.926000
  H      5.092000   -5.795000    1.871000
  H      6.205000   -7.329000   -0.439000
  H      5.393000   -7.917000    1.042000
  H      4.759000   -8.373000   -0.564000
  H      0.329000   -5.290000   -0.008000
  H      2.146000   -4.842000   -1.940000
  H      5.808000    4.986000   -1.956000
  H      4.788000   -2.281000   -0.185000
  H      4.860000    2.114000    1.912000
  H      6.901000    3.531000    1.772000
  H      7.383000    6.109000    0.356000
  H      8.414000    4.652000    0.435000
  H      7.921000    5.310000   -1.150000
  H      5.283000    0.336000   -0.179000
  H      3.720000    3.632000   -1.967000

 Total Charge           Charge          ....    0
 Multiplicity           Mult            ....    1
 Number of Electrons    NEL             ....  358
 Basis Dimension        Dim             ....  918

ORBITAL ENERGIES
----------------

  NO   OCC          E(Eh)            E(eV)
   0   2.0000     -15.663941      -426.2375
   1   2.0000     -15.638492      -425.5450
   2   2.0000     -15.628438      -425.2714
   3   2.0000     -15.597584      -424.4318
   4   2.0000     -15.523785      -422.4237
   5   2.0000     -15.515855      -422.2079
   6   2.0000     -15.449752      -420.4091
   7   2.0000     -15.443460      -420.2379
   8   2.0000     -11.318126      -307.9819
   9   2.0000     -11.316747      -307.9444
  10   2.0000     -11.314407      -307.8807
  11   2.0000     -11.302106      -307.5459
  12   2.0000     -11.296090      -307.3822
  13   2.0000     -11.295846      -307.3756
  14   2.0000     -11.291520      -307.2579
  15   2.0000     -11.287359      -307.1447
  16   2.0000     -11.284252      -307.0601
  17   2.0000     -11.277856      -306.8861
  18   2.0000     -11.267134      -306.5943
  19   2.0000     -11.261778      -306.4486
  20   2.0000     -11.261553      -306.4424
  21   2.0000     -11.252207      -306.1881
  22   2.0000     -11.251289      -306.1631
  23   2.0000     -11.242048      -305.9117
  24   2.0000     -11.234428      -305.7043
  25   2.0000     -11.233854      -305.6887
  26   2.0000     -11.233143      -305.6694
  27   2.0000     -11.227009      -305.5024
  28   2.0000     -11.226758      -305.4956
  29   2.0000     -11.208255      -304.9921
  30   2.0000     -11.207580      -304.9738
  31   2.0000     -11.207029      -304.9588
  32   2.0000     -11.202727      -304.8417
  33   2.0000     -11.202236      -304.8283
  34   2.0000     -11.190393      -304.5061
  35   2.0000     -11.189981      -304.4949
  36   2.0000     -11.184292      -304.3401
  37   2.0000     -11.180893      -304.2476
  38   2.0000     -11.180178      -304.2281
  39   2.0000     -11.174339      -304.0692
  40   2.0000     -11.169727      -303.9437
  41   2.0000     -11.167992      -303.8965
  42   2.0000     -11.166442      -303.8543
  43   2.0000     -11.164072      -303.7898
  44   2.0000     -11.163048      -303.7620
  45   2.0000     -11.160881      -303.7030
  46   2.0000     -11.153817      -303.5108
  47   2.0000     -11.149642      -303.3972
  48   2.0000     -11.148884      -303.3765
  49   2.0000     -11.143981      -303.2431
  50   2.0000     -11.136364      -303.0359
  51   2.0000     -11.130453      -302.8750
  52   2.0000      -1.346880       -36.6505
  53   2.0000      -1.325105       -36.0579
  54   2.0000      -1.316585       -35.8261
  55   2.0000      -1.291107       -35.1328
  56   2.0000      -1.223936       -33.3050
  57   2.0000      -1.210749       -32.9462
  58   2.0000      -1.167673       -31.7740
  59   2.0000      -1.154690       -31.4207
  60   2.0000      -1.132216       -30.8092
  61   2.0000      -1.113407       -30.2973
  62   2.0000      -1.106235       -30.1022
  63   2.0000      -1.085989       -29.5513
  64   2.0000      -1.069530       -29.1034
  65   2.0000      -1.049091       -28.5472
  66   2.0000      -1.041331       -28.3360
  67   2.0000      -1.033941       -28.1350
  68   2.0000      -1.018589       -27.7172
  69   2.0000      -1.014078       -27.5945
  70   2.0000      -1.009382       -27.4667
  71   2.0000      -0.992711       -27.0130
  72   2.0000      -0.987509       -26.8715
  73   2.0000      -0.976946       -26.5841
  74   2.0000      -0.972660       -26.4674
  75   2.0000      -0.959092       -26.0982
  76   2.0000      -0.950879       -25.8747
  77   2.0000      -0.947518       -25.7833
  78   2.0000      -0.936410       -25.4810
  79   2.0000      -0.921163       -25.0661
  80   2.0000      -0.900170       -24.4949
  81   2.0000      -0.890691       -24.2369
  82   2.0000      -0.876104       -23.8400
  83   2.0000      -0.870010       -23.6742
  84   2.0000      -0.865327       -23.5467
  85   2.0000      -0.854967       -23.2648
  86   2.0000      -0.843661       -22.9572
  87   2.0000      -0.838395       -22.8139
  88   2.0000      -0.822322       -22.3765
  89   2.0000      -0.798667       -21.7328
  90   2.0000      -0.794366       -21.6158
  91   2.0000      -0.745032       -20.2734
  92   2.0000      -0.737463       -20.0674
  93   2.0000      -0.732073       -19.9207
  94   2.0000      -0.723449       -19.6860
  95   2.0000      -0.719705       -19.5842
  96   2.0000      -0.713823       -19.4241
  97   2.0000      -0.706026       -19.2120
  98   2.0000      -0.702294       -19.1104
  99   2.0000      -0.696286       -18.9469
 100   2.0000      -0.694101       -18.8875
 101   2.0000      -0.681868       -18.5546
 102   2.0000      -0.679279       -18.4841
 103   2.0000      -0.674520       -18.3546
 104   2.0000      -0.673890       -18.3375
 105   2.0000      -0.670779       -18.2528
 106   2.0000      -0.664808       -18.0904
 107   2.0000      -0.662833       -18.0366
 108   2.0000      -0.656518       -17.8648
 109   2.0000      -0.653633       -17.7863
 110   2.0000      -0.649553       -17.6752
 111   2.0000      -0.645906       -17.5760
 112   2.0000      -0.642749       -17.4901
 113   2.0000      -0.636717       -17.3259
 114   2.0000      -0.634573       -17.2676
 115   2.0000      -0.629175       -17.1207
 116   2.0000      -0.623780       -16.9739
 117   2.0000      -0.615926       -16.7602
 118   2.0000      -0.614361       -16.7176
 119   2.0000      -0.612282       -16.6610
 120   2.0000      -0.608685       -16.5631
 121   2.0000      -0.601805       -16.3759
 122   2.0000      -0.600352       -16.3364
 123   2.0000      -0.588421       -16.0117
 124   2.0000      -0.586683       -15.9644
 125   2.0000      -0.584071       -15.8934
 126   2.0000      -0.578468       -15.7409
 127   2.0000      -0.577408       -15.7121
 128   2.0000      -0.563168       -15.3246
 129   2.0000      -0.558420       -15.1954
 130   2.0000      -0.553830       -15.0705
 131   2.0000      -0.549073       -14.9410
 132   2.0000      -0.542535       -14.7631
 133   2.0000      -0.538981       -14.6664
 134   2.0000      -0.535286       -14.5659
 135   2.0000      -0.534001       -14.5309
 136   2.0000      -0.524928       -14.2840
 137   2.0000      -0.524114       -14.2619
 138   2.0000      -0.517877       -14.0921
 139   2.0000      -0.514943       -14.0123
 140   2.0000      -0.510472       -13.8906
 141   2.0000      -0.509874       -13.8744
 142   2.0000      -0.509113       -13.8537
 143   2.0000      -0.502479       -13.6731
 144   2.0000      -0.500622       -13.6226
 145   2.0000      -0.497079       -13.5262
 146   2.0000      -0.494135       -13.4461
 147   2.0000      -0.486165       -13.2292
 148   2.0000      -0.484005       -13.1704
 149   2.0000      -0.468745       -12.7552
 150   2.0000      -0.463982       -12.6256
 151   2.0000      -0.456072       -12.4104
 152   2.0000      -0.448545       -12.2055
 153   2.0000      -0.446762       -12.1570
 154   2.0000      -0.445305       -12.1174
 155   2.0000      -0.440344       -11.9824
 156   2.0000      -0.432265       -11.7625
 157   2.0000      -0.427976       -11.6458
 158   2.0000      -0.400496       -10.8980
 159   2.0000      -0.385548       -10.4913
 160   2.0000      -0.379086       -10.3155
 161   2.0000      -0.376893       -10.2558
 162   2.0000      -0.370818       -10.0905
 163   2.0000      -0.359655        -9.7867
 164   2.0000      -0.353245        -9.6123
 165   2.0000      -0.337662        -9.1882
 166   2.0000      -0.337165        -9.1747
 167   2.0000      -0.331601        -9.0233
 168   2.0000      -0.328216        -8.9312
 169   2.0000      -0.302523        -8.2321
 170   2.0000      -0.299740        -8.1563
 171   2.0000      -0.286963        -7.8087
 172   2.0000      -0.284344        -7.7374
 173   2.0000      -0.259597        -7.0640
 174   2.0000      -0.245515        -6.6808
 175   2.0000      -0.189457        -5.1554
 176   2.0000      -0.179661        -4.8888
 177   2.0000      -0.072190        -1.9644
 178   2.0000      -0.057187        -1.5562
 179   0.0000       0.029071         0.7911
 180   0.0000       0.067864         1.8467
 181   0.0000       0.092238         2.5099
 182   0.0000       0.105269         2.8645
 183   0.0000       0.116775         3.1776

MULLIKEN ATOMIC CHARGES
-----------------------
   0 C :    0.204783
   1 N :   -0.452560
   2 C :   -0.064062
   3 N :   -0.335966
   4 C :   -0.054178
   5 N :   -0.560744
   6 C :   -0.106138
   7 N :   -0.339710
   8 C :    0.204783
   9 N :   -0.562730
  10 C :    0.117780
  11 N :   -0.437524
  12 C :   -0.080353
  13 N :   -0.433156
  14 C :    0.230185
  15 N :   -0.441387
  16 C :    0.229916
  17 C :   -0.103690
  18 C :   -0.180722
  19 C :    0.216917
  20 C :    0.213092
  21 C :   -0.089676
  22 C :   -0.088024
  23 C :   -0.042733
  24 C :    0.198940
  25 C :    0.113974
  26 C :   -0.074187
  27 C :    0.213777
  28 C :   -0.058185
  29 C :   -0.181081
  30 C :    0.242199
  31 C :    0.224426
  32 C :   -0.062352
  33 C :   -0.068029
  34 C :   -0.049570
  35 C :    0.218645
  36 C :    0.110330
  37 C :   -0.065107
  38 C :    0.234295
  39 C :   -0.059938
  40 C :   -0.183235
  41 C :    0.222811
  42 C :    0.198420
  43 C :   -0.073094
  44 C :   -0.090865
  45 C :   -0.058828
  46 C :    0.207712
  47 C :    0.115733
  48 C :   -0.070028
  49 C :    0.234094
  50 C :   -0.048527
  51 C :   -0.192348
  52 H :    0.043113
  53 H :   -0.015830
  54 H :    0.049914
  55 H :    0.042048
  56 H :    0.051320
  57 H :    0.049884
  58 H :    0.049058
  59 H :   -0.001058
  60 H :    0.048641
  61 H :    0.171367
  62 H :    0.174844
  63 H :    0.056865
  64 H :   -0.007961
  65 H :    0.047008
  66 H :    0.057093
  67 H :    0.063522
  68 H :    0.058035
  69 H :    0.057860
  70 H :   -0.027269
  71 H :    0.046952
  72 H :    0.066178
  73 H :   -0.009939
  74 H :    0.055694
  75 H :    0.065346
  76 H :    0.070448
  77 H :    0.064543
  78 H :    0.063692
  79 H :   -0.015092
  80 H :    0.056184
  81 H :    0.053533
  82 H :   -0.024875
  83 H :    0.041357
  84 H :    0.052984
  85 H :    0.059551
  86 H :    0.055267
  87 H :    0.056638
  88 H :   -0.016971
  89 H :    0.045974
Sum of atomic charges:    0.0000000

LOEWDIN ATOMIC CHARGES
----------------------
   0 C :   -0.019713
   1 N :    0.118680
   2 C :   -0.101268
   3 N :    0.182368
   4 C :    0.001568
   5 N :   -0.131823
   6 C :   -0.036529
   7 N :    0.176188
   8 C :   -0.019192
   9 N :   -0.139937
  10 C :    0.024691
  11 N :    0.144340
  12 C :   -0.106740
  13 N :    0.157563
  14 C :   -0.036302
  15 N :    0.137497
  16 C :   -0.055397
  17 C :   -0.035640
  18 C :   -0.101578
  19 C :   -0.085783
  20 C :    0.004928
  21 C :   -0.110982
  22 C :    0.040905
  23 C :   -0.016301
  24 C :   -0.007412
  25 C :    0.030380
  26 C :   -0.106649
  27 C :   -0.110681
  28 C :   -0.024652
  29 C :   -0.100732
  30 C :   -0.036334
  31 C :    0.017188
  32 C :   -0.094910
  33 C :    0.067181
  34 C :   -0.015967
  35 C :    0.012344
  36 C :    0.033281
  37 C :   -0.096475
  38 C :   -0.046652
  39 C :   -0.020818
  40 C :   -0.108104
  41 C :   -0.094243
  42 C :   -0.009801
  43 C :   -0.101648
  44 C :    0.031334
  45 C :   -0.026794
  46 C :   -0.001830
  47 C :    0.029155
  48 C :   -0.099059
  49 C :   -0.076087
  50 C :   -0.020433
  51 C :   -0.109577
  52 H :    0.024708
  53 H :    0.003470
  54 H :    0.041120
  55 H :    0.024911
  56 H :    0.022707
  57 H :    0.027250
  58 H :    0.027776
  59 H :    0.008432
  60 H :    0.041165
  61 H :    0.060061
  62 H :    0.061516
  63 H :    0.031377
  64 H :    0.003618
  65 H :    0.045716
  66 H :    0.030049
  67 H :    0.028797
  68 H :    0.031996
  69 H :    0.030974
  70 H :   -0.003479
  71 H :    0.044573
  72 H :    0.035338
  73 H :    0.006183
  74 H :    0.048769
  75 H :    0.034727
  76 H :    0.032469
  77 H :    0.034558
  78 H :    0.034187
  79 H :    0.003696
  80 H :    0.048441
  81 H :    0.028770
  82 H :   -0.002676
  83 H :    0.042415
  84 H :    0.029232
  85 H :    0.026746
  86 H :    0.030021
  87 H :    0.031134
  88 H :    0.001203
  89 H :    0.044497

  Mayer bond orders larger than 0.100000
B(  0-C ,  1-N ) :   1.0922 B(  0-C , 17-C ) :   1.6918 B(  0-C , 52-H ) :   0.9682
B(  1-N ,  8-C ) :   1.0921 B(  1-N , 10-C ) :   0.9749 B(  2-C , 12-C ) :   1.5187
B(  2-C , 16-C ) :   1.3451 B(  2-C , 53-H ) :   0.9767 B(  3-N , 14-C ) :   1.2152
B(  3-N , 16-C ) :   1.1930 B(  3-N , 61-H ) :   0.8993 B(  4-C ,  6-C ) :   1.2201
B(  4-C , 17-C ) :   1.2201 B(  4-C , 18-C ) :   1.3928 B(  5-N , 19-C ) :   1.4452
B(  5-N , 27-C ) :   1.3859 B(  6-C ,  8-C ) :   1.6911 B(  6-C , 54-H ) :   0.9657
B(  7-N , 30-C ) :   1.1936 B(  7-N , 38-C ) :   1.1951 B(  7-N , 62-H ) :   0.8971
B(  8-C , 55-H ) :   0.9691 B(  9-N , 41-C ) :   1.3961 B(  9-N , 49-C ) :   1.4255
B( 10-C , 56-H ) :   0.9766 B( 10-C , 57-H ) :   0.9830 B( 10-C , 58-H ) :   0.9833
B( 11-N , 20-C ) :   1.1310 B( 11-N , 24-C ) :   1.1144 B( 11-N , 25-C ) :   0.9584
B( 12-C , 14-C ) :   1.3473 B( 12-C , 59-H ) :   0.9750 B( 13-N , 31-C ) :   1.1492
B( 13-N , 35-C ) :   1.1429 B( 13-N , 36-C ) :   0.9479 B( 14-C , 18-C ) :   1.1489
B( 15-N , 42-C ) :   1.1085 B( 15-N , 46-C ) :   1.1192 B( 15-N , 47-C ) :   0.9625
B( 16-C , 51-C ) :   1.1799 B( 17-C , 60-H ) :   0.9656 B( 18-C , 19-C ) :   1.1558
B( 19-C , 21-C ) :   1.2341 B( 20-C , 28-C ) :   1.6242 B( 20-C , 63-H ) :   0.9701
B( 21-C , 26-C ) :   1.6249 B( 21-C , 64-H ) :   0.9711 B( 22-C , 23-C ) :   1.2900
B( 22-C , 28-C ) :   1.2698 B( 22-C , 29-C ) :   1.2205 B( 23-C , 24-C ) :   1.6165
B( 23-C , 65-H ) :   0.9706 B( 24-C , 66-H ) :   0.9693 B( 25-C , 67-H ) :   0.9761
B( 25-C , 68-H ) :   0.9828 B( 25-C , 69-H ) :   0.9822 B( 26-C , 27-C ) :   1.2286
B( 26-C , 70-H ) :   0.9716 B( 27-C , 29-C ) :   1.2194 B( 28-C , 71-H ) :   0.9717
B( 29-C , 30-C ) :   1.2345 B( 30-C , 32-C ) :   1.2894 B( 31-C , 39-C ) :   1.6032
B( 31-C , 72-H ) :   0.9686 B( 32-C , 37-C ) :   1.5698 B( 32-C , 73-H ) :   0.9783
B( 33-C , 34-C ) :   1.2972 B( 33-C , 39-C ) :   1.2902 B( 33-C , 40-C ) :   1.1999
B( 34-C , 35-C ) :   1.5997 B( 34-C , 74-H ) :   0.9699 B( 35-C , 75-H ) :   0.9687
B( 36-C , 76-H ) :   0.9766 B( 36-C , 77-H ) :   0.9817 B( 36-C , 78-H ) :   0.9826
B( 37-C , 38-C ) :   1.2927 B( 37-C , 79-H ) :   0.9770 B( 38-C , 40-C ) :   1.2262
B( 39-C , 80-H ) :   0.9709 B( 40-C , 41-C ) :   1.2392 B( 41-C , 43-C ) :   1.1969
B( 42-C , 50-C ) :   1.6356 B( 42-C , 81-H ) :   0.9697 B( 43-C , 48-C ) :   1.6547
B( 43-C , 82-H ) :   0.9726 B( 44-C , 45-C ) :   1.2638 B( 44-C , 50-C ) :   1.2686
B( 44-C , 51-C ) :   1.2635 B( 45-C , 46-C ) :   1.6363 B( 45-C , 83-H ) :   0.9716
B( 46-C , 84-H ) :   0.9702 B( 47-C , 85-H ) :   0.9762 B( 47-C , 86-H ) :   0.9829
B( 47-C , 87-H ) :   0.9825 B( 48-C , 49-C ) :   1.1996 B( 48-C , 88-H ) :   0.9746
B( 49-C , 51-C ) :   1.2305 B( 50-C , 89-H ) :   0.9710

MP2 TOTAL ENERGY:    -2130.911641599 Eh
FINAL SINGLE POINT ENERGY     -2130.911641598666

DIPOLE MOMENT
-------------
                                X             Y             Z
Electronic contribution:      1.53565      -3.29661      -0.22372
Nuclear contribution   :      0.02275       0.20067       0.22902
                        -----------------------------------------
Total Dipole Moment    :      1.55840      -3.09594       0.00530
                        -----------------------------------------
Magnitude (a.u.)       :      3.46605
Magnitude (Debye)      :      8.80999

Rotational constants in cm-1:     0.001499     0.001477     0.000761
Rotational constants in MHz :    44.947961    44.271090    22.821036

                             ****ORCA TERMINATED NORMALLY****
TOTAL RUN TIME: 0 days 1 hours 8 minutes 57 seconds 205 msec
