                         Program Version 5.0.4 -  RELEASE  -
|  1> ! PAL2
|  2> ! mp2 cc-pvdz TightSCF  NoKeepInts
|  3>
|  4> %scf
|  5>   MaxCore 2000
|  6> end
|  7> %mp2
|  8>   MaxCore 2000
|  9> end
| 10> * xyz 0 1
| 11>    C       -4.65600         5.40400        -0.76900
| 12>    C        1.47400         4.04100         0.05700
| 13>    C       -2.80200         4.09300         0.04900
| 14>    C       -2.51500         5.14500         0.93300
| 15>    C       -3.30100         6.28000         0.93900
| 16>    C       -5.19800         7.61200         0.15200
| 17>    C        0.13200         4.30700         0.06100
| 18>    C       -0.56900         3.05600         0.04700
| 19>    C        1.64900         2.61800         0.02300
| 20>    C       -3.90200         4.24700        -0.80900
| 21>    N       -4.35200         6.39900         0.09400
| 22>    N        0.38800         2.06700         0.02500
| 23>    N       -2.01000         0.39500        -0.07500
| 24>    N       -0.38800        -2.07400        -0.02700
| 25>    N        2.01000        -0.40100         0.06500
| 26>    C       -1.96000         2.86100         0.02400
| 27>    C       -2.62300         1.61500        -0.01800
| 28>    C       -5.57300        -4.32900         1.06600
| 29>    C       -4.07300         1.47100         0.05600
| 30>    C       -4.10600        -2.75600        -0.02600
| 31>    C       -4.99500        -2.75700        -1.11100
| 32>    C       -6.13200        -3.54200        -1.07600
| 33>    C       -7.65100        -5.11300         0.04000
| 34>    C       -4.32400         0.14100         0.03700
| 35>    C       -3.02500        -0.52000        -0.04800
| 36>    C       -4.42200        -3.56600         1.07500
| 37>    N       -6.40700        -4.31300         0.00100
| 38>    C       -2.86700        -1.92200        -0.04000
| 39>    C       -1.65000        -2.62400        -0.02700
| 40>    C        3.56800        -6.14200        -1.04000
| 41>    C       -1.47600        -4.04900        -0.03400
| 42>    C        2.80300        -4.09900        -0.00800
| 43>    C        3.65700        -4.38400         1.06900
| 44>    C        4.42700        -5.53000         1.05900
| 45>    C        5.24500        -7.58800         0.01400
| 46>    C       -0.13400        -4.31500        -0.02200
| 47>    C        0.56800        -3.06400        -0.02700
| 48>    C        2.77500        -5.01200        -1.07400
| 49>    N        4.37600        -6.39100         0.01700
| 50>    C        1.95900        -2.86900        -0.00900
| 51>    C        2.62100        -1.62200         0.00900
| 52>    C        5.54300         4.33900        -1.13000
| 53>    C        4.07000        -1.47900        -0.09400
| 54>    C        4.10400         2.75100        -0.02100
| 55>    C        5.02700         2.72900         1.03600
| 56>    C        6.16600         3.50900         0.97800
| 57>    C        7.61900         5.15300        -0.11500
| 58>    C        4.32100        -0.14800        -0.09200
| 59>    C        3.02500         0.51400         0.01500
| 60>    C        4.38700         3.58200        -1.11500
| 61>    C        2.86600         1.91600         0.01300
| 62>    N        6.41300         4.29600        -0.09500
| 63>    H       -5.50500         5.57000        -1.42000
| 64>    H        2.27400         4.76600         0.08100
| 65>    H       -1.68500         5.08200         1.62600
| 66>    H       -3.12400         7.11200         1.60700
| 67>    H       -5.96400         7.47500         0.91900
| 68>    H       -4.56900         8.46700         0.39800
| 69>    H       -5.66500         7.76000        -0.82100
| 70>    H       -0.33200         5.28200         0.06900
| 71>    H       -4.16700         3.47600        -1.52300
| 72>    H        0.18200         1.07200         0.00500
| 73>    H       -0.18300        -1.08000        -0.02100
| 74>    H       -5.86400        -4.96200         1.89500
| 75>    H       -4.79400         2.27200         0.13900
| 76>    H       -4.80000        -2.16000        -1.99400
| 77>    H       -6.84100        -3.58200        -1.89300
| 78>    H       -8.42800        -4.53600         0.54600
| 79>    H       -7.95600        -5.33700        -0.98100
| 80>    H       -7.45600        -6.03700         0.58400
| 81>    H       -5.28700        -0.34400         0.10000
| 82>    H       -3.78000        -3.60100         1.94700
| 83>    H        3.58700        -6.86800        -1.84300
| 84>    H       -2.27600        -4.77400        -0.05000
| 85>    H        3.71400        -3.72400         1.92600
| 86>    H        5.09200        -5.79500         1.87100
| 87>    H        6.20500        -7.32900        -0.43900
| 88>    H        5.39300        -7.91700         1.04200
| 89>    H        4.75900        -8.37300        -0.56400
| 90>    H        0.32900        -5.29000        -0.00800
| 91>    H        2.14600        -4.84200        -1.94000
| 92>    H        5.80800         4.98600        -1.95600
| 93>    H        4.78800        -2.28100        -0.18500
| 94>    H        4.86000         2.11400         1.91200
| 95>    H        6.90100         3.53100         1.77200
| 96>    H        7.38300         6.10900         0.35600
| 97>    H        8.41400         4.65200         0.43500
| 98>    H        7.92100         5.31000        -1.15000
| 99>    H        5.28300         0.33600        -0.17900
|100>    H        3.72000         3.63200        -1.96700
|101> *
|102>
|103>                          ****END OF INPUT****

CARTESIAN COORDINATES (ANGSTROEM)
---------------------------------
  C     -4.656000    5.404000   -0.769000
  C      1.474000    4.041000    0.057000
  C     -2.802000    4.093000    0.049000
  C     -2.515000    5.145000    0.933000
  C     -3.301000    6.280000    0.939000
  C     -5.198000    7.612000    0.152000
  C      0.132000    4.307000    0.061000
  C     -0.569000    3.056000    0.047000
  C      1.649000    2.618000    0.023000
  C     -3.902000    4.247000   -0.809000
  N     -4.352000    6.399000    0.094000
  N      0.388000    2.067000    0.025000
  N     -2.010000    0.395000   -0.075000
  N     -0.388000   -2.074000   -0.027000
  N      2.010000   -0.401000    0.065000
  C     -1.960000    2.861000    0.024000
  C     -2.623000    1.615000   -0.018000
  C     -5.573000   -4.329000    1.066000
  C     -4.073000    1.471000    0.056000
  C     -4.106000   -2.756000   -0.026000
  C     -4.995000   -2.757000   -1.111000
  C     -6.132000   -3.542000   -1.076000
  C     -7.651000   -5.113000    0.040000
  C     -4.324000    0.141000    0.037000
  C     -3.025000   -0.520000   -0.048000
  C     -4.422000   -3.566000    1.075000
  N     -6.407000   -4.313000    0.001000
  C     -2.867000   -1.922000   -0.040000
  C     -1.650000   -2.624000   -0.027000
  C      3.568000   -6.142000   -1.040000
  C     -1.476000   -4.049000   -0.034000
  C      2.803000   -4.099000   -0.008000
  C      3.657000   -4.384000    1.069000
  C      4.427000   -5.530000    1.059000
  C      5.245000   -7.588000    0.014000
  C     -0.134000   -4.315000   -0.022000
  C      0.568000   -3.064000   -0.027000
  C      2.775000   -5.012000   -1.074000
  N      4.376000   -6.391000    0.017000
  C      1.959000   -2.869000   -0.009000
  C      2.621000   -1.622000    0.009000
  C      5.543000    4.339000   -1.130000
  C      4.070000   -1.479000   -0.094000
  C      4.104000    2.751000   -0.021000
  C      5.027000    2.729000    1.036000
  C      6.166000    3.509000    0.978000
  C      7.619000    5.153000   -0.115000
  C      4.321000   -0.148000   -0.092000
  C      3.025000    0.514000    0.015000
  C      4.387000    3.582000   -1.115000
  C      2.866000    1.916000    0.013000
  N      6.413000    4.296000   -0.095000
  H     -5.505000    5.570000   -1.420000
  H      2.274000    4.766000    0.081000
  H     -1.685000    5.082000    1.626000
  H     -3.124000    7.112000    1.607000
  H     -5.964000    7.475000    0.919000
  H     -4.569000    8.467000    0.398000
  H     -5.665000    7.760000   -0.821000
  H     -0.332000    5.282000    0.069000
  H     -4.167000    3.476000   -1.523000
  H      0.182000    1.072000    0.005000
  H     -0.183000   -1.080000   -0.021000
  H     -5.864000   -4.962000    1.895000
  H     -4.794000    2.272000    0.139000
  H     -4.800000   -2.160000   -1.994000
  H     -6.841000   -3.582000   -1.893000
  H     -8.428000   -4.536000    0.546000
  H     -7.956000   -5.337000   -0.981000
  H     -7.456000   -6.037000    0.584000
  H     -5.287000   -0.344000    0.100000
  H     -3.780000   -3.601000    1.947000
  H      3.587000   -6.868000   -1.843000
  H     -2.276000   -4.774000   -0.050000
  H      3.714000   -3.724000    1.926000
  H      5.092000   -5.795000    1.871000
  H      6.205000   -7.329000   -0.439000
  H      5.393000   -7.917000    1.042000
  H      4.759000   -8.373000   -0.564000
  H      0.329000   -5.290000   -0.008000
  H      2.146000   -4.842000   -1.940000
  H      5.808000    4.986000   -1.956000
  H      4.788000   -2.281000   -0.185000
  H      4.860000    2.114000    1.912000
  H      6.901000    3.531000    1.772000
  H      7.383000    6.109000    0.356000
  H      8.414000    4.652000    0.435000
  H      7.921000    5.310000   -1.150000
  H      5.283000    0.336000   -0.179000
  H      3.720000    3.632000   -1.967000

 Total Charge           Charge          ....    0
 Multiplicity           Mult            ....    1
 Number of Electrons    NEL             ....  358
 Basis Dimension        Dim             ....  918

ORBITAL ENERGIES
----------------

  NO   OCC          E(Eh)            E(eV)
   0   2.0000     -15.659787      -426.1245
   1   2.0000     -15.638882      -425.5556
   2   2.0000     -15.628412      -425.2707
   3   2.0000     -15.601634      -424.5421
   4   2.0000     -15.523015      -422.4027
   5   2.0000     -15.515766      -422.2054
   6   2.0000     -15.448761      -420.3822
   7   2.0000     -15.443603      -420.2418
   8   2.0000     -11.315545      -307.9116
   9   2.0000     -11.313286      -307.8502
  10   2.0000     -11.310861      -307.7842
  11   2.0000     -11.302329      -307.5520
  12   2.0000     -11.296024      -307.3805
  13   2.0000     -11.295895      -307.3769
  14   2.0000     -11.292105      -307.2738
  15   2.0000     -11.287060      -307.1365
  16   2.0000     -11.284366      -307.0632
  17   2.0000     -11.280231      -306.9507
  18   2.0000     -11.264940      -306.5346
  19   2.0000     -11.264867      -306.5326
  20   2.0000     -11.263193      -306.4871
  21   2.0000     -11.249235      -306.1072
  22   2.0000     -11.248325      -306.0825
  23   2.0000     -11.242390      -305.9210
  24   2.0000     -11.234621      -305.7096
  25   2.0000     -11.234041      -305.6938
  26   2.0000     -11.233050      -305.6668
  27   2.0000     -11.226881      -305.4990
  28   2.0000     -11.226658      -305.4929
  29   2.0000     -11.211290      -305.0747
  30   2.0000     -11.207015      -304.9584
  31   2.0000     -11.206582      -304.9466
  32   2.0000     -11.205913      -304.9284
  33   2.0000     -11.205788      -304.9250
  34   2.0000     -11.190947      -304.5212
  35   2.0000     -11.190518      -304.5095
  36   2.0000     -11.182255      -304.2846
  37   2.0000     -11.179197      -304.2014
  38   2.0000     -11.178631      -304.1860
  39   2.0000     -11.174083      -304.0623
  40   2.0000     -11.168073      -303.8987
  41   2.0000     -11.167707      -303.8888
  42   2.0000     -11.165323      -303.8239
  43   2.0000     -11.165138      -303.8189
  44   2.0000     -11.164240      -303.7944
  45   2.0000     -11.161799      -303.7280
  46   2.0000     -11.151939      -303.4597
  47   2.0000     -11.149497      -303.3932
  48   2.0000     -11.148157      -303.3568
  49   2.0000     -11.145375      -303.2811
  50   2.0000     -11.137376      -303.0634
  51   2.0000     -11.132206      -302.9227
  52   2.0000      -1.343331       -36.5539
  53   2.0000      -1.325423       -36.0666
  54   2.0000      -1.316517       -35.8243
  55   2.0000      -1.294572       -35.2271
  56   2.0000      -1.222924       -33.2774
  57   2.0000      -1.210996       -32.9529
  58   2.0000      -1.166363       -31.7383
  59   2.0000      -1.155283       -31.4368
  60   2.0000      -1.129189       -30.7268
  61   2.0000      -1.113622       -30.3032
  62   2.0000      -1.106072       -30.0977
  63   2.0000      -1.088467       -29.6187
  64   2.0000      -1.066219       -29.0133
  65   2.0000      -1.049365       -28.5547
  66   2.0000      -1.041235       -28.3335
  67   2.0000      -1.032243       -28.0888
  68   2.0000      -1.021669       -27.8010
  69   2.0000      -1.013494       -27.5786
  70   2.0000      -1.009332       -27.4653
  71   2.0000      -0.993254       -27.0278
  72   2.0000      -0.987051       -26.8590
  73   2.0000      -0.975578       -26.5468
  74   2.0000      -0.972996       -26.4766
  75   2.0000      -0.958831       -26.0911
  76   2.0000      -0.950778       -25.8720
  77   2.0000      -0.947339       -25.7784
  78   2.0000      -0.937090       -25.4995
  79   2.0000      -0.921836       -25.0844
  80   2.0000      -0.898073       -24.4378
  81   2.0000      -0.889026       -24.1916
  82   2.0000      -0.876279       -23.8448
  83   2.0000      -0.869433       -23.6585
  84   2.0000      -0.864120       -23.5139
  85   2.0000      -0.854752       -23.2590
  86   2.0000      -0.845843       -23.0166
  87   2.0000      -0.839253       -22.8372
  88   2.0000      -0.822055       -22.3693
  89   2.0000      -0.798747       -21.7350
  90   2.0000      -0.795360       -21.6428
  91   2.0000      -0.743213       -20.2239
  92   2.0000      -0.736311       -20.0360
  93   2.0000      -0.731492       -19.9049
  94   2.0000      -0.723027       -19.6746
  95   2.0000      -0.719513       -19.5789
  96   2.0000      -0.713343       -19.4110
  97   2.0000      -0.705320       -19.1927
  98   2.0000      -0.701428       -19.0868
  99   2.0000      -0.695995       -18.9390
 100   2.0000      -0.692647       -18.8479
 101   2.0000      -0.681590       -18.5470
 102   2.0000      -0.678867       -18.4729
 103   2.0000      -0.674191       -18.3457
 104   2.0000      -0.671267       -18.2661
 105   2.0000      -0.670562       -18.2469
 106   2.0000      -0.663990       -18.0681
 107   2.0000      -0.662407       -18.0250
 108   2.0000      -0.656911       -17.8755
 109   2.0000      -0.654365       -17.8062
 110   2.0000      -0.650284       -17.6951
 111   2.0000      -0.647430       -17.6175
 112   2.0000      -0.643445       -17.5090
 113   2.0000      -0.636753       -17.3269
 114   2.0000      -0.631713       -17.1898
 115   2.0000      -0.631526       -17.1847
 116   2.0000      -0.623223       -16.9588
 117   2.0000      -0.616149       -16.7663
 118   2.0000      -0.613540       -16.6953
 119   2.0000      -0.611722       -16.6458
 120   2.0000      -0.608556       -16.5596
 121   2.0000      -0.601753       -16.3745
 122   2.0000      -0.598469       -16.2852
 123   2.0000      -0.590122       -16.0580
 124   2.0000      -0.589110       -16.0305
 125   2.0000      -0.584579       -15.9072
 126   2.0000      -0.578314       -15.7367
 127   2.0000      -0.576623       -15.6907
 128   2.0000      -0.563311       -15.3285
 129   2.0000      -0.558553       -15.1990
 130   2.0000      -0.554114       -15.0782
 131   2.0000      -0.549551       -14.9541
 132   2.0000      -0.542225       -14.7547
 133   2.0000      -0.538331       -14.6487
 134   2.0000      -0.534181       -14.5358
 135   2.0000      -0.532593       -14.4926
 136   2.0000      -0.525160       -14.2903
 137   2.0000      -0.523673       -14.2499
 138   2.0000      -0.517686       -14.0870
 139   2.0000      -0.516592       -14.0572
 140   2.0000      -0.509772       -13.8716
 141   2.0000      -0.509103       -13.8534
 142   2.0000      -0.508361       -13.8332
 143   2.0000      -0.501948       -13.6587
 144   2.0000      -0.500521       -13.6199
 145   2.0000      -0.497391       -13.5347
 146   2.0000      -0.493996       -13.4423
 147   2.0000      -0.487285       -13.2597
 148   2.0000      -0.486684       -13.2433
 149   2.0000      -0.469156       -12.7664
 150   2.0000      -0.463134       -12.6025
 151   2.0000      -0.455138       -12.3849
 152   2.0000      -0.448187       -12.1958
 153   2.0000      -0.446958       -12.1623
 154   2.0000      -0.445936       -12.1345
 155   2.0000      -0.440045       -11.9742
 156   2.0000      -0.433543       -11.7973
 157   2.0000      -0.429095       -11.6763
 158   2.0000      -0.398401       -10.8411
 159   2.0000      -0.384944       -10.4749
 160   2.0000      -0.379140       -10.3169
 161   2.0000      -0.374200       -10.1825
 162   2.0000      -0.370854       -10.0915
 163   2.0000      -0.359849        -9.7920
 164   2.0000      -0.353110        -9.6086
 165   2.0000      -0.337432        -9.1820
 166   2.0000      -0.336255        -9.1500
 167   2.0000      -0.334712        -9.1080
 168   2.0000      -0.328569        -8.9408
 169   2.0000      -0.301369        -8.2007
 170   2.0000      -0.299799        -8.1579
 171   2.0000      -0.287369        -7.8197
 172   2.0000      -0.285115        -7.7584
 173   2.0000      -0.258542        -7.0353
 174   2.0000      -0.246214        -6.6998
 175   2.0000      -0.189200        -5.1484
 176   2.0000      -0.179336        -4.8800
 177   2.0000      -0.070863        -1.9283
 178   2.0000      -0.056679        -1.5423
 179   0.0000       0.029412         0.8003
 180   0.0000       0.068563         1.8657
 181   0.0000       0.092502         2.5171
 182   0.0000       0.103506         2.8165
 183   0.0000       0.119649         3.2558

MULLIKEN ATOMIC CHARGES
-----------------------
   0 C :    0.204769
   1 N :   -0.451113
   2 C :   -0.063969
   3 N :   -0.336046
   4 C :   -0.057107
   5 N :   -0.560784
   6 C :   -0.098215
   7 N :   -0.339451
   8 C :    0.203992
   9 N :   -0.562754
  10 C :    0.117865
  11 N :   -0.437424
  12 C :   -0.078439
  13 N :   -0.434126
  14 C :    0.232669
  15 N :   -0.441290
  16 C :    0.230376
  17 C :   -0.096257
  18 C :   -0.186175
  19 C :    0.219662
  20 C :    0.212546
  21 C :   -0.086962
  22 C :   -0.087588
  23 C :   -0.043577
  24 C :    0.200077
  25 C :    0.113906
  26 C :   -0.073820
  27 C :    0.214908
  28 C :   -0.057287
  29 C :   -0.181494
  30 C :    0.241206
  31 C :    0.222530
  32 C :   -0.062745
  33 C :   -0.069976
  34 C :   -0.049554
  35 C :    0.216482
  36 C :    0.110878
  37 C :   -0.065323
  38 C :    0.234760
  39 C :   -0.060208
  40 C :   -0.184031
  41 C :    0.222398
  42 C :    0.199028
  43 C :   -0.073208
  44 C :   -0.090591
  45 C :   -0.058006
  46 C :    0.207105
  47 C :    0.115722
  48 C :   -0.070768
  49 C :    0.232885
  50 C :   -0.049097
  51 C :   -0.191903
  52 H :    0.044565
  53 H :   -0.015553
  54 H :    0.048528
  55 H :    0.043304
  56 H :    0.052331
  57 H :    0.050659
  58 H :    0.049823
  59 H :   -0.003087
  60 H :    0.046712
  61 H :    0.171543
  62 H :    0.174579
  63 H :    0.056982
  64 H :   -0.010245
  65 H :    0.046984
  66 H :    0.057270
  67 H :    0.063547
  68 H :    0.058118
  69 H :    0.058089
  70 H :   -0.026876
  71 H :    0.047240
  72 H :    0.064763
  73 H :   -0.010566
  74 H :    0.054394
  75 H :    0.063903
  76 H :    0.069217
  77 H :    0.063609
  78 H :    0.062759
  79 H :   -0.014875
  80 H :    0.054845
  81 H :    0.053528
  82 H :   -0.024739
  83 H :    0.041565
  84 H :    0.052982
  85 H :    0.059449
  86 H :    0.055397
  87 H :    0.056641
  88 H :   -0.017713
  89 H :    0.045848
Sum of atomic charges:   -0.0000000

LOEWDIN ATOMIC CHARGES
----------------------
   0 C :   -0.017667
   1 N :    0.121019
   2 C :   -0.101019
   3 N :    0.181719
   4 C :    0.006600
   5 N :   -0.132662
   6 C :   -0.033663
   7 N :    0.176393
   8 C :   -0.017635
   9 N :   -0.139749
  10 C :    0.025528
  11 N :    0.144605
  12 C :   -0.105241
  13 N :    0.155270
  14 C :   -0.037794
  15 N :    0.137631
  16 C :   -0.054264
  17 C :   -0.033961
  18 C :   -0.102517
  19 C :   -0.086164
  20 C :    0.004529
  21 C :   -0.109306
  22 C :    0.041582
  23 C :   -0.016828
  24 C :   -0.006338
  25 C :    0.030435
  26 C :   -0.106153
  27 C :   -0.108494
  28 C :   -0.024043
  29 C :   -0.101586
  30 C :   -0.037762
  31 C :    0.014960
  32 C :   -0.095471
  33 C :    0.063321
  34 C :   -0.016454
  35 C :    0.009866
  36 C :    0.032761
  37 C :   -0.097102
  38 C :   -0.045808
  39 C :   -0.021483
  40 C :   -0.108162
  41 C :   -0.094344
  42 C :   -0.009258
  43 C :   -0.102165
  44 C :    0.031689
  45 C :   -0.026209
  46 C :   -0.002327
  47 C :    0.029166
  48 C :   -0.099981
  49 C :   -0.078039
  50 C :   -0.020770
  51 C :   -0.109422
  52 H :    0.025335
  53 H :    0.003609
  54 H :    0.041061
  55 H :    0.025275
  56 H :    0.023159
  57 H :    0.027581
  58 H :    0.028188
  59 H :    0.007541
  60 H :    0.040983
  61 H :    0.060106
  62 H :    0.061379
  63 H :    0.031405
  64 H :    0.002616
  65 H :    0.045666
  66 H :    0.030168
  67 H :    0.028820
  68 H :    0.032033
  69 H :    0.031073
  70 H :   -0.003294
  71 H :    0.044748
  72 H :    0.034672
  73 H :    0.005881
  74 H :    0.048219
  75 H :    0.034036
  76 H :    0.031833
  77 H :    0.034118
  78 H :    0.033750
  79 H :    0.003811
  80 H :    0.047858
  81 H :    0.028790
  82 H :   -0.002589
  83 H :    0.042551
  84 H :    0.029207
  85 H :    0.026703
  86 H :    0.030075
  87 H :    0.031134
  88 H :    0.000850
  89 H :    0.044416

  Mayer bond orders larger than 0.100000
B(  0-C ,  1-N ) :   1.0959 B(  0-C , 17-C ) :   1.6834 B(  0-C , 52-H ) :   0.9685
B(  1-N ,  8-C ) :   1.0934 B(  1-N , 10-C ) :   0.9732 B(  2-C , 12-C ) :   1.5220
B(  2-C , 16-C ) :   1.3413 B(  2-C , 53-H ) :   0.9770 B(  3-N , 14-C ) :   1.2136
B(  3-N , 16-C ) :   1.1933 B(  3-N , 61-H ) :   0.8992 B(  4-C ,  6-C ) :   1.2249
B(  4-C , 17-C ) :   1.2261 B(  4-C , 18-C ) :   1.3753 B(  5-N , 19-C ) :   1.4419
B(  5-N , 27-C ) :   1.3884 B(  6-C ,  8-C ) :   1.6845 B(  6-C , 54-H ) :   0.9675
B(  7-N , 30-C ) :   1.1934 B(  7-N , 38-C ) :   1.1962 B(  7-N , 62-H ) :   0.8973
B(  8-C , 55-H ) :   0.9695 B(  9-N , 41-C ) :   1.3976 B(  9-N , 49-C ) :   1.4244
B( 10-C , 56-H ) :   0.9765 B( 10-C , 57-H ) :   0.9829 B( 10-C , 58-H ) :   0.9834
B( 11-N , 20-C ) :   1.1304 B( 11-N , 24-C ) :   1.1159 B( 11-N , 25-C ) :   0.9582
B( 12-C , 14-C ) :   1.3438 B( 12-C , 59-H ) :   0.9751 B( 13-N , 31-C ) :   1.1455
B( 13-N , 35-C ) :   1.1390 B( 13-N , 36-C ) :   0.9496 B( 14-C , 18-C ) :   1.1566
B( 15-N , 42-C ) :   1.1094 B( 15-N , 46-C ) :   1.1185 B( 15-N , 47-C ) :   0.9625
B( 16-C , 51-C ) :   1.1832 B( 17-C , 60-H ) :   0.9673 B( 18-C , 19-C ) :   1.1645
B( 19-C , 21-C ) :   1.2310 B( 20-C , 28-C ) :   1.6237 B( 20-C , 63-H ) :   0.9701
B( 21-C , 26-C ) :   1.6279 B( 21-C , 64-H ) :   0.9714 B( 22-C , 23-C ) :   1.2895
B( 22-C , 28-C ) :   1.2708 B( 22-C , 29-C ) :   1.2210 B( 23-C , 24-C ) :   1.6163
B( 23-C , 65-H ) :   0.9706 B( 24-C , 66-H ) :   0.9693 B( 25-C , 67-H ) :   0.9761
B( 25-C , 68-H ) :   0.9828 B( 25-C , 69-H ) :   0.9822 B( 26-C , 27-C ) :   1.2255
B( 26-C , 70-H ) :   0.9719 B( 27-C , 29-C ) :   1.2212 B( 28-C , 71-H ) :   0.9717
B( 29-C , 30-C ) :   1.2313 B( 30-C , 32-C ) :   1.2925 B( 31-C , 39-C ) :   1.6072
B( 31-C , 72-H ) :   0.9688 B( 32-C , 37-C ) :   1.5665 B( 32-C , 73-H ) :   0.9782
B( 33-C , 34-C ) :   1.2941 B( 33-C , 39-C ) :   1.2870 B( 33-C , 40-C ) :   1.2068
B( 34-C , 35-C ) :   1.6037 B( 34-C , 74-H ) :   0.9700 B( 35-C , 75-H ) :   0.9689
B( 36-C , 76-H ) :   0.9765 B( 36-C , 77-H ) :   0.9818 B( 36-C , 78-H ) :   0.9827
B( 37-C , 38-C ) :   1.2955 B( 37-C , 79-H ) :   0.9771 B( 38-C , 40-C ) :   1.2238
B( 39-C , 80-H ) :   0.9710 B( 40-C , 41-C ) :   1.2361 B( 41-C , 43-C ) :   1.1997
B( 42-C , 50-C ) :   1.6353 B( 42-C , 81-H ) :   0.9696 B( 43-C , 48-C ) :   1.6519
B( 43-C , 82-H ) :   0.9727 B( 44-C , 45-C ) :   1.2647 B( 44-C , 50-C ) :   1.2684
B( 44-C , 51-C ) :   1.2625 B( 45-C , 46-C ) :   1.6359 B( 45-C , 83-H ) :   0.9716
B( 46-C , 84-H ) :   0.9702 B( 47-C , 85-H ) :   0.9762 B( 47-C , 86-H ) :   0.9829
B( 47-C , 87-H ) :   0.9825 B( 48-C , 49-C ) :   1.2020 B( 48-C , 88-H ) :   0.9745
B( 49-C , 51-C ) :   1.2282 B( 50-C , 89-H ) :   0.9711

MP2 TOTAL ENERGY:    -2130.914142721 Eh
FINAL SINGLE POINT ENERGY     -2130.914142720694

DIPOLE MOMENT
-------------
                                X             Y             Z
Electronic contribution:      1.26783      -2.94676      -0.21997
Nuclear contribution   :      0.01870       0.19738       0.22867
                        -----------------------------------------
Total Dipole Moment    :      1.28653      -2.74938       0.00870
                        -----------------------------------------
Magnitude (a.u.)       :      3.03551
Magnitude (Debye)      :      7.71565

Rotational constants in cm-1:     0.001499     0.001476     0.000761
Rotational constants in MHz :    44.939108    44.256039    22.826579

                             ****ORCA TERMINATED NORMALLY****
TOTAL RUN TIME: 0 days 1 hours 18 minutes 33 seconds 906 msec
