                         Program Version 5.0.4 -  RELEASE  -
|  1> ! PAL2
|  2> ! mp2 cc-pvdz TightSCF  NoKeepInts
|  3>
|  4> %scf
|  5>   MaxCore 2000
|  6> end
|  7> %mp2
|  8>   MaxCore 2000
|  9> end
| 10> * xyz 0 1
| 11>    C       -3.14600         6.40700         0.64200
| 12>    C        1.47400         4.04100         0.05700
| 13>    C       -2.80200         4.09300         0.04900
| 14>    C       -4.09300         4.09500        -0.50100
| 15>    C       -4.86000         5.24200        -0.46500
| 16>    C       -5.21900         7.59900         0.09300
| 17>    C        0.13200         4.30700         0.06100
| 18>    C       -0.56900         3.05600         0.04700
| 19>    C        1.64900         2.61800         0.02300
| 20>    C       -2.33900         5.28600         0.62500
| 21>    N       -4.38600         6.37500         0.10400
| 22>    N        0.38800         2.06700         0.02500
| 23>    N       -2.01000         0.39500        -0.07500
| 24>    N       -0.38800        -2.07400        -0.02700
| 25>    N        2.01000        -0.40100         0.06500
| 26>    C       -1.96000         2.86100         0.02400
| 27>    C       -2.62300         1.61500        -0.01800
| 28>    C       -5.57300        -4.32900         1.06600
| 29>    C       -4.07300         1.47100         0.05600
| 30>    C       -4.10600        -2.75600        -0.02600
| 31>    C       -4.99500        -2.75700        -1.11100
| 32>    C       -6.13200        -3.54200        -1.07600
| 33>    C       -7.65100        -5.11300         0.04000
| 34>    C       -4.32400         0.14100         0.03700
| 35>    C       -3.02500        -0.52000        -0.04800
| 36>    C       -4.42200        -3.56600         1.07500
| 37>    N       -6.40700        -4.31300         0.00100
| 38>    C       -2.86700        -1.92200        -0.04000
| 39>    C       -1.65000        -2.62400        -0.02700
| 40>    C        3.56800        -6.14200        -1.04000
| 41>    C       -1.47600        -4.04900        -0.03400
| 42>    C        2.80300        -4.09900        -0.00800
| 43>    C        3.65700        -4.38400         1.06900
| 44>    C        4.42700        -5.53000         1.05900
| 45>    C        5.24500        -7.58800         0.01400
| 46>    C       -0.13400        -4.31500        -0.02200
| 47>    C        0.56800        -3.06400        -0.02700
| 48>    C        2.77500        -5.01200        -1.07400
| 49>    N        4.37600        -6.39100         0.01700
| 50>    C        1.95900        -2.86900        -0.00900
| 51>    C        2.62100        -1.62200         0.00900
| 52>    C        5.54300         4.33900        -1.13000
| 53>    C        4.07000        -1.47900        -0.09400
| 54>    C        4.10400         2.75100        -0.02100
| 55>    C        5.02700         2.72900         1.03600
| 56>    C        6.16600         3.50900         0.97800
| 57>    C        7.61900         5.15300        -0.11500
| 58>    C        4.32100        -0.14800        -0.09200
| 59>    C        3.02500         0.51400         0.01500
| 60>    C        4.38700         3.58200        -1.11500
| 61>    C        2.86600         1.91600         0.01300
| 62>    N        6.41300         4.29600        -0.09500
| 63>    H       -2.83500         7.34400         1.08600
| 64>    H        2.27400         4.76600         0.08100
| 65>    H       -4.50300         3.20800        -0.96800
| 66>    H       -5.85700         5.29500        -0.88400
| 67>    H       -5.05900         8.12900        -0.84900
| 68>    H       -6.26600         7.31200         0.18900
| 69>    H       -4.92500         8.22900         0.93200
| 70>    H       -0.33200         5.28200         0.06900
| 71>    H       -1.35600         5.34400         1.07900
| 72>    H        0.18200         1.07200         0.00500
| 73>    H       -0.18300        -1.08000        -0.02100
| 74>    H       -5.86400        -4.96200         1.89500
| 75>    H       -4.79400         2.27200         0.13900
| 76>    H       -4.80000        -2.16000        -1.99400
| 77>    H       -6.84100        -3.58200        -1.89300
| 78>    H       -8.42800        -4.53600         0.54600
| 79>    H       -7.95600        -5.33700        -0.98100
| 80>    H       -7.45600        -6.03700         0.58400
| 81>    H       -5.28700        -0.34400         0.10000
| 82>    H       -3.78000        -3.60100         1.94700
| 83>    H        3.58700        -6.86800        -1.84300
| 84>    H       -2.27600        -4.77400        -0.05000
| 85>    H        3.71400        -3.72400         1.92600
| 86>    H        5.09200        -5.79500         1.87100
| 87>    H        6.20500        -7.32900        -0.43900
| 88>    H        5.39300        -7.91700         1.04200
| 89>    H        4.75900        -8.37300        -0.56400
| 90>    H        0.32900        -5.29000        -0.00800
| 91>    H        2.14600        -4.84200        -1.94000
| 92>    H        5.80800         4.98600        -1.95600
| 93>    H        4.78800        -2.28100        -0.18500
| 94>    H        4.86000         2.11400         1.91200
| 95>    H        6.90100         3.53100         1.77200
| 96>    H        7.38300         6.10900         0.35600
| 97>    H        8.41400         4.65200         0.43500
| 98>    H        7.92100         5.31000        -1.15000
| 99>    H        5.28300         0.33600        -0.17900
|100>    H        3.72000         3.63200        -1.96700
|101> *
|102>
|103>                          ****END OF INPUT****

CARTESIAN COORDINATES (ANGSTROEM)
---------------------------------
  C     -3.146000    6.407000    0.642000
  C      1.474000    4.041000    0.057000
  C     -2.802000    4.093000    0.049000
  C     -4.093000    4.095000   -0.501000
  C     -4.860000    5.242000   -0.465000
  C     -5.219000    7.599000    0.093000
  C      0.132000    4.307000    0.061000
  C     -0.569000    3.056000    0.047000
  C      1.649000    2.618000    0.023000
  C     -2.339000    5.286000    0.625000
  N     -4.386000    6.375000    0.104000
  N      0.388000    2.067000    0.025000
  N     -2.010000    0.395000   -0.075000
  N     -0.388000   -2.074000   -0.027000
  N      2.010000   -0.401000    0.065000
  C     -1.960000    2.861000    0.024000
  C     -2.623000    1.615000   -0.018000
  C     -5.573000   -4.329000    1.066000
  C     -4.073000    1.471000    0.056000
  C     -4.106000   -2.756000   -0.026000
  C     -4.995000   -2.757000   -1.111000
  C     -6.132000   -3.542000   -1.076000
  C     -7.651000   -5.113000    0.040000
  C     -4.324000    0.141000    0.037000
  C     -3.025000   -0.520000   -0.048000
  C     -4.422000   -3.566000    1.075000
  N     -6.407000   -4.313000    0.001000
  C     -2.867000   -1.922000   -0.040000
  C     -1.650000   -2.624000   -0.027000
  C      3.568000   -6.142000   -1.040000
  C     -1.476000   -4.049000   -0.034000
  C      2.803000   -4.099000   -0.008000
  C      3.657000   -4.384000    1.069000
  C      4.427000   -5.530000    1.059000
  C      5.245000   -7.588000    0.014000
  C     -0.134000   -4.315000   -0.022000
  C      0.568000   -3.064000   -0.027000
  C      2.775000   -5.012000   -1.074000
  N      4.376000   -6.391000    0.017000
  C      1.959000   -2.869000   -0.009000
  C      2.621000   -1.622000    0.009000
  C      5.543000    4.339000   -1.130000
  C      4.070000   -1.479000   -0.094000
  C      4.104000    2.751000   -0.021000
  C      5.027000    2.729000    1.036000
  C      6.166000    3.509000    0.978000
  C      7.619000    5.153000   -0.115000
  C      4.321000   -0.148000   -0.092000
  C      3.025000    0.514000    0.015000
  C      4.387000    3.582000   -1.115000
  C      2.866000    1.916000    0.013000
  N      6.413000    4.296000   -0.095000
  H     -2.835000    7.344000    1.086000
  H      2.274000    4.766000    0.081000
  H     -4.503000    3.208000   -0.968000
  H     -5.857000    5.295000   -0.884000
  H     -5.059000    8.129000   -0.849000
  H     -6.266000    7.312000    0.189000
  H     -4.925000    8.229000    0.932000
  H     -0.332000    5.282000    0.069000
  H     -1.356000    5.344000    1.079000
  H      0.182000    1.072000    0.005000
  H     -0.183000   -1.080000   -0.021000
  H     -5.864000   -4.962000    1.895000
  H     -4.794000    2.272000    0.139000
  H     -4.800000   -2.160000   -1.994000
  H     -6.841000   -3.582000   -1.893000
  H     -8.428000   -4.536000    0.546000
  H     -7.956000   -5.337000   -0.981000
  H     -7.456000   -6.037000    0.584000
  H     -5.287000   -0.344000    0.100000
  H     -3.780000   -3.601000    1.947000
  H      3.587000   -6.868000   -1.843000
  H     -2.276000   -4.774000   -0.050000
  H      3.714000   -3.724000    1.926000
  H      5.092000   -5.795000    1.871000
  H      6.205000   -7.329000   -0.439000
  H      5.393000   -7.917000    1.042000
  H      4.759000   -8.373000   -0.564000
  H      0.329000   -5.290000   -0.008000
  H      2.146000   -4.842000   -1.940000
  H      5.808000    4.986000   -1.956000
  H      4.788000   -2.281000   -0.185000
  H      4.860000    2.114000    1.912000
  H      6.901000    3.531000    1.772000
  H      7.383000    6.109000    0.356000
  H      8.414000    4.652000    0.435000
  H      7.921000    5.310000   -1.150000
  H      5.283000    0.336000   -0.179000
  H      3.720000    3.632000   -1.967000

 Total Charge           Charge          ....    0
 Multiplicity           Mult            ....    1
 Number of Electrons    NEL             ....  358
 Basis Dimension        Dim             ....  918

ORBITAL ENERGIES
----------------

  NO   OCC          E(Eh)            E(eV)
   0   2.0000     -15.675112      -426.5415
   1   2.0000     -15.636716      -425.4967
   2   2.0000     -15.629230      -425.2930
   3   2.0000     -15.588950      -424.1969
   4   2.0000     -15.525420      -422.4682
   5   2.0000     -15.515685      -422.2033
   6   2.0000     -15.452360      -420.4801
   7   2.0000     -15.442327      -420.2071
   8   2.0000     -11.325926      -308.1941
   9   2.0000     -11.325044      -308.1701
  10   2.0000     -11.324012      -308.1420
  11   2.0000     -11.301050      -307.5172
  12   2.0000     -11.296696      -307.3987
  13   2.0000     -11.295048      -307.3539
  14   2.0000     -11.289330      -307.1983
  15   2.0000     -11.288716      -307.1816
  16   2.0000     -11.284541      -307.0680
  17   2.0000     -11.277686      -306.8814
  18   2.0000     -11.271949      -306.7253
  19   2.0000     -11.260131      -306.4037
  20   2.0000     -11.259176      -306.3778
  21   2.0000     -11.255086      -306.2665
  22   2.0000     -11.251903      -306.1798
  23   2.0000     -11.240411      -305.8671
  24   2.0000     -11.234058      -305.6943
  25   2.0000     -11.233288      -305.6733
  26   2.0000     -11.232701      -305.6573
  27   2.0000     -11.227795      -305.5238
  28   2.0000     -11.227473      -305.5151
  29   2.0000     -11.211140      -305.0706
  30   2.0000     -11.209652      -305.0301
  31   2.0000     -11.197970      -304.7123
  32   2.0000     -11.189587      -304.4842
  33   2.0000     -11.189457      -304.4806
  34   2.0000     -11.189376      -304.4784
  35   2.0000     -11.188821      -304.4633
  36   2.0000     -11.188569      -304.4564
  37   2.0000     -11.185583      -304.3752
  38   2.0000     -11.184447      -304.3443
  39   2.0000     -11.174306      -304.0683
  40   2.0000     -11.173907      -304.0575
  41   2.0000     -11.168918      -303.9217
  42   2.0000     -11.168902      -303.9213
  43   2.0000     -11.161283      -303.7139
  44   2.0000     -11.159392      -303.6625
  45   2.0000     -11.159009      -303.6521
  46   2.0000     -11.157264      -303.6046
  47   2.0000     -11.153818      -303.5108
  48   2.0000     -11.146849      -303.3212
  49   2.0000     -11.138501      -303.0940
  50   2.0000     -11.132809      -302.9391
  51   2.0000     -11.123226      -302.6784
  52   2.0000      -1.356403       -36.9096
  53   2.0000      -1.323611       -36.0173
  54   2.0000      -1.317359       -35.8472
  55   2.0000      -1.282987       -34.9118
  56   2.0000      -1.226269       -33.3685
  57   2.0000      -1.209993       -32.9256
  58   2.0000      -1.171341       -31.8738
  59   2.0000      -1.152646       -31.3651
  60   2.0000      -1.140309       -31.0294
  61   2.0000      -1.112221       -30.2651
  62   2.0000      -1.107112       -30.1260
  63   2.0000      -1.079391       -29.3717
  64   2.0000      -1.078395       -29.3446
  65   2.0000      -1.047721       -28.5099
  66   2.0000      -1.042118       -28.3575
  67   2.0000      -1.038996       -28.2725
  68   2.0000      -1.015158       -27.6239
  69   2.0000      -1.012359       -27.5477
  70   2.0000      -1.009216       -27.4622
  71   2.0000      -0.993587       -27.0369
  72   2.0000      -0.986394       -26.8411
  73   2.0000      -0.980559       -26.6824
  74   2.0000      -0.971793       -26.4438
  75   2.0000      -0.960504       -26.1366
  76   2.0000      -0.953106       -25.9353
  77   2.0000      -0.946056       -25.7435
  78   2.0000      -0.935157       -25.4469
  79   2.0000      -0.918736       -25.0001
  80   2.0000      -0.907221       -24.6867
  81   2.0000      -0.894226       -24.3331
  82   2.0000      -0.875427       -23.8216
  83   2.0000      -0.872962       -23.7545
  84   2.0000      -0.868108       -23.6224
  85   2.0000      -0.856549       -23.3079
  86   2.0000      -0.839199       -22.8358
  87   2.0000      -0.836587       -22.7647
  88   2.0000      -0.823975       -22.4215
  89   2.0000      -0.797712       -21.7068
  90   2.0000      -0.791013       -21.5246
  91   2.0000      -0.751122       -20.4391
  92   2.0000      -0.742618       -20.2077
  93   2.0000      -0.733499       -19.9595
  94   2.0000      -0.724634       -19.7183
  95   2.0000      -0.721488       -19.6327
  96   2.0000      -0.716029       -19.4841
  97   2.0000      -0.711466       -19.3600
  98   2.0000      -0.706668       -19.2294
  99   2.0000      -0.697191       -18.9715
 100   2.0000      -0.696216       -18.9450
 101   2.0000      -0.684420       -18.6240
 102   2.0000      -0.681216       -18.5368
 103   2.0000      -0.679553       -18.4916
 104   2.0000      -0.677602       -18.4385
 105   2.0000      -0.672153       -18.2902
 106   2.0000      -0.669485       -18.2176
 107   2.0000      -0.661227       -17.9929
 108   2.0000      -0.655119       -17.8267
 109   2.0000      -0.654393       -17.8069
 110   2.0000      -0.649499       -17.6738
 111   2.0000      -0.643277       -17.5044
 112   2.0000      -0.642713       -17.4891
 113   2.0000      -0.639594       -17.4042
 114   2.0000      -0.636887       -17.3306
 115   2.0000      -0.626638       -17.0517
 116   2.0000      -0.623039       -16.9538
 117   2.0000      -0.618234       -16.8230
 118   2.0000      -0.614549       -16.7227
 119   2.0000      -0.613228       -16.6868
 120   2.0000      -0.609510       -16.5856
 121   2.0000      -0.608343       -16.5539
 122   2.0000      -0.599353       -16.3092
 123   2.0000      -0.586125       -15.9493
 124   2.0000      -0.582998       -15.8642
 125   2.0000      -0.580518       -15.7967
 126   2.0000      -0.578676       -15.7466
 127   2.0000      -0.575938       -15.6721
 128   2.0000      -0.567801       -15.4507
 129   2.0000      -0.558990       -15.2109
 130   2.0000      -0.550461       -14.9788
 131   2.0000      -0.547685       -14.9033
 132   2.0000      -0.543568       -14.7912
 133   2.0000      -0.541475       -14.7343
 134   2.0000      -0.539502       -14.6806
 135   2.0000      -0.534460       -14.5434
 136   2.0000      -0.527583       -14.3563
 137   2.0000      -0.522071       -14.2063
 138   2.0000      -0.518290       -14.1034
 139   2.0000      -0.513818       -13.9817
 140   2.0000      -0.511933       -13.9304
 141   2.0000      -0.510532       -13.8923
 142   2.0000      -0.510220       -13.8838
 143   2.0000      -0.503654       -13.7051
 144   2.0000      -0.500724       -13.6254
 145   2.0000      -0.496049       -13.4982
 146   2.0000      -0.493616       -13.4320
 147   2.0000      -0.483117       -13.1463
 148   2.0000      -0.478738       -13.0271
 149   2.0000      -0.466766       -12.7014
 150   2.0000      -0.465993       -12.6803
 151   2.0000      -0.457277       -12.4431
 152   2.0000      -0.450231       -12.2514
 153   2.0000      -0.446068       -12.1381
 154   2.0000      -0.441526       -12.0145
 155   2.0000      -0.429225       -11.6798
 156   2.0000      -0.428432       -11.6582
 157   2.0000      -0.418467       -11.3871
 158   2.0000      -0.406332       -11.0569
 159   2.0000      -0.387157       -10.5351
 160   2.0000      -0.384573       -10.4648
 161   2.0000      -0.378216       -10.2918
 162   2.0000      -0.371314       -10.1040
 163   2.0000      -0.358593        -9.7578
 164   2.0000      -0.354031        -9.6337
 165   2.0000      -0.340239        -9.2584
 166   2.0000      -0.337798        -9.1920
 167   2.0000      -0.326837        -8.8937
 168   2.0000      -0.323242        -8.7959
 169   2.0000      -0.305301        -8.3077
 170   2.0000      -0.299420        -8.1476
 171   2.0000      -0.285465        -7.7679
 172   2.0000      -0.281116        -7.6496
 173   2.0000      -0.262281        -7.1370
 174   2.0000      -0.243052        -6.6138
 175   2.0000      -0.190041        -5.1713
 176   2.0000      -0.180483        -4.9112
 177   2.0000      -0.076806        -2.0900
 178   2.0000      -0.058701        -1.5973
 179   0.0000       0.028301         0.7701
 180   0.0000       0.065887         1.7929
 181   0.0000       0.091169         2.4808
 182   0.0000       0.109152         2.9702
 183   0.0000       0.111176         3.0253

MULLIKEN ATOMIC CHARGES
-----------------------
   0 C :    0.213945
   1 N :   -0.456349
   2 C :   -0.069450
   3 N :   -0.337839
   4 C :   -0.055472
   5 N :   -0.562750
   6 C :   -0.114824
   7 N :   -0.340501
   8 C :    0.205570
   9 N :   -0.562592
  10 C :    0.118887
  11 N :   -0.437939
  12 C :   -0.077389
  13 N :   -0.430478
  14 C :    0.219142
  15 N :   -0.441449
  16 C :    0.230705
  17 C :   -0.126457
  18 C :   -0.158923
  19 C :    0.204803
  20 C :    0.214149
  21 C :   -0.090717
  22 C :   -0.089161
  23 C :   -0.040602
  24 C :    0.195676
  25 C :    0.114244
  26 C :   -0.079995
  27 C :    0.212296
  28 C :   -0.060584
  29 C :   -0.181333
  30 C :    0.244954
  31 C :    0.229269
  32 C :   -0.061416
  33 C :   -0.062645
  34 C :   -0.049942
  35 C :    0.224839
  36 C :    0.108846
  37 C :   -0.064499
  38 C :    0.232711
  39 C :   -0.058964
  40 C :   -0.181330
  41 C :    0.224209
  42 C :    0.197231
  43 C :   -0.072741
  44 C :   -0.090991
  45 C :   -0.060855
  46 C :    0.209649
  47 C :    0.115659
  48 C :   -0.067990
  49 C :    0.237310
  50 C :   -0.046938
  51 C :   -0.194179
  52 H :    0.039071
  53 H :   -0.017069
  54 H :    0.053407
  55 H :    0.037245
  56 H :    0.048876
  57 H :    0.048643
  58 H :    0.046880
  59 H :    0.001074
  60 H :    0.050484
  61 H :    0.170961
  62 H :    0.175517
  63 H :    0.056274
  64 H :   -0.004206
  65 H :    0.046990
  66 H :    0.056387
  67 H :    0.063210
  68 H :    0.057671
  69 H :    0.057096
  70 H :   -0.028688
  71 H :    0.045943
  72 H :    0.069947
  73 H :   -0.008323
  74 H :    0.059166
  75 H :    0.069226
  76 H :    0.073750
  77 H :    0.067056
  78 H :    0.066234
  79 H :   -0.015840
  80 H :    0.059816
  81 H :    0.053792
  82 H :   -0.025178
  83 H :    0.041106
  84 H :    0.053263
  85 H :    0.060065
  86 H :    0.055098
  87 H :    0.056789
  88 H :   -0.015082
  89 H :    0.046547
Sum of atomic charges:    0.0000000

LOEWDIN ATOMIC CHARGES
----------------------
   0 C :   -0.018938
   1 N :    0.116020
   2 C :   -0.102405
   3 N :    0.183345
   4 C :   -0.010811
   5 N :   -0.130789
   6 C :   -0.038475
   7 N :    0.175515
   8 C :   -0.026039
   9 N :   -0.140462
  10 C :    0.023911
  11 N :    0.143264
  12 C :   -0.114560
  13 N :    0.163809
  14 C :   -0.029024
  15 N :    0.137600
  16 C :   -0.058029
  17 C :   -0.047336
  18 C :   -0.102209
  19 C :   -0.082411
  20 C :    0.005544
  21 C :   -0.120695
  22 C :    0.038869
  23 C :   -0.015017
  24 C :   -0.010543
  25 C :    0.030139
  26 C :   -0.108569
  27 C :   -0.115917
  28 C :   -0.026406
  29 C :   -0.098825
  30 C :   -0.032241
  31 C :    0.022944
  32 C :   -0.093648
  33 C :    0.077723
  34 C :   -0.014875
  35 C :    0.019337
  36 C :    0.034691
  37 C :   -0.094723
  38 C :   -0.049424
  39 C :   -0.018887
  40 C :   -0.108123
  41 C :   -0.093466
  42 C :   -0.010769
  43 C :   -0.100144
  44 C :    0.031433
  45 C :   -0.028162
  46 C :   -0.000093
  47 C :    0.029223
  48 C :   -0.096498
  49 C :   -0.070877
  50 C :   -0.019381
  51 C :   -0.109991
  52 H :    0.023426
  53 H :    0.002853
  54 H :    0.041060
  55 H :    0.023056
  56 H :    0.021491
  57 H :    0.026663
  58 H :    0.026809
  59 H :    0.011366
  60 H :    0.038976
  61 H :    0.059969
  62 H :    0.061866
  63 H :    0.031170
  64 H :    0.008105
  65 H :    0.045806
  66 H :    0.029626
  67 H :    0.028615
  68 H :    0.031829
  69 H :    0.030636
  70 H :   -0.004168
  71 H :    0.044012
  72 H :    0.037107
  73 H :    0.006968
  74 H :    0.050223
  75 H :    0.036607
  76 H :    0.034184
  77 H :    0.035741
  78 H :    0.035379
  79 H :    0.003320
  80 H :    0.050041
  81 H :    0.028836
  82 H :   -0.002876
  83 H :    0.042190
  84 H :    0.029425
  85 H :    0.026984
  86 H :    0.029962
  87 H :    0.031208
  88 H :    0.002103
  89 H :    0.044825

  Mayer bond orders larger than 0.100000
B(  0-C ,  1-N ) :   1.0958 B(  0-C , 17-C ) :   1.7077 B(  0-C , 52-H ) :   0.9657
B(  1-N ,  8-C ) :   1.0831 B(  1-N , 10-C ) :   0.9778 B(  2-C , 12-C ) :   1.5039
B(  2-C , 16-C ) :   1.3582 B(  2-C , 53-H ) :   0.9755 B(  3-N , 14-C ) :   1.2182
B(  3-N , 16-C ) :   1.1902 B(  3-N , 61-H ) :   0.8994 B(  4-C ,  6-C ) :   1.2121
B(  4-C , 17-C ) :   1.2108 B(  4-C , 18-C ) :   1.4417 B(  5-N , 19-C ) :   1.4535
B(  5-N , 27-C ) :   1.3784 B(  6-C ,  8-C ) :   1.7125 B(  6-C , 54-H ) :   0.9515
B(  7-N , 30-C ) :   1.1941 B(  7-N , 38-C ) :   1.1920 B(  7-N , 62-H ) :   0.8967
B(  8-C , 55-H ) :   0.9673 B(  9-N , 41-C ) :   1.3929 B(  9-N , 49-C ) :   1.4276
B( 10-C , 56-H ) :   0.9770 B( 10-C , 57-H ) :   0.9832 B( 10-C , 58-H ) :   0.9835
B( 11-N , 20-C ) :   1.1319 B( 11-N , 24-C ) :   1.1100 B( 11-N , 25-C ) :   0.9591
B( 12-C , 14-C ) :   1.3569 B( 12-C , 59-H ) :   0.9720 B( 13-N , 31-C ) :   1.1588
B( 13-N , 35-C ) :   1.1542 B( 13-N , 36-C ) :   0.9432 B( 14-C , 18-C ) :   1.1278
B( 15-N , 42-C ) :   1.1069 B( 15-N , 46-C ) :   1.1215 B( 15-N , 47-C ) :   0.9622
B( 16-C , 51-C ) :   1.1709 B( 17-C , 60-H ) :   0.9514 B( 18-C , 19-C ) :   1.1291
B( 19-C , 21-C ) :   1.2461 B( 20-C , 28-C ) :   1.6263 B( 20-C , 63-H ) :   0.9702
B( 21-C , 26-C ) :   1.6066 B( 21-C , 64-H ) :   0.9701 B( 22-C , 23-C ) :   1.2907
B( 22-C , 28-C ) :   1.2667 B( 22-C , 29-C ) :   1.2214 B( 23-C , 24-C ) :   1.6178
B( 23-C , 65-H ) :   0.9704 B( 24-C , 66-H ) :   0.9695 B( 25-C , 67-H ) :   0.9760
B( 25-C , 68-H ) :   0.9828 B( 25-C , 69-H ) :   0.9823 B( 26-C , 27-C ) :   1.2415
B( 26-C , 70-H ) :   0.9698 B( 27-C , 29-C ) :   1.2124 B( 28-C , 71-H ) :   0.9719
B( 29-C , 30-C ) :   1.2436 B( 30-C , 32-C ) :   1.2810 B( 31-C , 39-C ) :   1.5924
B( 31-C , 72-H ) :   0.9682 B( 32-C , 37-C ) :   1.5784 B( 32-C , 73-H ) :   0.9785
B( 33-C , 34-C ) :   1.3052 B( 33-C , 39-C ) :   1.2994 B( 33-C , 40-C ) :   1.1818
B( 34-C , 35-C ) :   1.5890 B( 34-C , 74-H ) :   0.9696 B( 35-C , 75-H ) :   0.9683
B( 36-C , 76-H ) :   0.9767 B( 36-C , 77-H ) :   0.9816 B( 36-C , 78-H ) :   0.9824
B( 37-C , 38-C ) :   1.2855 B( 37-C , 79-H ) :   0.9767 B( 38-C , 40-C ) :   1.2328
B( 39-C , 80-H ) :   0.9707 B( 40-C , 41-C ) :   1.2475 B( 41-C , 43-C ) :   1.1891
B( 42-C , 50-C ) :   1.6356 B( 42-C , 81-H ) :   0.9697 B( 43-C , 48-C ) :   1.6630
B( 43-C , 82-H ) :   0.9722 B( 44-C , 45-C ) :   1.2623 B( 44-C , 50-C ) :   1.2697
B( 44-C , 51-C ) :   1.2648 B( 45-C , 46-C ) :   1.6367 B( 45-C , 83-H ) :   0.9718
B( 46-C , 84-H ) :   0.9701 B( 47-C , 85-H ) :   0.9762 B( 47-C , 86-H ) :   0.9829
B( 47-C , 87-H ) :   0.9825 B( 48-C , 49-C ) :   1.1926 B( 48-C , 88-H ) :   0.9748
B( 49-C , 51-C ) :   1.2382 B( 50-C , 89-H ) :   0.9709

MP2 TOTAL ENERGY:    -2130.884206006 Eh
FINAL SINGLE POINT ENERGY     -2130.884206005866

DIPOLE MOMENT
-------------
                                X             Y             Z
Electronic contribution:      2.32157      -4.13562      -0.06688
Nuclear contribution   :     -0.01076       0.18049       0.07628
                        -----------------------------------------
Total Dipole Moment    :      2.31081      -3.95513       0.00940
                        -----------------------------------------
Magnitude (a.u.)       :      4.58072
Magnitude (Debye)      :     11.64327

Rotational constants in cm-1:     0.001502     0.001476     0.000761
Rotational constants in MHz :    45.040651    44.261492    22.799675

                             ****ORCA TERMINATED NORMALLY****
TOTAL RUN TIME: 0 days 1 hours 5 minutes 13 seconds 560 msec
