                         Program Version 5.0.4 -  RELEASE  -
|  1> ! PAL2
|  2> ! mp2 cc-pvdz TightSCF  NoKeepInts
|  3>
|  4> %scf
|  5>   MaxCore 2000
|  6> end
|  7> %mp2
|  8>   MaxCore 2000
|  9> end
| 10> * xyz 0 1
| 11>    C       -4.95400         5.18400         0.00200
| 12>    C        1.47400         4.04100         0.05700
| 13>    C       -2.80200         4.09300         0.04900
| 14>    C       -2.21600         5.36600         0.12900
| 15>    C       -3.00900         6.49500         0.14600
| 16>    C       -5.18200         7.62300         0.13800
| 17>    C        0.13200         4.30700         0.06100
| 18>    C       -0.56900         3.05600         0.04700
| 19>    C        1.64900         2.61800         0.02300
| 20>    C       -4.20200         4.02500        -0.01200
| 21>    N       -4.35800         6.39500         0.08000
| 22>    N        0.38800         2.06700         0.02500
| 23>    N       -2.01000         0.39500        -0.07500
| 24>    N       -0.38800        -2.07400        -0.02700
| 25>    N        2.01000        -0.40100         0.06500
| 26>    C       -1.96000         2.86100         0.02400
| 27>    C       -2.62300         1.61500        -0.01800
| 28>    C       -5.57300        -4.32900         1.06600
| 29>    C       -4.07300         1.47100         0.05600
| 30>    C       -4.10600        -2.75600        -0.02600
| 31>    C       -4.99500        -2.75700        -1.11100
| 32>    C       -6.13200        -3.54200        -1.07600
| 33>    C       -7.65100        -5.11300         0.04000
| 34>    C       -4.32400         0.14100         0.03700
| 35>    C       -3.02500        -0.52000        -0.04800
| 36>    C       -4.42200        -3.56600         1.07500
| 37>    N       -6.40700        -4.31300         0.00100
| 38>    C       -2.86700        -1.92200        -0.04000
| 39>    C       -1.65000        -2.62400        -0.02700
| 40>    C        3.56800        -6.14200        -1.04000
| 41>    C       -1.47600        -4.04900        -0.03400
| 42>    C        2.80300        -4.09900        -0.00800
| 43>    C        3.65700        -4.38400         1.06900
| 44>    C        4.42700        -5.53000         1.05900
| 45>    C        5.24500        -7.58800         0.01400
| 46>    C       -0.13400        -4.31500        -0.02200
| 47>    C        0.56800        -3.06400        -0.02700
| 48>    C        2.77500        -5.01200        -1.07400
| 49>    N        4.37600        -6.39100         0.01700
| 50>    C        1.95900        -2.86900        -0.00900
| 51>    C        2.62100        -1.62200         0.00900
| 52>    C        5.54300         4.33900        -1.13000
| 53>    C        4.07000        -1.47900        -0.09400
| 54>    C        4.10400         2.75100        -0.02100
| 55>    C        5.02700         2.72900         1.03600
| 56>    C        6.16600         3.50900         0.97800
| 57>    C        7.61900         5.15300        -0.11500
| 58>    C        4.32100        -0.14800        -0.09200
| 59>    C        3.02500         0.51400         0.01500
| 60>    C        4.38700         3.58200        -1.11500
| 61>    C        2.86600         1.91600         0.01300
| 62>    N        6.41300         4.29600        -0.09500
| 63>    H       -6.03600         5.18000        -0.05500
| 64>    H        2.27400         4.76600         0.08100
| 65>    H       -1.14000         5.48300         0.18800
| 66>    H       -2.60400         7.49600         0.21600
| 67>    H       -5.35700         7.88400         1.18400
| 68>    H       -4.64800         8.42900        -0.36500
| 69>    H       -6.13000         7.43300        -0.36400
| 70>    H       -0.33200         5.28200         0.06900
| 71>    H       -4.71400         3.07300        -0.08900
| 72>    H        0.18200         1.07200         0.00500
| 73>    H       -0.18300        -1.08000        -0.02100
| 74>    H       -5.86400        -4.96200         1.89500
| 75>    H       -4.79400         2.27200         0.13900
| 76>    H       -4.80000        -2.16000        -1.99400
| 77>    H       -6.84100        -3.58200        -1.89300
| 78>    H       -8.42800        -4.53600         0.54600
| 79>    H       -7.95600        -5.33700        -0.98100
| 80>    H       -7.45600        -6.03700         0.58400
| 81>    H       -5.28700        -0.34400         0.10000
| 82>    H       -3.78000        -3.60100         1.94700
| 83>    H        3.58700        -6.86800        -1.84300
| 84>    H       -2.27600        -4.77400        -0.05000
| 85>    H        3.71400        -3.72400         1.92600
| 86>    H        5.09200        -5.79500         1.87100
| 87>    H        6.20500        -7.32900        -0.43900
| 88>    H        5.39300        -7.91700         1.04200
| 89>    H        4.75900        -8.37300        -0.56400
| 90>    H        0.32900        -5.29000        -0.00800
| 91>    H        2.14600        -4.84200        -1.94000
| 92>    H        5.80800         4.98600        -1.95600
| 93>    H        4.78800        -2.28100        -0.18500
| 94>    H        4.86000         2.11400         1.91200
| 95>    H        6.90100         3.53100         1.77200
| 96>    H        7.38300         6.10900         0.35600
| 97>    H        8.41400         4.65200         0.43500
| 98>    H        7.92100         5.31000        -1.15000
| 99>    H        5.28300         0.33600        -0.17900
|100>    H        3.72000         3.63200        -1.96700
|101> *
|102>
|103>                          ****END OF INPUT****

CARTESIAN COORDINATES (ANGSTROEM)
---------------------------------
  C     -4.954000    5.184000    0.002000
  C      1.474000    4.041000    0.057000
  C     -2.802000    4.093000    0.049000
  C     -2.216000    5.366000    0.129000
  C     -3.009000    6.495000    0.146000
  C     -5.182000    7.623000    0.138000
  C      0.132000    4.307000    0.061000
  C     -0.569000    3.056000    0.047000
  C      1.649000    2.618000    0.023000
  C     -4.202000    4.025000   -0.012000
  N     -4.358000    6.395000    0.080000
  N      0.388000    2.067000    0.025000
  N     -2.010000    0.395000   -0.075000
  N     -0.388000   -2.074000   -0.027000
  N      2.010000   -0.401000    0.065000
  C     -1.960000    2.861000    0.024000
  C     -2.623000    1.615000   -0.018000
  C     -5.573000   -4.329000    1.066000
  C     -4.073000    1.471000    0.056000
  C     -4.106000   -2.756000   -0.026000
  C     -4.995000   -2.757000   -1.111000
  C     -6.132000   -3.542000   -1.076000
  C     -7.651000   -5.113000    0.040000
  C     -4.324000    0.141000    0.037000
  C     -3.025000   -0.520000   -0.048000
  C     -4.422000   -3.566000    1.075000
  N     -6.407000   -4.313000    0.001000
  C     -2.867000   -1.922000   -0.040000
  C     -1.650000   -2.624000   -0.027000
  C      3.568000   -6.142000   -1.040000
  C     -1.476000   -4.049000   -0.034000
  C      2.803000   -4.099000   -0.008000
  C      3.657000   -4.384000    1.069000
  C      4.427000   -5.530000    1.059000
  C      5.245000   -7.588000    0.014000
  C     -0.134000   -4.315000   -0.022000
  C      0.568000   -3.064000   -0.027000
  C      2.775000   -5.012000   -1.074000
  N      4.376000   -6.391000    0.017000
  C      1.959000   -2.869000   -0.009000
  C      2.621000   -1.622000    0.009000
  C      5.543000    4.339000   -1.130000
  C      4.070000   -1.479000   -0.094000
  C      4.104000    2.751000   -0.021000
  C      5.027000    2.729000    1.036000
  C      6.166000    3.509000    0.978000
  C      7.619000    5.153000   -0.115000
  C      4.321000   -0.148000   -0.092000
  C      3.025000    0.514000    0.015000
  C      4.387000    3.582000   -1.115000
  C      2.866000    1.916000    0.013000
  N      6.413000    4.296000   -0.095000
  H     -6.036000    5.180000   -0.055000
  H      2.274000    4.766000    0.081000
  H     -1.140000    5.483000    0.188000
  H     -2.604000    7.496000    0.216000
  H     -5.357000    7.884000    1.184000
  H     -4.648000    8.429000   -0.365000
  H     -6.130000    7.433000   -0.364000
  H     -0.332000    5.282000    0.069000
  H     -4.714000    3.073000   -0.089000
  H      0.182000    1.072000    0.005000
  H     -0.183000   -1.080000   -0.021000
  H     -5.864000   -4.962000    1.895000
  H     -4.794000    2.272000    0.139000
  H     -4.800000   -2.160000   -1.994000
  H     -6.841000   -3.582000   -1.893000
  H     -8.428000   -4.536000    0.546000
  H     -7.956000   -5.337000   -0.981000
  H     -7.456000   -6.037000    0.584000
  H     -5.287000   -0.344000    0.100000
  H     -3.780000   -3.601000    1.947000
  H      3.587000   -6.868000   -1.843000
  H     -2.276000   -4.774000   -0.050000
  H      3.714000   -3.724000    1.926000
  H      5.092000   -5.795000    1.871000
  H      6.205000   -7.329000   -0.439000
  H      5.393000   -7.917000    1.042000
  H      4.759000   -8.373000   -0.564000
  H      0.329000   -5.290000   -0.008000
  H      2.146000   -4.842000   -1.940000
  H      5.808000    4.986000   -1.956000
  H      4.788000   -2.281000   -0.185000
  H      4.860000    2.114000    1.912000
  H      6.901000    3.531000    1.772000
  H      7.383000    6.109000    0.356000
  H      8.414000    4.652000    0.435000
  H      7.921000    5.310000   -1.150000
  H      5.283000    0.336000   -0.179000
  H      3.720000    3.632000   -1.967000

 Total Charge           Charge          ....    0
 Multiplicity           Mult            ....    1
 Number of Electrons    NEL             ....  358
 Basis Dimension        Dim             ....  918

ORBITAL ENERGIES
----------------

  NO   OCC          E(Eh)            E(eV)
   0   2.0000     -15.680097      -426.6771
   1   2.0000     -15.634319      -425.4315
   2   2.0000     -15.631529      -425.3555
   3   2.0000     -15.587732      -424.1637
   4   2.0000     -15.525118      -422.4599
   5   2.0000     -15.515424      -422.1962
   6   2.0000     -15.453685      -420.5161
   7   2.0000     -15.439512      -420.1305
   8   2.0000     -11.329689      -308.2965
   9   2.0000     -11.328575      -308.2662
  10   2.0000     -11.328108      -308.2535
  11   2.0000     -11.299537      -307.4760
  12   2.0000     -11.298205      -307.4398
  13   2.0000     -11.293306      -307.3065
  14   2.0000     -11.291013      -307.2441
  15   2.0000     -11.286834      -307.1304
  16   2.0000     -11.286225      -307.1138
  17   2.0000     -11.282326      -307.0077
  18   2.0000     -11.269246      -306.6518
  19   2.0000     -11.263529      -306.4962
  20   2.0000     -11.262533      -306.4691
  21   2.0000     -11.249837      -306.1236
  22   2.0000     -11.248454      -306.0860
  23   2.0000     -11.238077      -305.8036
  24   2.0000     -11.236331      -305.7561
  25   2.0000     -11.231367      -305.6210
  26   2.0000     -11.230698      -305.6028
  27   2.0000     -11.229534      -305.5712
  28   2.0000     -11.229321      -305.5654
  29   2.0000     -11.211234      -305.0732
  30   2.0000     -11.209721      -305.0320
  31   2.0000     -11.193611      -304.5936
  32   2.0000     -11.192323      -304.5586
  33   2.0000     -11.191373      -304.5327
  34   2.0000     -11.188281      -304.4486
  35   2.0000     -11.187924      -304.4389
  36   2.0000     -11.186782      -304.4078
  37   2.0000     -11.174825      -304.0824
  38   2.0000     -11.172498      -304.0191
  39   2.0000     -11.170589      -303.9672
  40   2.0000     -11.169931      -303.9493
  41   2.0000     -11.168636      -303.9140
  42   2.0000     -11.166797      -303.8640
  43   2.0000     -11.161742      -303.7264
  44   2.0000     -11.161057      -303.7078
  45   2.0000     -11.156609      -303.5868
  46   2.0000     -11.156484      -303.5834
  47   2.0000     -11.150723      -303.4266
  48   2.0000     -11.146931      -303.3234
  49   2.0000     -11.135735      -303.0187
  50   2.0000     -11.129749      -302.8559
  51   2.0000     -11.117662      -302.5270
  52   2.0000      -1.360629       -37.0246
  53   2.0000      -1.321512       -35.9602
  54   2.0000      -1.319367       -35.9018
  55   2.0000      -1.279537       -34.8180
  56   2.0000      -1.226274       -33.3686
  57   2.0000      -1.210366       -32.9357
  58   2.0000      -1.173346       -31.9284
  59   2.0000      -1.150824       -31.3155
  60   2.0000      -1.143818       -31.1249
  61   2.0000      -1.110481       -30.2177
  62   2.0000      -1.108774       -30.1713
  63   2.0000      -1.082289       -29.4506
  64   2.0000      -1.077204       -29.3122
  65   2.0000      -1.045680       -28.4544
  66   2.0000      -1.044032       -28.4095
  67   2.0000      -1.041220       -28.3330
  68   2.0000      -1.015035       -27.6205
  69   2.0000      -1.014722       -27.6120
  70   2.0000      -1.009093       -27.4588
  71   2.0000      -0.993677       -27.0393
  72   2.0000      -0.985500       -26.8168
  73   2.0000      -0.981989       -26.7213
  74   2.0000      -0.974293       -26.5119
  75   2.0000      -0.962122       -26.1807
  76   2.0000      -0.954724       -25.9794
  77   2.0000      -0.946608       -25.7585
  78   2.0000      -0.939052       -25.5529
  79   2.0000      -0.916598       -24.9419
  80   2.0000      -0.910823       -24.7848
  81   2.0000      -0.898619       -24.4527
  82   2.0000      -0.877554       -23.8795
  83   2.0000      -0.872559       -23.7435
  84   2.0000      -0.870747       -23.6942
  85   2.0000      -0.861627       -23.4461
  86   2.0000      -0.844599       -22.9827
  87   2.0000      -0.839122       -22.8337
  88   2.0000      -0.829438       -22.5702
  89   2.0000      -0.796338       -21.6695
  90   2.0000      -0.789193       -21.4750
  91   2.0000      -0.775503       -21.1025
  92   2.0000      -0.753229       -20.4964
  93   2.0000      -0.734368       -19.9832
  94   2.0000      -0.728891       -19.8341
  95   2.0000      -0.726447       -19.7676
  96   2.0000      -0.720483       -19.6053
  97   2.0000      -0.717962       -19.5367
  98   2.0000      -0.713927       -19.4269
  99   2.0000      -0.699638       -19.0381
 100   2.0000      -0.698481       -19.0066
 101   2.0000      -0.694464       -18.8973
 102   2.0000      -0.685543       -18.6546
 103   2.0000      -0.684478       -18.6256
 104   2.0000      -0.679080       -18.4787
 105   2.0000      -0.674459       -18.3530
 106   2.0000      -0.672846       -18.3091
 107   2.0000      -0.660782       -17.9808
 108   2.0000      -0.658243       -17.9117
 109   2.0000      -0.653082       -17.7713
 110   2.0000      -0.651906       -17.7393
 111   2.0000      -0.646400       -17.5894
 112   2.0000      -0.645804       -17.5732
 113   2.0000      -0.638209       -17.3666
 114   2.0000      -0.635311       -17.2877
 115   2.0000      -0.628480       -17.1018
 116   2.0000      -0.623084       -16.9550
 117   2.0000      -0.620285       -16.8788
 118   2.0000      -0.613114       -16.6837
 119   2.0000      -0.612502       -16.6670
 120   2.0000      -0.611915       -16.6510
 121   2.0000      -0.611195       -16.6315
 122   2.0000      -0.601287       -16.3618
 123   2.0000      -0.589481       -16.0406
 124   2.0000      -0.581877       -15.8337
 125   2.0000      -0.580754       -15.8031
 126   2.0000      -0.580355       -15.7923
 127   2.0000      -0.571217       -15.5436
 128   2.0000      -0.566711       -15.4210
 129   2.0000      -0.559886       -15.2353
 130   2.0000      -0.555740       -15.1225
 131   2.0000      -0.547936       -14.9101
 132   2.0000      -0.542849       -14.7717
 133   2.0000      -0.540459       -14.7066
 134   2.0000      -0.538910       -14.6645
 135   2.0000      -0.535922       -14.5832
 136   2.0000      -0.531913       -14.4741
 137   2.0000      -0.518057       -14.0970
 138   2.0000      -0.517036       -14.0693
 139   2.0000      -0.514031       -13.9875
 140   2.0000      -0.511795       -13.9267
 141   2.0000      -0.510184       -13.8828
 142   2.0000      -0.507728       -13.8160
 143   2.0000      -0.505503       -13.7554
 144   2.0000      -0.501992       -13.6599
 145   2.0000      -0.495538       -13.4843
 146   2.0000      -0.488554       -13.2942
 147   2.0000      -0.481308       -13.0970
 148   2.0000      -0.476231       -12.9589
 149   2.0000      -0.467801       -12.7295
 150   2.0000      -0.466167       -12.6851
 151   2.0000      -0.456161       -12.4128
 152   2.0000      -0.451312       -12.2808
 153   2.0000      -0.445244       -12.1157
 154   2.0000      -0.438066       -11.9204
 155   2.0000      -0.427751       -11.6397
 156   2.0000      -0.409197       -11.1348
 157   2.0000      -0.391063       -10.6414
 158   2.0000      -0.387984       -10.5576
 159   2.0000      -0.383536       -10.4366
 160   2.0000      -0.378409       -10.2970
 161   2.0000      -0.373287       -10.1577
 162   2.0000      -0.360930        -9.8214
 163   2.0000      -0.356874        -9.7110
 164   2.0000      -0.355662        -9.6781
 165   2.0000      -0.341707        -9.2983
 166   2.0000      -0.337624        -9.1872
 167   2.0000      -0.324856        -8.8398
 168   2.0000      -0.321132        -8.7384
 169   2.0000      -0.305527        -8.3138
 170   2.0000      -0.299239        -8.1427
 171   2.0000      -0.285991        -7.7822
 172   2.0000      -0.278152        -7.5689
 173   2.0000      -0.263346        -7.1660
 174   2.0000      -0.242062        -6.5869
 175   2.0000      -0.190015        -5.1706
 176   2.0000      -0.181455        -4.9376
 177   2.0000      -0.080365        -2.1868
 178   2.0000      -0.059764        -1.6263
 179   0.0000       0.028420         0.7733
 180   0.0000       0.065318         1.7774
 181   0.0000       0.090205         2.4546
 182   0.0000       0.106066         2.8862
 183   0.0000       0.116964         3.1827

MULLIKEN ATOMIC CHARGES
-----------------------
   0 C :    0.223832
   1 N :   -0.456066
   2 C :   -0.068460
   3 N :   -0.341129
   4 C :   -0.117841
   5 N :   -0.569129
   6 C :   -0.105221
   7 N :   -0.341103
   8 C :    0.226986
   9 N :   -0.562483
  10 C :    0.119826
  11 N :   -0.438333
  12 C :   -0.051294
  13 N :   -0.429254
  14 C :    0.209055
  15 N :   -0.440992
  16 C :    0.235913
  17 C :   -0.103857
  18 C :   -0.168202
  19 C :    0.206270
  20 C :    0.214039
  21 C :   -0.048977
  22 C :   -0.089985
  23 C :   -0.039544
  24 C :    0.193444
  25 C :    0.114554
  26 C :   -0.088827
  27 C :    0.218218
  28 C :   -0.061818
  29 C :   -0.183469
  30 C :    0.245726
  31 C :    0.230613
  32 C :   -0.061308
  33 C :   -0.059792
  34 C :   -0.051090
  35 C :    0.228744
  36 C :    0.108157
  37 C :   -0.064544
  38 C :    0.231312
  39 C :   -0.057731
  40 C :   -0.181765
  41 C :    0.225907
  42 C :    0.197127
  43 C :   -0.072810
  44 C :   -0.089766
  45 C :   -0.061734
  46 C :    0.211697
  47 C :    0.115388
  48 C :   -0.066480
  49 C :    0.237689
  50 C :   -0.046062
  51 C :   -0.193590
  52 H :    0.033498
  53 H :   -0.018674
  54 H :    0.059420
  55 H :    0.030477
  56 H :    0.049382
  57 H :    0.046988
  58 H :    0.046626
  59 H :   -0.021655
  60 H :    0.052293
  61 H :    0.170949
  62 H :    0.175531
  63 H :    0.055420
  64 H :   -0.037808
  65 H :    0.046908
  66 H :    0.055621
  67 H :    0.062556
  68 H :    0.057248
  69 H :    0.056414
  70 H :   -0.030464
  71 H :    0.044959
  72 H :    0.071575
  73 H :   -0.007939
  74 H :    0.060668
  75 H :    0.071019
  76 H :    0.075204
  77 H :    0.068183
  78 H :    0.067470
  79 H :   -0.016718
  80 H :    0.061562
  81 H :    0.054346
  82 H :   -0.025119
  83 H :    0.041813
  84 H :    0.054141
  85 H :    0.060806
  86 H :    0.055499
  87 H :    0.057241
  88 H :   -0.014396
  89 H :    0.047120
Sum of atomic charges:   -0.0000000

LOEWDIN ATOMIC CHARGES
----------------------
   0 C :   -0.020689
   1 N :    0.122348
   2 C :   -0.100061
   3 N :    0.182395
   4 C :   -0.010725
   5 N :   -0.134776
   6 C :   -0.020159
   7 N :    0.174962
   8 C :   -0.018035
   9 N :   -0.140703
  10 C :    0.022800
  11 N :    0.142095
  12 C :   -0.090860
  13 N :    0.166673
  14 C :   -0.014717
  15 N :    0.138710
  16 C :   -0.060909
  17 C :   -0.019039
  18 C :   -0.115374
  19 C :   -0.072326
  20 C :    0.005136
  21 C :   -0.097622
  22 C :    0.037720
  23 C :   -0.014478
  24 C :   -0.012765
  25 C :    0.029844
  26 C :   -0.107742
  27 C :   -0.117292
  28 C :   -0.027611
  29 C :   -0.099009
  30 C :   -0.030045
  31 C :    0.024803
  32 C :   -0.094005
  33 C :    0.082859
  34 C :   -0.015023
  35 C :    0.023498
  36 C :    0.035330
  37 C :   -0.094159
  38 C :   -0.051994
  39 C :   -0.017548
  40 C :   -0.109071
  41 C :   -0.091393
  42 C :   -0.010776
  43 C :   -0.099476
  44 C :    0.033578
  45 C :   -0.028462
  46 C :    0.002033
  47 C :    0.029486
  48 C :   -0.094706
  49 C :   -0.069432
  50 C :   -0.018538
  51 C :   -0.108461
  52 H :    0.021937
  53 H :    0.002393
  54 H :   -0.017148
  55 H :    0.021496
  56 H :    0.021918
  57 H :    0.025986
  58 H :    0.026670
  59 H :    0.002297
  60 H :   -0.016568
  61 H :    0.060340
  62 H :    0.061924
  63 H :    0.030807
  64 H :   -0.001551
  65 H :    0.045833
  66 H :    0.029226
  67 H :    0.028284
  68 H :    0.031633
  69 H :    0.030321
  70 H :   -0.004931
  71 H :    0.043547
  72 H :    0.037840
  73 H :    0.007175
  74 H :    0.050805
  75 H :    0.037521
  76 H :    0.034950
  77 H :    0.036274
  78 H :    0.035952
  79 H :    0.002906
  80 H :    0.050861
  81 H :    0.029058
  82 H :   -0.002861
  83 H :    0.042441
  84 H :    0.029873
  85 H :    0.027354
  86 H :    0.030160
  87 H :    0.031417
  88 H :    0.002444
  89 H :    0.045122

  Mayer bond orders larger than 0.100000
B(  0-C ,  1-N ) :   1.0960 B(  0-C , 17-C ) :   1.7291 B(  0-C , 52-H ) :   0.9582
B(  1-N ,  8-C ) :   1.0984 B(  1-N , 10-C ) :   0.9772 B(  2-C , 12-C ) :   1.4809
B(  2-C , 16-C ) :   1.3813 B(  2-C , 53-H ) :   0.9705 B(  3-N , 14-C ) :   1.2267
B(  3-N , 16-C ) :   1.1774 B(  3-N , 61-H ) :   0.8973 B(  4-C ,  6-C ) :   1.2276
B(  4-C , 17-C ) :   1.2297 B(  4-C , 18-C ) :   1.4877 B(  5-N , 19-C ) :   1.4622
B(  5-N , 27-C ) :   1.3676 B(  6-C ,  8-C ) :   1.7330 B(  6-C , 54-H ) :   0.8554
B(  7-N , 30-C ) :   1.1947 B(  7-N , 38-C ) :   1.1898 B(  7-N , 62-H ) :   0.8967
B(  8-C , 55-H ) :   0.9598 B(  9-N , 41-C ) :   1.3945 B(  9-N , 49-C ) :   1.4249
B( 10-C , 56-H ) :   0.9777 B( 10-C , 57-H ) :   0.9827 B( 10-C , 58-H ) :   0.9834
B( 11-N , 20-C ) :   1.1316 B( 11-N , 24-C ) :   1.1070 B( 11-N , 25-C ) :   0.9601
B( 12-C , 14-C ) :   1.3652 B( 12-C , 59-H ) :   0.8965 B( 13-N , 31-C ) :   1.1622
B( 13-N , 35-C ) :   1.1609 B( 13-N , 36-C ) :   0.9411 B( 14-C , 18-C ) :   1.1148
B( 15-N , 42-C ) :   1.1073 B( 15-N , 46-C ) :   1.1246 B( 15-N , 47-C ) :   0.9613
B( 16-C , 51-C ) :   1.1673 B( 17-C , 60-H ) :   0.8457 B( 18-C , 19-C ) :   1.1136
B( 19-C , 21-C ) :   1.2544 B( 20-C , 28-C ) :   1.6283 B( 20-C , 63-H ) :   0.9702
B( 21-C , 26-C ) :   1.5782 B( 21-C , 64-H ) :   0.8929 B( 22-C , 23-C ) :   1.2901
B( 22-C , 28-C ) :   1.2640 B( 22-C , 29-C ) :   1.2261 B( 23-C , 24-C ) :   1.6195
B( 23-C , 65-H ) :   0.9703 B( 24-C , 66-H ) :   0.9695 B( 25-C , 67-H ) :   0.9760
B( 25-C , 68-H ) :   0.9828 B( 25-C , 69-H ) :   0.9823 B( 26-C , 27-C ) :   1.2662
B( 26-C , 70-H ) :   0.9653 B( 27-C , 29-C ) :   1.2058 B( 28-C , 71-H ) :   0.9720
B( 29-C , 30-C ) :   1.2479 B( 30-C , 32-C ) :   1.2780 B( 31-C , 39-C ) :   1.5871
B( 31-C , 72-H ) :   0.9681 B( 32-C , 37-C ) :   1.5809 B( 32-C , 73-H ) :   0.9786
B( 33-C , 34-C ) :   1.3075 B( 33-C , 39-C ) :   1.3045 B( 33-C , 40-C ) :   1.1753
B( 34-C , 35-C ) :   1.5847 B( 34-C , 74-H ) :   0.9696 B( 35-C , 75-H ) :   0.9681
B( 36-C , 76-H ) :   0.9768 B( 36-C , 77-H ) :   0.9816 B( 36-C , 78-H ) :   0.9823
B( 37-C , 38-C ) :   1.2840 B( 37-C , 79-H ) :   0.9764 B( 38-C , 40-C ) :   1.2348
B( 39-C , 80-H ) :   0.9705 B( 40-C , 41-C ) :   1.2502 B( 41-C , 43-C ) :   1.1845
B( 42-C , 50-C ) :   1.6333 B( 42-C , 81-H ) :   0.9697 B( 43-C , 48-C ) :   1.6684
B( 43-C , 82-H ) :   0.9721 B( 44-C , 45-C ) :   1.2630 B( 44-C , 50-C ) :   1.2723
B( 44-C , 51-C ) :   1.2613 B( 45-C , 46-C ) :   1.6348 B( 45-C , 83-H ) :   0.9718
B( 46-C , 84-H ) :   0.9700 B( 47-C , 85-H ) :   0.9762 B( 47-C , 86-H ) :   0.9829
B( 47-C , 87-H ) :   0.9824 B( 48-C , 49-C ) :   1.1879 B( 48-C , 88-H ) :   0.9749
B( 49-C , 51-C ) :   1.2462 B( 50-C , 89-H ) :   0.9708 B( 54-H , 59-H ) :   0.1203
B( 60-H , 64-H ) :   0.1296

MP2 TOTAL ENERGY:    -2130.740241198 Eh
FINAL SINGLE POINT ENERGY     -2130.740241198068

DIPOLE MOMENT
-------------
                                X             Y             Z
Electronic contribution:      2.75625      -4.39798      -0.20343
Nuclear contribution   :      0.06166       0.22902       0.20322
                        -----------------------------------------
Total Dipole Moment    :      2.81791      -4.16897      -0.00021
                        -----------------------------------------
Magnitude (a.u.)       :      5.03199
Magnitude (Debye)      :     12.79029

Rotational constants in cm-1:     0.001502     0.001480     0.000760
Rotational constants in MHz :    45.013892    44.359444    22.780483

                             ****ORCA TERMINATED NORMALLY****
TOTAL RUN TIME: 0 days 1 hours 22 minutes 50 seconds 558 msec
