                         Program Version 5.0.4 -  RELEASE  -
|  1> ! PAL2
|  2> ! mp2 cc-pvdz TightSCF  NoKeepInts
|  3>
|  4> %scf
|  5>   MaxCore 2000
|  6> end
|  7> %mp2
|  8>   MaxCore 2000
|  9> end
| 10> * xyz 0 1
| 11>    C       -3.03400         6.49500         0.08500
| 12>    C        1.47400         4.04100         0.05700
| 13>    C       -2.80200         4.09300         0.04900
| 14>    C       -4.20300         4.00900         0.07700
| 15>    C       -4.96600         5.15900         0.10500
| 16>    C       -5.22800         7.59200         0.10400
| 17>    C        0.13200         4.30700         0.06100
| 18>    C       -0.56900         3.05600         0.04700
| 19>    C        1.64900         2.61800         0.02300
| 20>    C       -2.22800         5.37400         0.05100
| 21>    N       -4.38100         6.37900         0.11200
| 22>    N        0.38800         2.06700         0.02500
| 23>    N       -2.01000         0.39500        -0.07500
| 24>    N       -0.38800        -2.07400        -0.02700
| 25>    N        2.01000        -0.40100         0.06500
| 26>    C       -1.96000         2.86100         0.02400
| 27>    C       -2.62300         1.61500        -0.01800
| 28>    C       -5.57300        -4.32900         1.06600
| 29>    C       -4.07300         1.47100         0.05600
| 30>    C       -4.10600        -2.75600        -0.02600
| 31>    C       -4.99500        -2.75700        -1.11100
| 32>    C       -6.13200        -3.54200        -1.07600
| 33>    C       -7.65100        -5.11300         0.04000
| 34>    C       -4.32400         0.14100         0.03700
| 35>    C       -3.02500        -0.52000        -0.04800
| 36>    C       -4.42200        -3.56600         1.07500
| 37>    N       -6.40700        -4.31300         0.00100
| 38>    C       -2.86700        -1.92200        -0.04000
| 39>    C       -1.65000        -2.62400        -0.02700
| 40>    C        3.56800        -6.14200        -1.04000
| 41>    C       -1.47600        -4.04900        -0.03400
| 42>    C        2.80300        -4.09900        -0.00800
| 43>    C        3.65700        -4.38400         1.06900
| 44>    C        4.42700        -5.53000         1.05900
| 45>    C        5.24500        -7.58800         0.01400
| 46>    C       -0.13400        -4.31500        -0.02200
| 47>    C        0.56800        -3.06400        -0.02700
| 48>    C        2.77500        -5.01200        -1.07400
| 49>    N        4.37600        -6.39100         0.01700
| 50>    C        1.95900        -2.86900        -0.00900
| 51>    C        2.62100        -1.62200         0.00900
| 52>    C        5.54300         4.33900        -1.13000
| 53>    C        4.07000        -1.47900        -0.09400
| 54>    C        4.10400         2.75100        -0.02100
| 55>    C        5.02700         2.72900         1.03600
| 56>    C        6.16600         3.50900         0.97800
| 57>    C        7.61900         5.15300        -0.11500
| 58>    C        4.32100        -0.14800        -0.09200
| 59>    C        3.02500         0.51400         0.01500
| 60>    C        4.38700         3.58200        -1.11500
| 61>    C        2.86600         1.91600         0.01300
| 62>    N        6.41300         4.29600        -0.09500
| 63>    H       -2.63400         7.50100         0.10100
| 64>    H        2.27400         4.76600         0.08100
| 65>    H       -4.70500         3.04900         0.06700
| 66>    H       -6.04800         5.14400         0.11800
| 67>    H       -5.48700         7.83800        -0.92800
| 68>    H       -6.13100         7.39400         0.68100
| 69>    H       -4.66900         8.41200         0.55600
| 70>    H       -0.33200         5.28200         0.06900
| 71>    H       -1.15200         5.50500         0.04500
| 72>    H        0.18200         1.07200         0.00500
| 73>    H       -0.18300        -1.08000        -0.02100
| 74>    H       -5.86400        -4.96200         1.89500
| 75>    H       -4.79400         2.27200         0.13900
| 76>    H       -4.80000        -2.16000        -1.99400
| 77>    H       -6.84100        -3.58200        -1.89300
| 78>    H       -8.42800        -4.53600         0.54600
| 79>    H       -7.95600        -5.33700        -0.98100
| 80>    H       -7.45600        -6.03700         0.58400
| 81>    H       -5.28700        -0.34400         0.10000
| 82>    H       -3.78000        -3.60100         1.94700
| 83>    H        3.58700        -6.86800        -1.84300
| 84>    H       -2.27600        -4.77400        -0.05000
| 85>    H        3.71400        -3.72400         1.92600
| 86>    H        5.09200        -5.79500         1.87100
| 87>    H        6.20500        -7.32900        -0.43900
| 88>    H        5.39300        -7.91700         1.04200
| 89>    H        4.75900        -8.37300        -0.56400
| 90>    H        0.32900        -5.29000        -0.00800
| 91>    H        2.14600        -4.84200        -1.94000
| 92>    H        5.80800         4.98600        -1.95600
| 93>    H        4.78800        -2.28100        -0.18500
| 94>    H        4.86000         2.11400         1.91200
| 95>    H        6.90100         3.53100         1.77200
| 96>    H        7.38300         6.10900         0.35600
| 97>    H        8.41400         4.65200         0.43500
| 98>    H        7.92100         5.31000        -1.15000
| 99>    H        5.28300         0.33600        -0.17900
|100>    H        3.72000         3.63200        -1.96700
|101> *
|102>
|103>                          ****END OF INPUT****

CARTESIAN COORDINATES (ANGSTROEM)
---------------------------------
  C     -3.034000    6.495000    0.085000
  C      1.474000    4.041000    0.057000
  C     -2.802000    4.093000    0.049000
  C     -4.203000    4.009000    0.077000
  C     -4.966000    5.159000    0.105000
  C     -5.228000    7.592000    0.104000
  C      0.132000    4.307000    0.061000
  C     -0.569000    3.056000    0.047000
  C      1.649000    2.618000    0.023000
  C     -2.228000    5.374000    0.051000
  N     -4.381000    6.379000    0.112000
  N      0.388000    2.067000    0.025000
  N     -2.010000    0.395000   -0.075000
  N     -0.388000   -2.074000   -0.027000
  N      2.010000   -0.401000    0.065000
  C     -1.960000    2.861000    0.024000
  C     -2.623000    1.615000   -0.018000
  C     -5.573000   -4.329000    1.066000
  C     -4.073000    1.471000    0.056000
  C     -4.106000   -2.756000   -0.026000
  C     -4.995000   -2.757000   -1.111000
  C     -6.132000   -3.542000   -1.076000
  C     -7.651000   -5.113000    0.040000
  C     -4.324000    0.141000    0.037000
  C     -3.025000   -0.520000   -0.048000
  C     -4.422000   -3.566000    1.075000
  N     -6.407000   -4.313000    0.001000
  C     -2.867000   -1.922000   -0.040000
  C     -1.650000   -2.624000   -0.027000
  C      3.568000   -6.142000   -1.040000
  C     -1.476000   -4.049000   -0.034000
  C      2.803000   -4.099000   -0.008000
  C      3.657000   -4.384000    1.069000
  C      4.427000   -5.530000    1.059000
  C      5.245000   -7.588000    0.014000
  C     -0.134000   -4.315000   -0.022000
  C      0.568000   -3.064000   -0.027000
  C      2.775000   -5.012000   -1.074000
  N      4.376000   -6.391000    0.017000
  C      1.959000   -2.869000   -0.009000
  C      2.621000   -1.622000    0.009000
  C      5.543000    4.339000   -1.130000
  C      4.070000   -1.479000   -0.094000
  C      4.104000    2.751000   -0.021000
  C      5.027000    2.729000    1.036000
  C      6.166000    3.509000    0.978000
  C      7.619000    5.153000   -0.115000
  C      4.321000   -0.148000   -0.092000
  C      3.025000    0.514000    0.015000
  C      4.387000    3.582000   -1.115000
  C      2.866000    1.916000    0.013000
  N      6.413000    4.296000   -0.095000
  H     -2.634000    7.501000    0.101000
  H      2.274000    4.766000    0.081000
  H     -4.705000    3.049000    0.067000
  H     -6.048000    5.144000    0.118000
  H     -5.487000    7.838000   -0.928000
  H     -6.131000    7.394000    0.681000
  H     -4.669000    8.412000    0.556000
  H     -0.332000    5.282000    0.069000
  H     -1.152000    5.505000    0.045000
  H      0.182000    1.072000    0.005000
  H     -0.183000   -1.080000   -0.021000
  H     -5.864000   -4.962000    1.895000
  H     -4.794000    2.272000    0.139000
  H     -4.800000   -2.160000   -1.994000
  H     -6.841000   -3.582000   -1.893000
  H     -8.428000   -4.536000    0.546000
  H     -7.956000   -5.337000   -0.981000
  H     -7.456000   -6.037000    0.584000
  H     -5.287000   -0.344000    0.100000
  H     -3.780000   -3.601000    1.947000
  H      3.587000   -6.868000   -1.843000
  H     -2.276000   -4.774000   -0.050000
  H      3.714000   -3.724000    1.926000
  H      5.092000   -5.795000    1.871000
  H      6.205000   -7.329000   -0.439000
  H      5.393000   -7.917000    1.042000
  H      4.759000   -8.373000   -0.564000
  H      0.329000   -5.290000   -0.008000
  H      2.146000   -4.842000   -1.940000
  H      5.808000    4.986000   -1.956000
  H      4.788000   -2.281000   -0.185000
  H      4.860000    2.114000    1.912000
  H      6.901000    3.531000    1.772000
  H      7.383000    6.109000    0.356000
  H      8.414000    4.652000    0.435000
  H      7.921000    5.310000   -1.150000
  H      5.283000    0.336000   -0.179000
  H      3.720000    3.632000   -1.967000

 Total Charge           Charge          ....    0
 Multiplicity           Mult            ....    1
 Number of Electrons    NEL             ....  358
 Basis Dimension        Dim             ....  918

ORBITAL ENERGIES
----------------

  NO   OCC          E(Eh)            E(eV)
   0   2.0000     -15.679825      -426.6697
   1   2.0000     -15.632952      -425.3943
   2   2.0000     -15.632524      -425.3826
   3   2.0000     -15.587968      -424.1702
   4   2.0000     -15.524781      -422.4508
   5   2.0000     -15.515340      -422.1939
   6   2.0000     -15.453892      -420.5218
   7   2.0000     -15.439328      -420.1255
   8   2.0000     -11.329326      -308.2866
   9   2.0000     -11.328496      -308.2640
  10   2.0000     -11.327937      -308.2488
  11   2.0000     -11.298813      -307.4563
  12   2.0000     -11.298713      -307.4536
  13   2.0000     -11.292174      -307.2757
  14   2.0000     -11.291852      -307.2669
  15   2.0000     -11.287032      -307.1358
  16   2.0000     -11.285670      -307.0987
  17   2.0000     -11.282050      -307.0002
  18   2.0000     -11.269452      -306.6574
  19   2.0000     -11.263316      -306.4904
  20   2.0000     -11.262313      -306.4631
  21   2.0000     -11.250960      -306.1542
  22   2.0000     -11.247274      -306.0539
  23   2.0000     -11.237255      -305.7812
  24   2.0000     -11.236773      -305.7681
  25   2.0000     -11.230388      -305.5944
  26   2.0000     -11.230266      -305.5911
  27   2.0000     -11.230086      -305.5862
  28   2.0000     -11.229716      -305.5761
  29   2.0000     -11.210703      -305.0587
  30   2.0000     -11.209204      -305.0179
  31   2.0000     -11.194038      -304.6053
  32   2.0000     -11.192320      -304.5585
  33   2.0000     -11.191177      -304.5274
  34   2.0000     -11.188651      -304.4587
  35   2.0000     -11.187950      -304.4396
  36   2.0000     -11.187087      -304.4161
  37   2.0000     -11.174325      -304.0688
  38   2.0000     -11.171775      -303.9995
  39   2.0000     -11.171332      -303.9874
  40   2.0000     -11.170720      -303.9708
  41   2.0000     -11.167966      -303.8958
  42   2.0000     -11.165023      -303.8157
  43   2.0000     -11.161993      -303.7333
  44   2.0000     -11.161190      -303.7114
  45   2.0000     -11.156967      -303.5965
  46   2.0000     -11.156181      -303.5751
  47   2.0000     -11.150478      -303.4199
  48   2.0000     -11.147410      -303.3364
  49   2.0000     -11.135855      -303.0220
  50   2.0000     -11.129563      -302.8508
  51   2.0000     -11.117998      -302.5361
  52   2.0000      -1.360396       -37.0183
  53   2.0000      -1.320354       -35.9287
  54   2.0000      -1.320209       -35.9247
  55   2.0000      -1.280011       -34.8309
  56   2.0000      -1.225852       -33.3571
  57   2.0000      -1.210339       -32.9350
  58   2.0000      -1.173579       -31.9347
  59   2.0000      -1.150711       -31.3124
  60   2.0000      -1.143630       -31.1198
  61   2.0000      -1.110193       -30.2099
  62   2.0000      -1.108829       -30.1728
  63   2.0000      -1.082067       -29.4446
  64   2.0000      -1.077273       -29.3141
  65   2.0000      -1.044825       -28.4311
  66   2.0000      -1.044598       -28.4249
  67   2.0000      -1.041038       -28.3281
  68   2.0000      -1.015304       -27.6278
  69   2.0000      -1.014771       -27.6133
  70   2.0000      -1.009095       -27.4589
  71   2.0000      -0.993242       -27.0275
  72   2.0000      -0.985647       -26.8208
  73   2.0000      -0.981721       -26.7140
  74   2.0000      -0.974127       -26.5073
  75   2.0000      -0.962427       -26.1890
  76   2.0000      -0.955023       -25.9875
  77   2.0000      -0.947057       -25.7707
  78   2.0000      -0.940050       -25.5801
  79   2.0000      -0.916607       -24.9422
  80   2.0000      -0.910615       -24.7791
  81   2.0000      -0.898614       -24.4525
  82   2.0000      -0.877336       -23.8735
  83   2.0000      -0.871711       -23.7205
  84   2.0000      -0.871249       -23.7079
  85   2.0000      -0.861936       -23.4545
  86   2.0000      -0.846543       -23.0356
  87   2.0000      -0.838325       -22.8120
  88   2.0000      -0.829645       -22.5758
  89   2.0000      -0.796249       -21.6670
  90   2.0000      -0.789462       -21.4823
  91   2.0000      -0.776702       -21.1351
  92   2.0000      -0.753032       -20.4910
  93   2.0000      -0.734278       -19.9807
  94   2.0000      -0.729415       -19.8484
  95   2.0000      -0.727092       -19.7852
  96   2.0000      -0.720542       -19.6069
  97   2.0000      -0.718026       -19.5385
  98   2.0000      -0.714371       -19.4390
  99   2.0000      -0.700398       -19.0588
 100   2.0000      -0.698208       -18.9992
 101   2.0000      -0.694780       -18.9059
 102   2.0000      -0.685375       -18.6500
 103   2.0000      -0.684353       -18.6222
 104   2.0000      -0.678792       -18.4709
 105   2.0000      -0.674501       -18.3541
 106   2.0000      -0.672931       -18.3114
 107   2.0000      -0.661073       -17.9887
 108   2.0000      -0.658102       -17.9079
 109   2.0000      -0.652706       -17.7610
 110   2.0000      -0.652080       -17.7440
 111   2.0000      -0.646209       -17.5842
 112   2.0000      -0.645763       -17.5721
 113   2.0000      -0.638055       -17.3624
 114   2.0000      -0.635293       -17.2872
 115   2.0000      -0.628928       -17.1140
 116   2.0000      -0.623273       -16.9601
 117   2.0000      -0.620628       -16.8881
 118   2.0000      -0.612786       -16.6748
 119   2.0000      -0.612031       -16.6542
 120   2.0000      -0.611694       -16.6450
 121   2.0000      -0.611511       -16.6401
 122   2.0000      -0.601634       -16.3713
 123   2.0000      -0.589433       -16.0393
 124   2.0000      -0.581239       -15.8163
 125   2.0000      -0.580924       -15.8077
 126   2.0000      -0.580221       -15.7886
 127   2.0000      -0.571061       -15.5394
 128   2.0000      -0.566371       -15.4117
 129   2.0000      -0.560011       -15.2387
 130   2.0000      -0.555717       -15.1218
 131   2.0000      -0.547712       -14.9040
 132   2.0000      -0.542640       -14.7660
 133   2.0000      -0.540022       -14.6947
 134   2.0000      -0.538395       -14.6505
 135   2.0000      -0.536310       -14.5937
 136   2.0000      -0.531825       -14.4717
 137   2.0000      -0.517971       -14.0947
 138   2.0000      -0.516528       -14.0554
 139   2.0000      -0.514312       -13.9951
 140   2.0000      -0.512070       -13.9341
 141   2.0000      -0.509737       -13.8707
 142   2.0000      -0.507201       -13.8016
 143   2.0000      -0.505532       -13.7562
 144   2.0000      -0.502441       -13.6721
 145   2.0000      -0.495470       -13.4824
 146   2.0000      -0.488224       -13.2852
 147   2.0000      -0.480952       -13.0874
 148   2.0000      -0.476449       -12.9648
 149   2.0000      -0.467816       -12.7299
 150   2.0000      -0.466132       -12.6841
 151   2.0000      -0.456295       -12.4164
 152   2.0000      -0.451543       -12.2871
 153   2.0000      -0.445205       -12.1146
 154   2.0000      -0.437850       -11.9145
 155   2.0000      -0.427763       -11.6400
 156   2.0000      -0.409114       -11.1326
 157   2.0000      -0.390756       -10.6330
 158   2.0000      -0.387803       -10.5526
 159   2.0000      -0.384444       -10.4613
 160   2.0000      -0.378381       -10.2963
 161   2.0000      -0.372801       -10.1444
 162   2.0000      -0.356499        -9.7008
 163   2.0000      -0.356300        -9.6954
 164   2.0000      -0.355620        -9.6769
 165   2.0000      -0.341902        -9.3036
 166   2.0000      -0.337470        -9.1830
 167   2.0000      -0.324645        -8.8340
 168   2.0000      -0.321534        -8.7494
 169   2.0000      -0.305049        -8.3008
 170   2.0000      -0.299319        -8.1449
 171   2.0000      -0.286052        -7.7839
 172   2.0000      -0.278112        -7.5678
 173   2.0000      -0.263568        -7.1721
 174   2.0000      -0.242260        -6.5922
 175   2.0000      -0.189950        -5.1688
 176   2.0000      -0.181419        -4.9367
 177   2.0000      -0.080170        -2.1815
 178   2.0000      -0.059711        -1.6248
 179   0.0000       0.028514         0.7759
 180   0.0000       0.065447         1.7809
 181   0.0000       0.090264         2.4562
 182   0.0000       0.106277         2.8919
 183   0.0000       0.117277         3.1913

MULLIKEN ATOMIC CHARGES
-----------------------
   0 C :    0.231332
   1 N :   -0.454813
   2 C :   -0.062911
   3 N :   -0.340696
   4 C :   -0.142782
   5 N :   -0.569020
   6 C :   -0.088470
   7 N :   -0.341120
   8 C :    0.221588
   9 N :   -0.562290
  10 C :    0.119417
  11 N :   -0.438662
  12 C :   -0.063255
  13 N :   -0.429341
  14 C :    0.212692
  15 N :   -0.440740
  16 C :    0.234618
  17 C :   -0.102624
  18 C :   -0.178152
  19 C :    0.210085
  20 C :    0.213343
  21 C :   -0.055647
  22 C :   -0.090835
  23 C :   -0.039618
  24 C :    0.192770
  25 C :    0.114741
  26 C :   -0.081929
  27 C :    0.219268
  28 C :   -0.061932
  29 C :   -0.183713
  30 C :    0.245596
  31 C :    0.230068
  32 C :   -0.061390
  33 C :   -0.059881
  34 C :   -0.051553
  35 C :    0.229099
  36 C :    0.108189
  37 C :   -0.064636
  38 C :    0.230918
  39 C :   -0.057340
  40 C :   -0.182040
  41 C :    0.226423
  42 C :    0.197354
  43 C :   -0.072726
  44 C :   -0.089335
  45 C :   -0.061729
  46 C :    0.212226
  47 C :    0.115261
  48 C :   -0.066281
  49 C :    0.237658
  50 C :   -0.045916
  51 C :   -0.192226
  52 H :    0.031318
  53 H :   -0.019278
  54 H :    0.068051
  55 H :    0.029945
  56 H :    0.049364
  57 H :    0.047767
  58 H :    0.046246
  59 H :   -0.019902
  60 H :    0.066922
  61 H :    0.170853
  62 H :    0.175362
  63 H :    0.054913
  64 H :   -0.044878
  65 H :    0.046503
  66 H :    0.055119
  67 H :    0.062071
  68 H :    0.056961
  69 H :    0.056107
  70 H :   -0.030949
  71 H :    0.044475
  72 H :    0.071464
  73 H :   -0.007922
  74 H :    0.060540
  75 H :    0.070953
  76 H :    0.075094
  77 H :    0.068119
  78 H :    0.067457
  79 H :   -0.016899
  80 H :    0.061526
  81 H :    0.054661
  82 H :   -0.024905
  83 H :    0.042196
  84 H :    0.054510
  85 H :    0.061096
  86 H :    0.055729
  87 H :    0.057455
  88 H :   -0.014395
  89 H :    0.047310
Sum of atomic charges:   -0.0000000

LOEWDIN ATOMIC CHARGES
----------------------
   0 C :   -0.016415
   1 N :    0.123159
   2 C :   -0.099459
   3 N :    0.182204
   4 C :   -0.009690
   5 N :   -0.134887
   6 C :   -0.010534
   7 N :    0.174955
   8 C :   -0.022531
   9 N :   -0.140600
  10 C :    0.022604
  11 N :    0.141282
  12 C :   -0.091119
  13 N :    0.166507
  14 C :   -0.014545
  15 N :    0.139275
  16 C :   -0.061653
  17 C :   -0.023772
  18 C :   -0.116547
  19 C :   -0.072393
  20 C :    0.004327
  21 C :   -0.091122
  22 C :    0.036408
  23 C :   -0.014732
  24 C :   -0.013637
  25 C :    0.029661
  26 C :   -0.107310
  27 C :   -0.117189
  28 C :   -0.027901
  29 C :   -0.099207
  30 C :   -0.029912
  31 C :    0.024289
  32 C :   -0.094290
  33 C :    0.082624
  34 C :   -0.015351
  35 C :    0.023783
  36 C :    0.035298
  37 C :   -0.094298
  38 C :   -0.052595
  39 C :   -0.017340
  40 C :   -0.109303
  41 C :   -0.090462
  42 C :   -0.010386
  43 C :   -0.099393
  44 C :    0.034395
  45 C :   -0.028269
  46 C :    0.002642
  47 C :    0.029611
  48 C :   -0.094320
  49 C :   -0.069736
  50 C :   -0.018330
  51 C :   -0.107607
  52 H :    0.021771
  53 H :    0.002363
  54 H :   -0.026724
  55 H :    0.021300
  56 H :    0.021852
  57 H :    0.026288
  58 H :    0.026583
  59 H :    0.001210
  60 H :   -0.014838
  61 H :    0.060322
  62 H :    0.061864
  63 H :    0.030569
  64 H :   -0.001538
  65 H :    0.045655
  66 H :    0.028991
  67 H :    0.028039
  68 H :    0.031499
  69 H :    0.030172
  70 H :   -0.004907
  71 H :    0.043337
  72 H :    0.037772
  73 H :    0.007187
  74 H :    0.050725
  75 H :    0.037509
  76 H :    0.034898
  77 H :    0.036244
  78 H :    0.035943
  79 H :    0.002822
  80 H :    0.050868
  81 H :    0.029199
  82 H :   -0.002756
  83 H :    0.042601
  84 H :    0.030047
  85 H :    0.027501
  86 H :    0.030269
  87 H :    0.031516
  88 H :    0.002444
  89 H :    0.045214

  Mayer bond orders larger than 0.100000
B(  0-C ,  1-N ) :   1.1045 B(  0-C , 17-C ) :   1.7308 B(  0-C , 52-H ) :   0.9583
B(  1-N ,  8-C ) :   1.0918 B(  1-N , 10-C ) :   0.9773 B(  2-C , 12-C ) :   1.4854
B(  2-C , 16-C ) :   1.3803 B(  2-C , 53-H ) :   0.9699 B(  3-N , 14-C ) :   1.2278
B(  3-N , 16-C ) :   1.1767 B(  3-N , 61-H ) :   0.8969 B(  4-C ,  6-C ) :   1.2322
B(  4-C , 17-C ) :   1.2319 B(  4-C , 18-C ) :   1.4918 B(  5-N , 19-C ) :   1.4658
B(  5-N , 27-C ) :   1.3672 B(  6-C ,  8-C ) :   1.7414 B(  6-C , 54-H ) :   0.8255
B(  7-N , 30-C ) :   1.1950 B(  7-N , 38-C ) :   1.1895 B(  7-N , 62-H ) :   0.8968
B(  8-C , 55-H ) :   0.9578 B(  9-N , 41-C ) :   1.3958 B(  9-N , 49-C ) :   1.4235
B( 10-C , 56-H ) :   0.9777 B( 10-C , 57-H ) :   0.9823 B( 10-C , 58-H ) :   0.9835
B( 11-N , 20-C ) :   1.1304 B( 11-N , 24-C ) :   1.1057 B( 11-N , 25-C ) :   0.9607
B( 12-C , 14-C ) :   1.3637 B( 12-C , 59-H ) :   0.9026 B( 13-N , 31-C ) :   1.1614
B( 13-N , 35-C ) :   1.1612 B( 13-N , 36-C ) :   0.9412 B( 14-C , 18-C ) :   1.1164
B( 15-N , 42-C ) :   1.1080 B( 15-N , 46-C ) :   1.1255 B( 15-N , 47-C ) :   0.9610
B( 16-C , 51-C ) :   1.1686 B( 17-C , 60-H ) :   0.8609 B( 18-C , 19-C ) :   1.1142
B( 19-C , 21-C ) :   1.2567 B( 20-C , 28-C ) :   1.6297 B( 20-C , 63-H ) :   0.9703
B( 21-C , 26-C ) :   1.5764 B( 21-C , 64-H ) :   0.8727 B( 22-C , 23-C ) :   1.2888
B( 22-C , 28-C ) :   1.2628 B( 22-C , 29-C ) :   1.2285 B( 23-C , 24-C ) :   1.6210
B( 23-C , 65-H ) :   0.9703 B( 24-C , 66-H ) :   0.9696 B( 25-C , 67-H ) :   0.9760
B( 25-C , 68-H ) :   0.9828 B( 25-C , 69-H ) :   0.9824 B( 26-C , 27-C ) :   1.2707
B( 26-C , 70-H ) :   0.9646 B( 27-C , 29-C ) :   1.2051 B( 28-C , 71-H ) :   0.9720
B( 29-C , 30-C ) :   1.2469 B( 30-C , 32-C ) :   1.2790 B( 31-C , 39-C ) :   1.5873
B( 31-C , 72-H ) :   0.9681 B( 32-C , 37-C ) :   1.5798 B( 32-C , 73-H ) :   0.9786
B( 33-C , 34-C ) :   1.3067 B( 33-C , 39-C ) :   1.3047 B( 33-C , 40-C ) :   1.1762
B( 34-C , 35-C ) :   1.5853 B( 34-C , 74-H ) :   0.9696 B( 35-C , 75-H ) :   0.9681
B( 36-C , 76-H ) :   0.9768 B( 36-C , 77-H ) :   0.9816 B( 36-C , 78-H ) :   0.9823
B( 37-C , 38-C ) :   1.2851 B( 37-C , 79-H ) :   0.9764 B( 38-C , 40-C ) :   1.2339
B( 39-C , 80-H ) :   0.9705 B( 40-C , 41-C ) :   1.2501 B( 41-C , 43-C ) :   1.1838
B( 42-C , 50-C ) :   1.6321 B( 42-C , 81-H ) :   0.9696 B( 43-C , 48-C ) :   1.6693
B( 43-C , 82-H ) :   0.9721 B( 44-C , 45-C ) :   1.2638 B( 44-C , 50-C ) :   1.2734
B( 44-C , 51-C ) :   1.2586 B( 45-C , 46-C ) :   1.6337 B( 45-C , 83-H ) :   0.9718
B( 46-C , 84-H ) :   0.9700 B( 47-C , 85-H ) :   0.9762 B( 47-C , 86-H ) :   0.9829
B( 47-C , 87-H ) :   0.9824 B( 48-C , 49-C ) :   1.1872 B( 48-C , 88-H ) :   0.9748
B( 49-C , 51-C ) :   1.2473 B( 50-C , 89-H ) :   0.9708 B( 54-H , 64-H ) :   0.1532
B( 59-H , 60-H ) :   0.1078

MP2 TOTAL ENERGY:    -2130.727565204 Eh
FINAL SINGLE POINT ENERGY     -2130.727565204013

DIPOLE MOMENT
-------------
                                X             Y             Z
Electronic contribution:      2.91696      -4.23504      -0.08149
Nuclear contribution   :     -0.03528       0.16163       0.10144
                        -----------------------------------------
Total Dipole Moment    :      2.88169      -4.07341       0.01995
                        -----------------------------------------
Magnitude (a.u.)       :      4.98970
Magnitude (Debye)      :     12.68282

Rotational constants in cm-1:     0.001504     0.001478     0.000760
Rotational constants in MHz :    45.074981    44.300359    22.779985

                             ****ORCA TERMINATED NORMALLY****
TOTAL RUN TIME: 0 days 1 hours 34 minutes 3 seconds 438 msec
