                         Program Version 5.0.4 -  RELEASE  -
|  1> ! PAL2
|  2> ! mp2 cc-pvdz TightSCF  NoKeepInts
|  3>
|  4> %scf
|  5>   MaxCore 2000
|  6> end
|  7> %mp2
|  8>   MaxCore 2000
|  9> end
| 10> * xyz 0 1
| 11>    C       -3.79800         5.99600        -1.05200
| 12>    C        1.47400         4.04100         0.05700
| 13>    C       -2.80200         4.09300         0.04900
| 14>    C       -3.39900         4.53400         1.24000
| 15>    C       -4.17100         5.67900         1.24600
| 16>    C       -5.22200         7.59500         0.14400
| 17>    C        0.13200         4.30700         0.06100
| 18>    C       -0.56900         3.05600         0.04700
| 19>    C        1.64900         2.61800         0.02300
| 20>    C       -3.02200         4.85400        -1.10900
| 21>    N       -4.35800         6.39400         0.11300
| 22>    N        0.38800         2.06700         0.02500
| 23>    N       -2.01000         0.39500        -0.07500
| 24>    N       -0.38800        -2.07400        -0.02700
| 25>    N        2.01000        -0.40100         0.06500
| 26>    C       -1.96000         2.86100         0.02400
| 27>    C       -2.62300         1.61500        -0.01800
| 28>    C       -5.57300        -4.32900         1.06600
| 29>    C       -4.07300         1.47100         0.05600
| 30>    C       -4.10600        -2.75600        -0.02600
| 31>    C       -4.99500        -2.75700        -1.11100
| 32>    C       -6.13200        -3.54200        -1.07600
| 33>    C       -7.65100        -5.11300         0.04000
| 34>    C       -4.32400         0.14100         0.03700
| 35>    C       -3.02500        -0.52000        -0.04800
| 36>    C       -4.42200        -3.56600         1.07500
| 37>    N       -6.40700        -4.31300         0.00100
| 38>    C       -2.86700        -1.92200        -0.04000
| 39>    C       -1.65000        -2.62400        -0.02700
| 40>    C        3.56800        -6.14200        -1.04000
| 41>    C       -1.47600        -4.04900        -0.03400
| 42>    C        2.80300        -4.09900        -0.00800
| 43>    C        3.65700        -4.38400         1.06900
| 44>    C        4.42700        -5.53000         1.05900
| 45>    C        5.24500        -7.58800         0.01400
| 46>    C       -0.13400        -4.31500        -0.02200
| 47>    C        0.56800        -3.06400        -0.02700
| 48>    C        2.77500        -5.01200        -1.07400
| 49>    N        4.37600        -6.39100         0.01700
| 50>    C        1.95900        -2.86900        -0.00900
| 51>    C        2.62100        -1.62200         0.00900
| 52>    C        5.54300         4.33900        -1.13000
| 53>    C        4.07000        -1.47900        -0.09400
| 54>    C        4.10400         2.75100        -0.02100
| 55>    C        5.02700         2.72900         1.03600
| 56>    C        6.16600         3.50900         0.97800
| 57>    C        7.61900         5.15300        -0.11500
| 58>    C        4.32100        -0.14800        -0.09200
| 59>    C        3.02500         0.51400         0.01500
| 60>    C        4.38700         3.58200        -1.11500
| 61>    C        2.86600         1.91600         0.01300
| 62>    N        6.41300         4.29600        -0.09500
| 63>    H       -3.98400         6.62000        -1.91700
| 64>    H        2.27400         4.76600         0.08100
| 65>    H       -3.27400         3.98400         2.16500
| 66>    H       -4.65800         6.05300         2.13700
| 67>    H       -6.26100         7.29000        -0.00000
| 68>    H       -5.10600         8.08500         1.11100
| 69>    H       -4.91500         8.26900        -0.65500
| 70>    H       -0.33200         5.28200         0.06900
| 71>    H       -2.57700         4.57400        -2.05700
| 72>    H        0.18200         1.07200         0.00500
| 73>    H       -0.18300        -1.08000        -0.02100
| 74>    H       -5.86400        -4.96200         1.89500
| 75>    H       -4.79400         2.27200         0.13900
| 76>    H       -4.80000        -2.16000        -1.99400
| 77>    H       -6.84100        -3.58200        -1.89300
| 78>    H       -8.42800        -4.53600         0.54600
| 79>    H       -7.95600        -5.33700        -0.98100
| 80>    H       -7.45600        -6.03700         0.58400
| 81>    H       -5.28700        -0.34400         0.10000
| 82>    H       -3.78000        -3.60100         1.94700
| 83>    H        3.58700        -6.86800        -1.84300
| 84>    H       -2.27600        -4.77400        -0.05000
| 85>    H        3.71400        -3.72400         1.92600
| 86>    H        5.09200        -5.79500         1.87100
| 87>    H        6.20500        -7.32900        -0.43900
| 88>    H        5.39300        -7.91700         1.04200
| 89>    H        4.75900        -8.37300        -0.56400
| 90>    H        0.32900        -5.29000        -0.00800
| 91>    H        2.14600        -4.84200        -1.94000
| 92>    H        5.80800         4.98600        -1.95600
| 93>    H        4.78800        -2.28100        -0.18500
| 94>    H        4.86000         2.11400         1.91200
| 95>    H        6.90100         3.53100         1.77200
| 96>    H        7.38300         6.10900         0.35600
| 97>    H        8.41400         4.65200         0.43500
| 98>    H        7.92100         5.31000        -1.15000
| 99>    H        5.28300         0.33600        -0.17900
|100>    H        3.72000         3.63200        -1.96700
|101> *
|102>
|103>                          ****END OF INPUT****

CARTESIAN COORDINATES (ANGSTROEM)
---------------------------------
  C     -3.798000    5.996000   -1.052000
  C      1.474000    4.041000    0.057000
  C     -2.802000    4.093000    0.049000
  C     -3.399000    4.534000    1.240000
  C     -4.171000    5.679000    1.246000
  C     -5.222000    7.595000    0.144000
  C      0.132000    4.307000    0.061000
  C     -0.569000    3.056000    0.047000
  C      1.649000    2.618000    0.023000
  C     -3.022000    4.854000   -1.109000
  N     -4.358000    6.394000    0.113000
  N      0.388000    2.067000    0.025000
  N     -2.010000    0.395000   -0.075000
  N     -0.388000   -2.074000   -0.027000
  N      2.010000   -0.401000    0.065000
  C     -1.960000    2.861000    0.024000
  C     -2.623000    1.615000   -0.018000
  C     -5.573000   -4.329000    1.066000
  C     -4.073000    1.471000    0.056000
  C     -4.106000   -2.756000   -0.026000
  C     -4.995000   -2.757000   -1.111000
  C     -6.132000   -3.542000   -1.076000
  C     -7.651000   -5.113000    0.040000
  C     -4.324000    0.141000    0.037000
  C     -3.025000   -0.520000   -0.048000
  C     -4.422000   -3.566000    1.075000
  N     -6.407000   -4.313000    0.001000
  C     -2.867000   -1.922000   -0.040000
  C     -1.650000   -2.624000   -0.027000
  C      3.568000   -6.142000   -1.040000
  C     -1.476000   -4.049000   -0.034000
  C      2.803000   -4.099000   -0.008000
  C      3.657000   -4.384000    1.069000
  C      4.427000   -5.530000    1.059000
  C      5.245000   -7.588000    0.014000
  C     -0.134000   -4.315000   -0.022000
  C      0.568000   -3.064000   -0.027000
  C      2.775000   -5.012000   -1.074000
  N      4.376000   -6.391000    0.017000
  C      1.959000   -2.869000   -0.009000
  C      2.621000   -1.622000    0.009000
  C      5.543000    4.339000   -1.130000
  C      4.070000   -1.479000   -0.094000
  C      4.104000    2.751000   -0.021000
  C      5.027000    2.729000    1.036000
  C      6.166000    3.509000    0.978000
  C      7.619000    5.153000   -0.115000
  C      4.321000   -0.148000   -0.092000
  C      3.025000    0.514000    0.015000
  C      4.387000    3.582000   -1.115000
  C      2.866000    1.916000    0.013000
  N      6.413000    4.296000   -0.095000
  H     -3.984000    6.620000   -1.917000
  H      2.274000    4.766000    0.081000
  H     -3.274000    3.984000    2.165000
  H     -4.658000    6.053000    2.137000
  H     -6.261000    7.290000   -0.000000
  H     -5.106000    8.085000    1.111000
  H     -4.915000    8.269000   -0.655000
  H     -0.332000    5.282000    0.069000
  H     -2.577000    4.574000   -2.057000
  H      0.182000    1.072000    0.005000
  H     -0.183000   -1.080000   -0.021000
  H     -5.864000   -4.962000    1.895000
  H     -4.794000    2.272000    0.139000
  H     -4.800000   -2.160000   -1.994000
  H     -6.841000   -3.582000   -1.893000
  H     -8.428000   -4.536000    0.546000
  H     -7.956000   -5.337000   -0.981000
  H     -7.456000   -6.037000    0.584000
  H     -5.287000   -0.344000    0.100000
  H     -3.780000   -3.601000    1.947000
  H      3.587000   -6.868000   -1.843000
  H     -2.276000   -4.774000   -0.050000
  H      3.714000   -3.724000    1.926000
  H      5.092000   -5.795000    1.871000
  H      6.205000   -7.329000   -0.439000
  H      5.393000   -7.917000    1.042000
  H      4.759000   -8.373000   -0.564000
  H      0.329000   -5.290000   -0.008000
  H      2.146000   -4.842000   -1.940000
  H      5.808000    4.986000   -1.956000
  H      4.788000   -2.281000   -0.185000
  H      4.860000    2.114000    1.912000
  H      6.901000    3.531000    1.772000
  H      7.383000    6.109000    0.356000
  H      8.414000    4.652000    0.435000
  H      7.921000    5.310000   -1.150000
  H      5.283000    0.336000   -0.179000
  H      3.720000    3.632000   -1.967000

 Total Charge           Charge          ....    0
 Multiplicity           Mult            ....    1
 Number of Electrons    NEL             ....  358
 Basis Dimension        Dim             ....  918

ORBITAL ENERGIES
----------------

  NO   OCC          E(Eh)            E(eV)
   0   2.0000     -15.702922      -427.2982
   1   2.0000     -15.631360      -425.3509
   2   2.0000     -15.620952      -425.0677
   3   2.0000     -15.585430      -424.1011
   4   2.0000     -15.520164      -422.3251
   5   2.0000     -15.506250      -421.9465
   6   2.0000     -15.449839      -420.4115
   7   2.0000     -15.429511      -419.8583
   8   2.0000     -11.345526      -308.7274
   9   2.0000     -11.343698      -308.6777
  10   2.0000     -11.340535      -308.5916
  11   2.0000     -11.298846      -307.4572
  12   2.0000     -11.298027      -307.4349
  13   2.0000     -11.292078      -307.2731
  14   2.0000     -11.291068      -307.2456
  15   2.0000     -11.283686      -307.0447
  16   2.0000     -11.282802      -307.0206
  17   2.0000     -11.276809      -306.8576
  18   2.0000     -11.276344      -306.8449
  19   2.0000     -11.274183      -306.7861
  20   2.0000     -11.268814      -306.6400
  21   2.0000     -11.250497      -306.1416
  22   2.0000     -11.247237      -306.0529
  23   2.0000     -11.234936      -305.7181
  24   2.0000     -11.228621      -305.5463
  25   2.0000     -11.227724      -305.5219
  26   2.0000     -11.225209      -305.4535
  27   2.0000     -11.220736      -305.3318
  28   2.0000     -11.220436      -305.3236
  29   2.0000     -11.208113      -304.9882
  30   2.0000     -11.206946      -304.9565
  31   2.0000     -11.194911      -304.6290
  32   2.0000     -11.194130      -304.6078
  33   2.0000     -11.191644      -304.5401
  34   2.0000     -11.190896      -304.5198
  35   2.0000     -11.189826      -304.4907
  36   2.0000     -11.189284      -304.4759
  37   2.0000     -11.182585      -304.2936
  38   2.0000     -11.182350      -304.2872
  39   2.0000     -11.173461      -304.0453
  40   2.0000     -11.165264      -303.8223
  41   2.0000     -11.165261      -303.8222
  42   2.0000     -11.163083      -303.7629
  43   2.0000     -11.161989      -303.7332
  44   2.0000     -11.158488      -303.6379
  45   2.0000     -11.149041      -303.3808
  46   2.0000     -11.148686      -303.3712
  47   2.0000     -11.142901      -303.2137
  48   2.0000     -11.142309      -303.1976
  49   2.0000     -11.134602      -302.9879
  50   2.0000     -11.121093      -302.6203
  51   2.0000     -11.116215      -302.4876
  52   2.0000      -1.378287       -37.5051
  53   2.0000      -1.319110       -35.8948
  54   2.0000      -1.309653       -35.6375
  55   2.0000      -1.279501       -34.8170
  56   2.0000      -1.222524       -33.2666
  57   2.0000      -1.202351       -32.7176
  58   2.0000      -1.173919       -31.9440
  59   2.0000      -1.155718       -31.4487
  60   2.0000      -1.140491       -31.0343
  61   2.0000      -1.107857       -30.1463
  62   2.0000      -1.099278       -29.9129
  63   2.0000      -1.097492       -29.8643
  64   2.0000      -1.072718       -29.1901
  65   2.0000      -1.048870       -28.5412
  66   2.0000      -1.043331       -28.3905
  67   2.0000      -1.034500       -28.1502
  68   2.0000      -1.013961       -27.5913
  69   2.0000      -1.006419       -27.3861
  70   2.0000      -1.004618       -27.3370
  71   2.0000      -0.991597       -26.9827
  72   2.0000      -0.984164       -26.7805
  73   2.0000      -0.979019       -26.6405
  74   2.0000      -0.964652       -26.2495
  75   2.0000      -0.961258       -26.1572
  76   2.0000      -0.951424       -25.8896
  77   2.0000      -0.942250       -25.6399
  78   2.0000      -0.923776       -25.1372
  79   2.0000      -0.923006       -25.1163
  80   2.0000      -0.915165       -24.9029
  81   2.0000      -0.889368       -24.2009
  82   2.0000      -0.881716       -23.9927
  83   2.0000      -0.870040       -23.6750
  84   2.0000      -0.861855       -23.4523
  85   2.0000      -0.848611       -23.0919
  86   2.0000      -0.833977       -22.6937
  87   2.0000      -0.828810       -22.5531
  88   2.0000      -0.821696       -22.3595
  89   2.0000      -0.795116       -21.6362
  90   2.0000      -0.788293       -21.4506
  91   2.0000      -0.763968       -20.7886
  92   2.0000      -0.733785       -19.9673
  93   2.0000      -0.729292       -19.8451
  94   2.0000      -0.727460       -19.7952
  95   2.0000      -0.721296       -19.6275
  96   2.0000      -0.716717       -19.5029
  97   2.0000      -0.707055       -19.2399
  98   2.0000      -0.703262       -19.1367
  99   2.0000      -0.697850       -18.9895
 100   2.0000      -0.695261       -18.9190
 101   2.0000      -0.690597       -18.7921
 102   2.0000      -0.684332       -18.6216
 103   2.0000      -0.674625       -18.3575
 104   2.0000      -0.672916       -18.3110
 105   2.0000      -0.669024       -18.2051
 106   2.0000      -0.664364       -18.0783
 107   2.0000      -0.660313       -17.9680
 108   2.0000      -0.653319       -17.7777
 109   2.0000      -0.651125       -17.7180
 110   2.0000      -0.648649       -17.6506
 111   2.0000      -0.643877       -17.5208
 112   2.0000      -0.640657       -17.4332
 113   2.0000      -0.638184       -17.3659
 114   2.0000      -0.631831       -17.1930
 115   2.0000      -0.625524       -17.0214
 116   2.0000      -0.624468       -16.9926
 117   2.0000      -0.620248       -16.8778
 118   2.0000      -0.612991       -16.6803
 119   2.0000      -0.610779       -16.6202
 120   2.0000      -0.609667       -16.5899
 121   2.0000      -0.602519       -16.3954
 122   2.0000      -0.591302       -16.0902
 123   2.0000      -0.586131       -15.9494
 124   2.0000      -0.582983       -15.8638
 125   2.0000      -0.579550       -15.7704
 126   2.0000      -0.576415       -15.6851
 127   2.0000      -0.576170       -15.6784
 128   2.0000      -0.572389       -15.5755
 129   2.0000      -0.560729       -15.2582
 130   2.0000      -0.556704       -15.1487
 131   2.0000      -0.548695       -14.9308
 132   2.0000      -0.542547       -14.7634
 133   2.0000      -0.539468       -14.6797
 134   2.0000      -0.534219       -14.5369
 135   2.0000      -0.530533       -14.4365
 136   2.0000      -0.518680       -14.1140
 137   2.0000      -0.515870       -14.0375
 138   2.0000      -0.514609       -14.0032
 139   2.0000      -0.512523       -13.9465
 140   2.0000      -0.510417       -13.8892
 141   2.0000      -0.503662       -13.7053
 142   2.0000      -0.501800       -13.6547
 143   2.0000      -0.500356       -13.6154
 144   2.0000      -0.495829       -13.4922
 145   2.0000      -0.493723       -13.4349
 146   2.0000      -0.490568       -13.3490
 147   2.0000      -0.476612       -12.9693
 148   2.0000      -0.475340       -12.9347
 149   2.0000      -0.465370       -12.6634
 150   2.0000      -0.462233       -12.5780
 151   2.0000      -0.459298       -12.4981
 152   2.0000      -0.451218       -12.2783
 153   2.0000      -0.441284       -12.0079
 154   2.0000      -0.435838       -11.8597
 155   2.0000      -0.434092       -11.8122
 156   2.0000      -0.421399       -11.4669
 157   2.0000      -0.415454       -11.3051
 158   2.0000      -0.411208       -11.1895
 159   2.0000      -0.399948       -10.8831
 160   2.0000      -0.381941       -10.3932
 161   2.0000      -0.371011       -10.0957
 162   2.0000      -0.354925        -9.6580
 163   2.0000      -0.354473        -9.6457
 164   2.0000      -0.347337        -9.4515
 165   2.0000      -0.339597        -9.2409
 166   2.0000      -0.339064        -9.2264
 167   2.0000      -0.323113        -8.7923
 168   2.0000      -0.314953        -8.5703
 169   2.0000      -0.302320        -8.2265
 170   2.0000      -0.298396        -8.1198
 171   2.0000      -0.283791        -7.7223
 172   2.0000      -0.277659        -7.5555
 173   2.0000      -0.264757        -7.2044
 174   2.0000      -0.232726        -6.3328
 175   2.0000      -0.183910        -5.0044
 176   2.0000      -0.174012        -4.7351
 177   2.0000      -0.062546        -1.7020
 178   2.0000      -0.050904        -1.3852
 179   0.0000       0.034780         0.9464
 180   0.0000       0.057869         1.5747
 181   0.0000       0.083960         2.2847
 182   0.0000       0.097874         2.6633
 183   0.0000       0.102056         2.7771

MULLIKEN ATOMIC CHARGES
-----------------------
   0 C :    0.233185
   1 N :   -0.416930
   2 C :   -0.066179
   3 N :   -0.342503
   4 C :   -0.068872
   5 N :   -0.565869
   6 C :   -0.029448
   7 N :   -0.336763
   8 C :    0.229615
   9 N :   -0.566056
  10 C :    0.104783
  11 N :   -0.439444
  12 C :   -0.059973
  13 N :   -0.450192
  14 C :    0.223920
  15 N :   -0.441482
  16 C :    0.253582
  17 C :   -0.035728
  18 C :   -0.184042
  19 C :    0.233662
  20 C :    0.190361
  21 C :   -0.070562
  22 C :   -0.090080
  23 C :   -0.065579
  24 C :    0.216525
  25 C :    0.114767
  26 C :   -0.066602
  27 C :    0.245689
  28 C :   -0.040861
  29 C :   -0.196646
  30 C :    0.222204
  31 C :    0.189215
  32 C :   -0.065616
  33 C :   -0.101078
  34 C :   -0.050944
  35 C :    0.180784
  36 C :    0.120500
  37 C :   -0.070336
  38 C :    0.243292
  39 C :   -0.064632
  40 C :   -0.203434
  41 C :    0.217437
  42 C :    0.211553
  43 C :   -0.076718
  44 C :   -0.091832
  45 C :   -0.039397
  46 C :    0.185815
  47 C :    0.116607
  48 C :   -0.080932
  49 C :    0.209639
  50 C :   -0.066189
  51 C :   -0.188520
  52 H :    0.079048
  53 H :   -0.007668
  54 H :    0.065480
  55 H :    0.077593
  56 H :    0.081975
  57 H :    0.074219
  58 H :    0.072343
  59 H :   -0.027207
  60 H :    0.064319
  61 H :    0.176888
  62 H :    0.168113
  63 H :    0.053076
  64 H :   -0.032995
  65 H :    0.041577
  66 H :    0.055234
  67 H :    0.058586
  68 H :    0.056232
  69 H :    0.058986
  70 H :   -0.014754
  71 H :    0.046744
  72 H :    0.038826
  73 H :   -0.019431
  74 H :    0.030602
  75 H :    0.037602
  76 H :    0.047312
  77 H :    0.046927
  78 H :    0.046206
  79 H :   -0.012081
  80 H :    0.030510
  81 H :    0.050607
  82 H :   -0.022662
  83 H :    0.042890
  84 H :    0.049733
  85 H :    0.054750
  86 H :    0.056435
  87 H :    0.054637
  88 H :   -0.029530
  89 H :    0.039187
Sum of atomic charges:   -0.0000000

LOEWDIN ATOMIC CHARGES
----------------------
   0 C :    0.035143
   1 N :    0.185548
   2 C :   -0.098996
   3 N :    0.172415
   4 C :    0.107227
   5 N :   -0.147284
   6 C :   -0.008988
   7 N :    0.177698
   8 C :    0.032125
   9 N :   -0.138811
  10 C :    0.038773
  11 N :    0.139948
  12 C :   -0.097439
  13 N :    0.115529
  14 C :   -0.060178
  15 N :    0.135133
  16 C :   -0.019943
  17 C :   -0.012048
  18 C :   -0.118792
  19 C :   -0.089831
  20 C :   -0.016288
  21 C :   -0.099639
  22 C :    0.034952
  23 C :   -0.032558
  24 C :    0.006997
  25 C :    0.029390
  26 C :   -0.093317
  27 C :   -0.058062
  28 C :   -0.015417
  29 C :   -0.118401
  30 C :   -0.063383
  31 C :   -0.024801
  32 C :   -0.101931
  33 C :   -0.002879
  34 C :   -0.026591
  35 C :   -0.032308
  36 C :    0.023594
  37 C :   -0.109669
  38 C :   -0.030887
  39 C :   -0.033563
  40 C :   -0.113374
  41 C :   -0.092435
  42 C :    0.000363
  43 C :   -0.112888
  44 C :    0.027806
  45 C :   -0.014795
  46 C :   -0.021983
  47 C :    0.028311
  48 C :   -0.113087
  49 C :   -0.115166
  50 C :   -0.032753
  51 C :   -0.107748
  52 H :    0.040743
  53 H :    0.007400
  54 H :    0.054726
  55 H :    0.040395
  56 H :    0.038412
  57 H :    0.038907
  58 H :    0.038486
  59 H :   -0.000217
  60 H :    0.054175
  61 H :    0.062547
  62 H :    0.057897
  63 H :    0.028901
  64 H :   -0.005115
  65 H :    0.042153
  66 H :    0.030011
  67 H :    0.026534
  68 H :    0.031133
  69 H :    0.031278
  70 H :    0.002528
  71 H :    0.045438
  72 H :    0.022640
  73 H :    0.001677
  74 H :    0.038204
  75 H :    0.021729
  76 H :    0.020584
  77 H :    0.026311
  78 H :    0.026015
  79 H :    0.005379
  80 H :    0.037421
  81 H :    0.028053
  82 H :   -0.001211
  83 H :    0.044144
  84 H :    0.027001
  85 H :    0.024509
  86 H :    0.030388
  87 H :    0.030168
  88 H :   -0.004797
  89 H :    0.040735

  Mayer bond orders larger than 0.100000
B(  0-C ,  1-N ) :   1.1920 B(  0-C , 17-C ) :   1.5380 B(  0-C , 52-H ) :   0.9673
B(  1-N ,  8-C ) :   1.1863 B(  1-N , 10-C ) :   0.9311 B(  2-C , 12-C ) :   1.5728
B(  2-C , 16-C ) :   1.2820 B(  2-C , 53-H ) :   0.9791 B(  3-N , 14-C ) :   1.1788
B(  3-N , 16-C ) :   1.2023 B(  3-N , 61-H ) :   0.8955 B(  4-C ,  6-C ) :   1.3460
B(  4-C , 17-C ) :   1.3445 B(  4-C , 18-C ) :   1.0834 B(  5-N , 19-C ) :   1.3702
B(  5-N , 27-C ) :   1.4444 B(  6-C ,  8-C ) :   1.5365 B(  6-C , 54-H ) :   0.9706
B(  7-N , 30-C ) :   1.1862 B(  7-N , 38-C ) :   1.2135 B(  7-N , 62-H ) :   0.9011
B(  8-C , 55-H ) :   0.9680 B(  9-N , 41-C ) :   1.4330 B(  9-N , 49-C ) :   1.3940
B( 10-C , 56-H ) :   0.9765 B( 10-C , 57-H ) :   0.9807 B( 10-C , 58-H ) :   0.9820
B( 11-N , 20-C ) :   1.1014 B( 11-N , 24-C ) :   1.1339 B( 11-N , 25-C ) :   0.9614
B( 12-C , 14-C ) :   1.2818 B( 12-C , 59-H ) :   0.9770 B( 13-N , 31-C ) :   1.0863
B( 13-N , 35-C ) :   1.0772 B( 13-N , 36-C ) :   0.9798 B( 14-C , 18-C ) :   1.2511
B( 15-N , 42-C ) :   1.1254 B( 15-N , 46-C ) :   1.0926 B( 15-N , 47-C ) :   0.9657
B( 16-C , 51-C ) :   1.2381 B( 17-C , 60-H ) :   0.9711 B( 18-C , 19-C ) :   1.3003
B( 19-C , 21-C ) :   1.1683 B( 20-C , 28-C ) :   1.6277 B( 20-C , 63-H ) :   0.9708
B( 21-C , 26-C ) :   1.6775 B( 21-C , 64-H ) :   0.9717 B( 22-C , 23-C ) :   1.2598
B( 22-C , 28-C ) :   1.2796 B( 22-C , 29-C ) :   1.2544 B( 23-C , 24-C ) :   1.6320
B( 23-C , 65-H ) :   0.9721 B( 24-C , 66-H ) :   0.9690 B( 25-C , 67-H ) :   0.9763
B( 25-C , 68-H ) :   0.9833 B( 25-C , 69-H ) :   0.9819 B( 26-C , 27-C ) :   1.1769
B( 26-C , 70-H ) :   0.9754 B( 27-C , 29-C ) :   1.2408 B( 28-C , 71-H ) :   0.9709
B( 29-C , 30-C ) :   1.1774 B( 30-C , 32-C ) :   1.3486 B( 31-C , 39-C ) :   1.6784
B( 31-C , 72-H ) :   0.9708 B( 32-C , 37-C ) :   1.5108 B( 32-C , 73-H ) :   0.9772
B( 33-C , 34-C ) :   1.2370 B( 33-C , 39-C ) :   1.2300 B( 33-C , 40-C ) :   1.3452
B( 34-C , 35-C ) :   1.6769 B( 34-C , 74-H ) :   0.9710 B( 35-C , 75-H ) :   0.9707
B( 36-C , 76-H ) :   0.9756 B( 36-C , 77-H ) :   0.9825 B( 36-C , 78-H ) :   0.9837
B( 37-C , 38-C ) :   1.3438 B( 37-C , 79-H ) :   0.9791 B( 38-C , 40-C ) :   1.1800
B( 39-C , 80-H ) :   0.9721 B( 40-C , 41-C ) :   1.1754 B( 41-C , 43-C ) :   1.2491
B( 42-C , 50-C ) :   1.6405 B( 42-C , 81-H ) :   0.9696 B( 43-C , 48-C ) :   1.6021
B( 43-C , 82-H ) :   0.9754 B( 44-C , 45-C ) :   1.2805 B( 44-C , 50-C ) :   1.2515
B( 44-C , 51-C ) :   1.2471 B( 45-C , 46-C ) :   1.6322 B( 45-C , 83-H ) :   0.9703
B( 46-C , 84-H ) :   0.9708 B( 47-C , 85-H ) :   0.9760 B( 47-C , 86-H ) :   0.9826
B( 47-C , 87-H ) :   0.9829 B( 48-C , 49-C ) :   1.2439 B( 48-C , 88-H ) :   0.9728
B( 49-C , 51-C ) :   1.1970 B( 50-C , 89-H ) :   0.9721

MP2 TOTAL ENERGY:    -2130.880677413 Eh
FINAL SINGLE POINT ENERGY     -2130.880677412907

DIPOLE MOMENT
-------------
                                X             Y             Z
Electronic contribution:     -3.93928       4.50176      -0.14895
Nuclear contribution   :     -0.03663       0.16068       0.19849
                        -----------------------------------------
Total Dipole Moment    :     -3.97591       4.66243       0.04954
                        -----------------------------------------
Magnitude (a.u.)       :      6.12769
Magnitude (Debye)      :     15.57535

Rotational constants in cm-1:     0.001498     0.001472     0.000763
Rotational constants in MHz :    44.909859    44.143450    22.865187

                             ****ORCA TERMINATED NORMALLY****
TOTAL RUN TIME: 0 days 1 hours 32 minutes 17 seconds 692 msec
