                         Program Version 5.0.4 -  RELEASE  -
|  1> ! PAL2
|  2> ! mp2 cc-pvdz TightSCF  NoKeepInts
|  3>
|  4> %scf
|  5>   MaxCore 2000
|  6> end
|  7> %mp2
|  8>   MaxCore 2000
|  9> end
| 10> * xyz 0 1
| 11>    C       -3.16300         6.39400         0.68000
| 12>    C        1.47400         4.04100         0.05700
| 13>    C       -2.80200         4.09300         0.04900
| 14>    C       -4.07600         4.10800        -0.54000
| 15>    C       -4.84300         5.25500        -0.50300
| 16>    C       -5.21800         7.59900         0.09200
| 17>    C        0.13200         4.30700         0.06100
| 18>    C       -0.56900         3.05600         0.04700
| 19>    C        1.64900         2.61800         0.02300
| 20>    C       -2.35600         5.27300         0.66400
| 21>    N       -4.38600         6.37500         0.10300
| 22>    N        0.38800         2.06700         0.02500
| 23>    N       -2.01000         0.39500        -0.07500
| 24>    N       -0.38800        -2.07400        -0.02700
| 25>    N        2.01000        -0.40100         0.06500
| 26>    C       -1.96000         2.86100         0.02400
| 27>    C       -2.62300         1.61500        -0.01800
| 28>    C       -5.57300        -4.32900         1.06600
| 29>    C       -4.07300         1.47100         0.05600
| 30>    C       -4.10600        -2.75600        -0.02600
| 31>    C       -4.99500        -2.75700        -1.11100
| 32>    C       -6.13200        -3.54200        -1.07600
| 33>    C       -7.65100        -5.11300         0.04000
| 34>    C       -4.32400         0.14100         0.03700
| 35>    C       -3.02500        -0.52000        -0.04800
| 36>    C       -4.42200        -3.56600         1.07500
| 37>    N       -6.40700        -4.31300         0.00100
| 38>    C       -2.86700        -1.92200        -0.04000
| 39>    C       -1.65000        -2.62400        -0.02700
| 40>    C        3.56800        -6.14200        -1.04000
| 41>    C       -1.47600        -4.04900        -0.03400
| 42>    C        2.80300        -4.09900        -0.00800
| 43>    C        3.65700        -4.38400         1.06900
| 44>    C        4.42700        -5.53000         1.05900
| 45>    C        5.24500        -7.58800         0.01400
| 46>    C       -0.13400        -4.31500        -0.02200
| 47>    C        0.56800        -3.06400        -0.02700
| 48>    C        2.77500        -5.01200        -1.07400
| 49>    N        4.37600        -6.39100         0.01700
| 50>    C        1.95900        -2.86900        -0.00900
| 51>    C        2.62100        -1.62200         0.00900
| 52>    C        5.54300         4.33900        -1.13000
| 53>    C        4.07000        -1.47900        -0.09400
| 54>    C        4.10400         2.75100        -0.02100
| 55>    C        5.02700         2.72900         1.03600
| 56>    C        6.16600         3.50900         0.97800
| 57>    C        7.61900         5.15300        -0.11500
| 58>    C        4.32100        -0.14800        -0.09200
| 59>    C        3.02500         0.51400         0.01500
| 60>    C        4.38700         3.58200        -1.11500
| 61>    C        2.86600         1.91600         0.01300
| 62>    N        6.41300         4.29600        -0.09500
| 63>    H       -2.86600         7.32200         1.15300
| 64>    H        2.27400         4.76600         0.08100
| 65>    H       -4.47100         3.23100        -1.03800
| 66>    H       -5.82700         5.31700        -0.95100
| 67>    H       -5.02900         8.14900        -0.83300
| 68>    H       -6.26700         7.31100         0.15000
| 69>    H       -4.95000         8.21200         0.95300
| 70>    H       -0.33200         5.28200         0.06900
| 71>    H       -1.38800         5.32100         1.14800
| 72>    H        0.18200         1.07200         0.00500
| 73>    H       -0.18300        -1.08000        -0.02100
| 74>    H       -5.86400        -4.96200         1.89500
| 75>    H       -4.79400         2.27200         0.13900
| 76>    H       -4.80000        -2.16000        -1.99400
| 77>    H       -6.84100        -3.58200        -1.89300
| 78>    H       -8.42800        -4.53600         0.54600
| 79>    H       -7.95600        -5.33700        -0.98100
| 80>    H       -7.45600        -6.03700         0.58400
| 81>    H       -5.28700        -0.34400         0.10000
| 82>    H       -3.78000        -3.60100         1.94700
| 83>    H        3.58700        -6.86800        -1.84300
| 84>    H       -2.27600        -4.77400        -0.05000
| 85>    H        3.71400        -3.72400         1.92600
| 86>    H        5.09200        -5.79500         1.87100
| 87>    H        6.20500        -7.32900        -0.43900
| 88>    H        5.39300        -7.91700         1.04200
| 89>    H        4.75900        -8.37300        -0.56400
| 90>    H        0.32900        -5.29000        -0.00800
| 91>    H        2.14600        -4.84200        -1.94000
| 92>    H        5.80800         4.98600        -1.95600
| 93>    H        4.78800        -2.28100        -0.18500
| 94>    H        4.86000         2.11400         1.91200
| 95>    H        6.90100         3.53100         1.77200
| 96>    H        7.38300         6.10900         0.35600
| 97>    H        8.41400         4.65200         0.43500
| 98>    H        7.92100         5.31000        -1.15000
| 99>    H        5.28300         0.33600        -0.17900
|100>    H        3.72000         3.63200        -1.96700
|101> *
|102>
|103>                          ****END OF INPUT****

CARTESIAN COORDINATES (ANGSTROEM)
---------------------------------
  C     -3.163000    6.394000    0.680000
  C      1.474000    4.041000    0.057000
  C     -2.802000    4.093000    0.049000
  C     -4.076000    4.108000   -0.540000
  C     -4.843000    5.255000   -0.503000
  C     -5.218000    7.599000    0.092000
  C      0.132000    4.307000    0.061000
  C     -0.569000    3.056000    0.047000
  C      1.649000    2.618000    0.023000
  C     -2.356000    5.273000    0.664000
  N     -4.386000    6.375000    0.103000
  N      0.388000    2.067000    0.025000
  N     -2.010000    0.395000   -0.075000
  N     -0.388000   -2.074000   -0.027000
  N      2.010000   -0.401000    0.065000
  C     -1.960000    2.861000    0.024000
  C     -2.623000    1.615000   -0.018000
  C     -5.573000   -4.329000    1.066000
  C     -4.073000    1.471000    0.056000
  C     -4.106000   -2.756000   -0.026000
  C     -4.995000   -2.757000   -1.111000
  C     -6.132000   -3.542000   -1.076000
  C     -7.651000   -5.113000    0.040000
  C     -4.324000    0.141000    0.037000
  C     -3.025000   -0.520000   -0.048000
  C     -4.422000   -3.566000    1.075000
  N     -6.407000   -4.313000    0.001000
  C     -2.867000   -1.922000   -0.040000
  C     -1.650000   -2.624000   -0.027000
  C      3.568000   -6.142000   -1.040000
  C     -1.476000   -4.049000   -0.034000
  C      2.803000   -4.099000   -0.008000
  C      3.657000   -4.384000    1.069000
  C      4.427000   -5.530000    1.059000
  C      5.245000   -7.588000    0.014000
  C     -0.134000   -4.315000   -0.022000
  C      0.568000   -3.064000   -0.027000
  C      2.775000   -5.012000   -1.074000
  N      4.376000   -6.391000    0.017000
  C      1.959000   -2.869000   -0.009000
  C      2.621000   -1.622000    0.009000
  C      5.543000    4.339000   -1.130000
  C      4.070000   -1.479000   -0.094000
  C      4.104000    2.751000   -0.021000
  C      5.027000    2.729000    1.036000
  C      6.166000    3.509000    0.978000
  C      7.619000    5.153000   -0.115000
  C      4.321000   -0.148000   -0.092000
  C      3.025000    0.514000    0.015000
  C      4.387000    3.582000   -1.115000
  C      2.866000    1.916000    0.013000
  N      6.413000    4.296000   -0.095000
  H     -2.866000    7.322000    1.153000
  H      2.274000    4.766000    0.081000
  H     -4.471000    3.231000   -1.038000
  H     -5.827000    5.317000   -0.951000
  H     -5.029000    8.149000   -0.833000
  H     -6.267000    7.311000    0.150000
  H     -4.950000    8.212000    0.953000
  H     -0.332000    5.282000    0.069000
  H     -1.388000    5.321000    1.148000
  H      0.182000    1.072000    0.005000
  H     -0.183000   -1.080000   -0.021000
  H     -5.864000   -4.962000    1.895000
  H     -4.794000    2.272000    0.139000
  H     -4.800000   -2.160000   -1.994000
  H     -6.841000   -3.582000   -1.893000
  H     -8.428000   -4.536000    0.546000
  H     -7.956000   -5.337000   -0.981000
  H     -7.456000   -6.037000    0.584000
  H     -5.287000   -0.344000    0.100000
  H     -3.780000   -3.601000    1.947000
  H      3.587000   -6.868000   -1.843000
  H     -2.276000   -4.774000   -0.050000
  H      3.714000   -3.724000    1.926000
  H      5.092000   -5.795000    1.871000
  H      6.205000   -7.329000   -0.439000
  H      5.393000   -7.917000    1.042000
  H      4.759000   -8.373000   -0.564000
  H      0.329000   -5.290000   -0.008000
  H      2.146000   -4.842000   -1.940000
  H      5.808000    4.986000   -1.956000
  H      4.788000   -2.281000   -0.185000
  H      4.860000    2.114000    1.912000
  H      6.901000    3.531000    1.772000
  H      7.383000    6.109000    0.356000
  H      8.414000    4.652000    0.435000
  H      7.921000    5.310000   -1.150000
  H      5.283000    0.336000   -0.179000
  H      3.720000    3.632000   -1.967000

 Total Charge           Charge          ....    0
 Multiplicity           Mult            ....    1
 Number of Electrons    NEL             ....  358
 Basis Dimension        Dim             ....  918

ORBITAL ENERGIES
----------------

  NO   OCC          E(Eh)            E(eV)
   0   2.0000     -15.673904      -426.5086
   1   2.0000     -15.636977      -425.5038
   2   2.0000     -15.629049      -425.2880
   3   2.0000     -15.589655      -424.2161
   4   2.0000     -15.525300      -422.4649
   5   2.0000     -15.515745      -422.2049
   6   2.0000     -15.452077      -420.4724
   7   2.0000     -15.442584      -420.2141
   8   2.0000     -11.324951      -308.1676
   9   2.0000     -11.324298      -308.1498
  10   2.0000     -11.322962      -308.1135
  11   2.0000     -11.301212      -307.5216
  12   2.0000     -11.296572      -307.3954
  13   2.0000     -11.295200      -307.3580
  14   2.0000     -11.289629      -307.2064
  15   2.0000     -11.288491      -307.1755
  16   2.0000     -11.284434      -307.0651
  17   2.0000     -11.276550      -306.8505
  18   2.0000     -11.272486      -306.7399
  19   2.0000     -11.259281      -306.3806
  20   2.0000     -11.258332      -306.3548
  21   2.0000     -11.255915      -306.2890
  22   2.0000     -11.252794      -306.2041
  23   2.0000     -11.240659      -305.8739
  24   2.0000     -11.233870      -305.6891
  25   2.0000     -11.233479      -305.6785
  26   2.0000     -11.232899      -305.6627
  27   2.0000     -11.227647      -305.5198
  28   2.0000     -11.227332      -305.5112
  29   2.0000     -11.210891      -305.0639
  30   2.0000     -11.209416      -305.0237
  31   2.0000     -11.199046      -304.7415
  32   2.0000     -11.191369      -304.5326
  33   2.0000     -11.190800      -304.5171
  34   2.0000     -11.189381      -304.4785
  35   2.0000     -11.189034      -304.4691
  36   2.0000     -11.188724      -304.4607
  37   2.0000     -11.185054      -304.3608
  38   2.0000     -11.183966      -304.3312
  39   2.0000     -11.174417      -304.0713
  40   2.0000     -11.173493      -304.0462
  41   2.0000     -11.168772      -303.9178
  42   2.0000     -11.168722      -303.9164
  43   2.0000     -11.161592      -303.7223
  44   2.0000     -11.159852      -303.6750
  45   2.0000     -11.158427      -303.6362
  46   2.0000     -11.157850      -303.6205
  47   2.0000     -11.153336      -303.4977
  48   2.0000     -11.147109      -303.3282
  49   2.0000     -11.139329      -303.1165
  50   2.0000     -11.133326      -302.9532
  51   2.0000     -11.124334      -302.7085
  52   2.0000      -1.355375       -36.8816
  53   2.0000      -1.323836       -36.0234
  54   2.0000      -1.317196       -35.8427
  55   2.0000      -1.283914       -34.9371
  56   2.0000      -1.226069       -33.3630
  57   2.0000      -1.210073       -32.9278
  58   2.0000      -1.170929       -31.8626
  59   2.0000      -1.152944       -31.3732
  60   2.0000      -1.139441       -31.0058
  61   2.0000      -1.112414       -30.2703
  62   2.0000      -1.106955       -30.1218
  63   2.0000      -1.080054       -29.3898
  64   2.0000      -1.077441       -29.3186
  65   2.0000      -1.047934       -28.5157
  66   2.0000      -1.041960       -28.3532
  67   2.0000      -1.038427       -28.2570
  68   2.0000      -1.015109       -27.6225
  69   2.0000      -1.012767       -27.5588
  70   2.0000      -1.009324       -27.4651
  71   2.0000      -0.993413       -27.0321
  72   2.0000      -0.986636       -26.8477
  73   2.0000      -0.980195       -26.6725
  74   2.0000      -0.971840       -26.4451
  75   2.0000      -0.960295       -26.1310
  76   2.0000      -0.952830       -25.9278
  77   2.0000      -0.946238       -25.7485
  78   2.0000      -0.935217       -25.4486
  79   2.0000      -0.919059       -25.0089
  80   2.0000      -0.906396       -24.6643
  81   2.0000      -0.893844       -24.3227
  82   2.0000      -0.875459       -23.8225
  83   2.0000      -0.872608       -23.7449
  84   2.0000      -0.867824       -23.6147
  85   2.0000      -0.856282       -23.3006
  86   2.0000      -0.839442       -22.8424
  87   2.0000      -0.836769       -22.7696
  88   2.0000      -0.823665       -22.4131
  89   2.0000      -0.797902       -21.7120
  90   2.0000      -0.791401       -21.5351
  91   2.0000      -0.750392       -20.4192
  92   2.0000      -0.741492       -20.1770
  93   2.0000      -0.733364       -19.9558
  94   2.0000      -0.724464       -19.7137
  95   2.0000      -0.721115       -19.6225
  96   2.0000      -0.715673       -19.4745
  97   2.0000      -0.710622       -19.3370
  98   2.0000      -0.705970       -19.2104
  99   2.0000      -0.696907       -18.9638
 100   2.0000      -0.696173       -18.9438
 101   2.0000      -0.684030       -18.6134
 102   2.0000      -0.680457       -18.5162
 103   2.0000      -0.679585       -18.4924
 104   2.0000      -0.676773       -18.4159
 105   2.0000      -0.671828       -18.2814
 106   2.0000      -0.668910       -18.2020
 107   2.0000      -0.661481       -17.9998
 108   2.0000      -0.655243       -17.8301
 109   2.0000      -0.654135       -17.7999
 110   2.0000      -0.649306       -17.6685
 111   2.0000      -0.643059       -17.4985
 112   2.0000      -0.641866       -17.4661
 113   2.0000      -0.640215       -17.4211
 114   2.0000      -0.636923       -17.3315
 115   2.0000      -0.626403       -17.0453
 116   2.0000      -0.623663       -16.9707
 117   2.0000      -0.617660       -16.8074
 118   2.0000      -0.614727       -16.7276
 119   2.0000      -0.613187       -16.6857
 120   2.0000      -0.609346       -16.5811
 121   2.0000      -0.607607       -16.5338
 122   2.0000      -0.599371       -16.3097
 123   2.0000      -0.586203       -15.9514
 124   2.0000      -0.583130       -15.8678
 125   2.0000      -0.580678       -15.8011
 126   2.0000      -0.578670       -15.7464
 127   2.0000      -0.576757       -15.6944
 128   2.0000      -0.567179       -15.4337
 129   2.0000      -0.558850       -15.2071
 130   2.0000      -0.550544       -14.9811
 131   2.0000      -0.547683       -14.9032
 132   2.0000      -0.543597       -14.7920
 133   2.0000      -0.540921       -14.7192
 134   2.0000      -0.539514       -14.6809
 135   2.0000      -0.534370       -14.5409
 136   2.0000      -0.527069       -14.3423
 137   2.0000      -0.522619       -14.2212
 138   2.0000      -0.518271       -14.1029
 139   2.0000      -0.513515       -13.9735
 140   2.0000      -0.512100       -13.9349
 141   2.0000      -0.510436       -13.8897
 142   2.0000      -0.510241       -13.8844
 143   2.0000      -0.503552       -13.7024
 144   2.0000      -0.500674       -13.6240
 145   2.0000      -0.496213       -13.5027
 146   2.0000      -0.493904       -13.4398
 147   2.0000      -0.483498       -13.1566
 148   2.0000      -0.479165       -13.0387
 149   2.0000      -0.466734       -12.7005
 150   2.0000      -0.465940       -12.6789
 151   2.0000      -0.457312       -12.4441
 152   2.0000      -0.450032       -12.2460
 153   2.0000      -0.446163       -12.1407
 154   2.0000      -0.441905       -12.0248
 155   2.0000      -0.432421       -11.7668
 156   2.0000      -0.428954       -11.6724
 157   2.0000      -0.420819       -11.4511
 158   2.0000      -0.405700       -11.0396
 159   2.0000      -0.387000       -10.5308
 160   2.0000      -0.383779       -10.4432
 161   2.0000      -0.378317       -10.2945
 162   2.0000      -0.371213       -10.1012
 163   2.0000      -0.358768        -9.7626
 164   2.0000      -0.353888        -9.6298
 165   2.0000      -0.339930        -9.2500
 166   2.0000      -0.337754        -9.1908
 167   2.0000      -0.327081        -8.9003
 168   2.0000      -0.324114        -8.8196
 169   2.0000      -0.305050        -8.3008
 170   2.0000      -0.299463        -8.1488
 171   2.0000      -0.285648        -7.7729
 172   2.0000      -0.281586        -7.6623
 173   2.0000      -0.262015        -7.1298
 174   2.0000      -0.243392        -6.6230
 175   2.0000      -0.190001        -5.1702
 176   2.0000      -0.180400        -4.9089
 177   2.0000      -0.076220        -2.0741
 178   2.0000      -0.058519        -1.5924
 179   0.0000       0.028363         0.7718
 180   0.0000       0.066095         1.7985
 181   0.0000       0.091324         2.4850
 182   0.0000       0.109738         2.9861
 183   0.0000       0.110658         3.0111

MULLIKEN ATOMIC CHARGES
-----------------------
   0 C :    0.211970
   1 N :   -0.455620
   2 C :   -0.068202
   3 N :   -0.337409
   4 C :   -0.055574
   5 N :   -0.562206
   6 C :   -0.114367
   7 N :   -0.340405
   8 C :    0.205251
   9 N :   -0.562620
  10 C :    0.118753
  11 N :   -0.437886
  12 C :   -0.078790
  13 N :   -0.430773
  14 C :    0.220504
  15 N :   -0.441469
  16 C :    0.230436
  17 C :   -0.123557
  18 C :   -0.160847
  19 C :    0.206130
  20 C :    0.214062
  21 C :   -0.091943
  22 C :   -0.089077
  23 C :   -0.040828
  24 C :    0.196040
  25 C :    0.114208
  26 C :   -0.078514
  27 C :    0.212248
  28 C :   -0.060327
  29 C :   -0.181115
  30 C :    0.244632
  31 C :    0.228787
  32 C :   -0.061481
  33 C :   -0.063241
  34 C :   -0.049856
  35 C :    0.224119
  36 C :    0.109008
  37 C :   -0.064576
  38 C :    0.232937
  39 C :   -0.059106
  40 C :   -0.181513
  41 C :    0.224020
  42 C :    0.197321
  43 C :   -0.072784
  44 C :   -0.091052
  45 C :   -0.060645
  46 C :    0.209387
  47 C :    0.115679
  48 C :   -0.068222
  49 C :    0.236975
  50 C :   -0.047127
  51 C :   -0.193922
  52 H :    0.039780
  53 H :   -0.016867
  54 H :    0.053235
  55 H :    0.037904
  56 H :    0.048932
  57 H :    0.048676
  58 H :    0.047122
  59 H :    0.001288
  60 H :    0.050080
  61 H :    0.170991
  62 H :    0.175449
  63 H :    0.056363
  64 H :   -0.003966
  65 H :    0.046987
  66 H :    0.056480
  67 H :    0.063261
  68 H :    0.057721
  69 H :    0.057192
  70 H :   -0.028467
  71 H :    0.046073
  72 H :    0.069543
  73 H :   -0.008477
  74 H :    0.058792
  75 H :    0.068805
  76 H :    0.073394
  77 H :    0.066784
  78 H :    0.065955
  79 H :   -0.015738
  80 H :    0.059417
  81 H :    0.053736
  82 H :   -0.025156
  83 H :    0.041095
  84 H :    0.053197
  85 H :    0.059982
  86 H :    0.055093
  87 H :    0.056752
  88 H :   -0.015275
  89 H :    0.046454
Sum of atomic charges:   -0.0000000

LOEWDIN ATOMIC CHARGES
----------------------
   0 C :   -0.018996
   1 N :    0.116070
   2 C :   -0.102264
   3 N :    0.183334
   4 C :   -0.009476
   5 N :   -0.130676
   6 C :   -0.038095
   7 N :    0.175603
   8 C :   -0.025931
   9 N :   -0.140409
  10 C :    0.023819
  11 N :    0.143404
  12 C :   -0.113499
  13 N :    0.163127
  14 C :   -0.030299
  15 N :    0.137530
  16 C :   -0.057745
  17 C :   -0.046315
  18 C :   -0.101708
  19 C :   -0.083134
  20 C :    0.005509
  21 C :   -0.119282
  22 C :    0.039064
  23 C :   -0.015152
  24 C :   -0.010194
  25 C :    0.030172
  26 C :   -0.108313
  27 C :   -0.115447
  28 C :   -0.026205
  29 C :   -0.098944
  30 C :   -0.032734
  31 C :    0.022359
  32 C :   -0.093726
  33 C :    0.076568
  34 C :   -0.014964
  35 C :    0.018536
  36 C :    0.034538
  37 C :   -0.094929
  38 C :   -0.049042
  39 C :   -0.019118
  40 C :   -0.108109
  41 C :   -0.093616
  42 C :   -0.010709
  43 C :   -0.100323
  44 C :    0.031293
  45 C :   -0.028033
  46 C :   -0.000343
  47 C :    0.029203
  48 C :   -0.096788
  49 C :   -0.071432
  50 C :   -0.019520
  51 C :   -0.109966
  52 H :    0.023686
  53 H :    0.002949
  54 H :    0.041606
  55 H :    0.023319
  56 H :    0.021507
  57 H :    0.026607
  58 H :    0.027041
  59 H :    0.011082
  60 H :    0.039506
  61 H :    0.059971
  62 H :    0.061831
  63 H :    0.031204
  64 H :    0.007540
  65 H :    0.045794
  66 H :    0.029679
  67 H :    0.028642
  68 H :    0.031852
  69 H :    0.030679
  70 H :   -0.004060
  71 H :    0.044080
  72 H :    0.036919
  73 H :    0.006892
  74 H :    0.050069
  75 H :    0.036400
  76 H :    0.033999
  77 H :    0.035613
  78 H :    0.035248
  79 H :    0.003369
  80 H :    0.049864
  81 H :    0.028816
  82 H :   -0.002860
  83 H :    0.042197
  84 H :    0.029388
  85 H :    0.026944
  86 H :    0.029957
  87 H :    0.031190
  88 H :    0.002011
  89 H :    0.044774

  Mayer bond orders larger than 0.100000
B(  0-C ,  1-N ) :   1.0950 B(  0-C , 17-C ) :   1.7062 B(  0-C , 52-H ) :   0.9662
B(  1-N ,  8-C ) :   1.0838 B(  1-N , 10-C ) :   0.9778 B(  2-C , 12-C ) :   1.5062
B(  2-C , 16-C ) :   1.3563 B(  2-C , 53-H ) :   0.9757 B(  3-N , 14-C ) :   1.2179
B(  3-N , 16-C ) :   1.1908 B(  3-N , 61-H ) :   0.8994 B(  4-C ,  6-C ) :   1.2124
B(  4-C , 17-C ) :   1.2111 B(  4-C , 18-C ) :   1.4358 B(  5-N , 19-C ) :   1.4527
B(  5-N , 27-C ) :   1.3793 B(  6-C ,  8-C ) :   1.7103 B(  6-C , 54-H ) :   0.9549
B(  7-N , 30-C ) :   1.1940 B(  7-N , 38-C ) :   1.1924 B(  7-N , 62-H ) :   0.8968
B(  8-C , 55-H ) :   0.9676 B(  9-N , 41-C ) :   1.3931 B(  9-N , 49-C ) :   1.4274
B( 10-C , 56-H ) :   0.9769 B( 10-C , 57-H ) :   0.9831 B( 10-C , 58-H ) :   0.9835
B( 11-N , 20-C ) :   1.1318 B( 11-N , 24-C ) :   1.1105 B( 11-N , 25-C ) :   0.9590
B( 12-C , 14-C ) :   1.3561 B( 12-C , 59-H ) :   0.9733 B( 13-N , 31-C ) :   1.1578
B( 13-N , 35-C ) :   1.1529 B( 13-N , 36-C ) :   0.9437 B( 14-C , 18-C ) :   1.1301
B( 15-N , 42-C ) :   1.1070 B( 15-N , 46-C ) :   1.1212 B( 15-N , 47-C ) :   0.9623
B( 16-C , 51-C ) :   1.1719 B( 17-C , 60-H ) :   0.9550 B( 18-C , 19-C ) :   1.1321
B( 19-C , 21-C ) :   1.2446 B( 20-C , 28-C ) :   1.6260 B( 20-C , 63-H ) :   0.9702
B( 21-C , 26-C ) :   1.6097 B( 21-C , 64-H ) :   0.9710 B( 22-C , 23-C ) :   1.2907
B( 22-C , 28-C ) :   1.2671 B( 22-C , 29-C ) :   1.2210 B( 23-C , 24-C ) :   1.6176
B( 23-C , 65-H ) :   0.9704 B( 24-C , 66-H ) :   0.9694 B( 25-C , 67-H ) :   0.9760
B( 25-C , 68-H ) :   0.9828 B( 25-C , 69-H ) :   0.9823 B( 26-C , 27-C ) :   1.2394
B( 26-C , 70-H ) :   0.9701 B( 27-C , 29-C ) :   1.2135 B( 28-C , 71-H ) :   0.9719
B( 29-C , 30-C ) :   1.2426 B( 30-C , 32-C ) :   1.2819 B( 31-C , 39-C ) :   1.5936
B( 31-C , 72-H ) :   0.9683 B( 32-C , 37-C ) :   1.5775 B( 32-C , 73-H ) :   0.9784
B( 33-C , 34-C ) :   1.3044 B( 33-C , 39-C ) :   1.2984 B( 33-C , 40-C ) :   1.1837
B( 34-C , 35-C ) :   1.5902 B( 34-C , 74-H ) :   0.9697 B( 35-C , 75-H ) :   0.9683
B( 36-C , 76-H ) :   0.9767 B( 36-C , 77-H ) :   0.9816 B( 36-C , 78-H ) :   0.9824
B( 37-C , 38-C ) :   1.2862 B( 37-C , 79-H ) :   0.9767 B( 38-C , 40-C ) :   1.2321
B( 39-C , 80-H ) :   0.9707 B( 40-C , 41-C ) :   1.2466 B( 41-C , 43-C ) :   1.1900
B( 42-C , 50-C ) :   1.6358 B( 42-C , 81-H ) :   0.9697 B( 43-C , 48-C ) :   1.6620
B( 43-C , 82-H ) :   0.9722 B( 44-C , 45-C ) :   1.2624 B( 44-C , 50-C ) :   1.2694
B( 44-C , 51-C ) :   1.2648 B( 45-C , 46-C ) :   1.6368 B( 45-C , 83-H ) :   0.9718
B( 46-C , 84-H ) :   0.9701 B( 47-C , 85-H ) :   0.9762 B( 47-C , 86-H ) :   0.9829
B( 47-C , 87-H ) :   0.9825 B( 48-C , 49-C ) :   1.1934 B( 48-C , 88-H ) :   0.9748
B( 49-C , 51-C ) :   1.2372 B( 50-C , 89-H ) :   0.9709

MP2 TOTAL ENERGY:    -2130.890621050 Eh
FINAL SINGLE POINT ENERGY     -2130.890621050194

DIPOLE MOMENT
-------------
                                X             Y             Z
Electronic contribution:      2.23091      -4.05481      -0.06539
Nuclear contribution   :     -0.00873       0.18226       0.07499
                        -----------------------------------------
Total Dipole Moment    :      2.22218      -3.87255       0.00960
                        -----------------------------------------
Magnitude (a.u.)       :      4.46484
Magnitude (Debye)      :     11.34873

Rotational constants in cm-1:     0.001502     0.001476     0.000761
Rotational constants in MHz :    45.035614    44.256417    22.802578

                             ****ORCA TERMINATED NORMALLY****
TOTAL RUN TIME: 0 days 1 hours 4 minutes 1 seconds 874 msec
