                         Program Version 5.0.4 -  RELEASE  -
|  1> ! PAL2
|  2> ! mp2 cc-pvdz TightSCF  NoKeepInts
|  3>
|  4> %scf
|  5>   MaxCore 2000
|  6> end
|  7> %mp2
|  8>   MaxCore 2000
|  9> end
| 10> * xyz 0 1
| 11>    C       -3.87500         5.89600         1.24100
| 12>    C        1.47400         4.04100         0.05700
| 13>    C       -2.80200         4.09300         0.04900
| 14>    C       -3.34600         4.61900        -1.13300
| 15>    C       -4.12700         5.75600        -1.09100
| 16>    C       -5.19400         7.61500         0.09000
| 17>    C        0.13200         4.30700         0.06100
| 18>    C       -0.56900         3.05600         0.04700
| 19>    C        1.64900         2.61800         0.02300
| 20>    C       -3.08300         4.76400         1.24900
| 21>    N       -4.38500         6.37700         0.08400
| 22>    N        0.38800         2.06700         0.02500
| 23>    N       -2.01000         0.39500        -0.07500
| 24>    N       -0.38800        -2.07400        -0.02700
| 25>    N        2.01000        -0.40100         0.06500
| 26>    C       -1.96000         2.86100         0.02400
| 27>    C       -2.62300         1.61500        -0.01800
| 28>    C       -5.57300        -4.32900         1.06600
| 29>    C       -4.07300         1.47100         0.05600
| 30>    C       -4.10600        -2.75600        -0.02600
| 31>    C       -4.99500        -2.75700        -1.11100
| 32>    C       -6.13200        -3.54200        -1.07600
| 33>    C       -7.65100        -5.11300         0.04000
| 34>    C       -4.32400         0.14100         0.03700
| 35>    C       -3.02500        -0.52000        -0.04800
| 36>    C       -4.42200        -3.56600         1.07500
| 37>    N       -6.40700        -4.31300         0.00100
| 38>    C       -2.86700        -1.92200        -0.04000
| 39>    C       -1.65000        -2.62400        -0.02700
| 40>    C        3.56800        -6.14200        -1.04000
| 41>    C       -1.47600        -4.04900        -0.03400
| 42>    C        2.80300        -4.09900        -0.00800
| 43>    C        3.65700        -4.38400         1.06900
| 44>    C        4.42700        -5.53000         1.05900
| 45>    C        5.24500        -7.58800         0.01400
| 46>    C       -0.13400        -4.31500        -0.02200
| 47>    C        0.56800        -3.06400        -0.02700
| 48>    C        2.77500        -5.01200        -1.07400
| 49>    N        4.37600        -6.39100         0.01700
| 50>    C        1.95900        -2.86900        -0.00900
| 51>    C        2.62100        -1.62200         0.00900
| 52>    C        5.54300         4.33900        -1.13000
| 53>    C        4.07000        -1.47900        -0.09400
| 54>    C        4.10400         2.75100        -0.02100
| 55>    C        5.02700         2.72900         1.03600
| 56>    C        6.16600         3.50900         0.97800
| 57>    C        7.61900         5.15300        -0.11500
| 58>    C        4.32100        -0.14800        -0.09200
| 59>    C        3.02500         0.51400         0.01500
| 60>    C        4.38700         3.58200        -1.11500
| 61>    C        2.86600         1.91600         0.01300
| 62>    N        6.41300         4.29600        -0.09500
| 63>    H       -4.12800         6.43900         2.14300
| 64>    H        2.27400         4.76600         0.08100
| 65>    H       -3.15700         4.15100        -2.09200
| 66>    H       -4.56100         6.20300        -1.97600
| 67>    H       -4.53900         8.46900        -0.09700
| 68>    H       -5.95100         7.54500        -0.69100
| 69>    H       -5.67200         7.71700         1.06500
| 70>    H       -0.33200         5.28200         0.06900
| 71>    H       -2.70400         4.40000         2.19700
| 72>    H        0.18200         1.07200         0.00500
| 73>    H       -0.18300        -1.08000        -0.02100
| 74>    H       -5.86400        -4.96200         1.89500
| 75>    H       -4.79400         2.27200         0.13900
| 76>    H       -4.80000        -2.16000        -1.99400
| 77>    H       -6.84100        -3.58200        -1.89300
| 78>    H       -8.42800        -4.53600         0.54600
| 79>    H       -7.95600        -5.33700        -0.98100
| 80>    H       -7.45600        -6.03700         0.58400
| 81>    H       -5.28700        -0.34400         0.10000
| 82>    H       -3.78000        -3.60100         1.94700
| 83>    H        3.58700        -6.86800        -1.84300
| 84>    H       -2.27600        -4.77400        -0.05000
| 85>    H        3.71400        -3.72400         1.92600
| 86>    H        5.09200        -5.79500         1.87100
| 87>    H        6.20500        -7.32900        -0.43900
| 88>    H        5.39300        -7.91700         1.04200
| 89>    H        4.75900        -8.37300        -0.56400
| 90>    H        0.32900        -5.29000        -0.00800
| 91>    H        2.14600        -4.84200        -1.94000
| 92>    H        5.80800         4.98600        -1.95600
| 93>    H        4.78800        -2.28100        -0.18500
| 94>    H        4.86000         2.11400         1.91200
| 95>    H        6.90100         3.53100         1.77200
| 96>    H        7.38300         6.10900         0.35600
| 97>    H        8.41400         4.65200         0.43500
| 98>    H        7.92100         5.31000        -1.15000
| 99>    H        5.28300         0.33600        -0.17900
|100>    H        3.72000         3.63200        -1.96700
|101> *
|102>
|103>                          ****END OF INPUT****

CARTESIAN COORDINATES (ANGSTROEM)
---------------------------------
  C     -3.875000    5.896000    1.241000
  C      1.474000    4.041000    0.057000
  C     -2.802000    4.093000    0.049000
  C     -3.346000    4.619000   -1.133000
  C     -4.127000    5.756000   -1.091000
  C     -5.194000    7.615000    0.090000
  C      0.132000    4.307000    0.061000
  C     -0.569000    3.056000    0.047000
  C      1.649000    2.618000    0.023000
  C     -3.083000    4.764000    1.249000
  N     -4.385000    6.377000    0.084000
  N      0.388000    2.067000    0.025000
  N     -2.010000    0.395000   -0.075000
  N     -0.388000   -2.074000   -0.027000
  N      2.010000   -0.401000    0.065000
  C     -1.960000    2.861000    0.024000
  C     -2.623000    1.615000   -0.018000
  C     -5.573000   -4.329000    1.066000
  C     -4.073000    1.471000    0.056000
  C     -4.106000   -2.756000   -0.026000
  C     -4.995000   -2.757000   -1.111000
  C     -6.132000   -3.542000   -1.076000
  C     -7.651000   -5.113000    0.040000
  C     -4.324000    0.141000    0.037000
  C     -3.025000   -0.520000   -0.048000
  C     -4.422000   -3.566000    1.075000
  N     -6.407000   -4.313000    0.001000
  C     -2.867000   -1.922000   -0.040000
  C     -1.650000   -2.624000   -0.027000
  C      3.568000   -6.142000   -1.040000
  C     -1.476000   -4.049000   -0.034000
  C      2.803000   -4.099000   -0.008000
  C      3.657000   -4.384000    1.069000
  C      4.427000   -5.530000    1.059000
  C      5.245000   -7.588000    0.014000
  C     -0.134000   -4.315000   -0.022000
  C      0.568000   -3.064000   -0.027000
  C      2.775000   -5.012000   -1.074000
  N      4.376000   -6.391000    0.017000
  C      1.959000   -2.869000   -0.009000
  C      2.621000   -1.622000    0.009000
  C      5.543000    4.339000   -1.130000
  C      4.070000   -1.479000   -0.094000
  C      4.104000    2.751000   -0.021000
  C      5.027000    2.729000    1.036000
  C      6.166000    3.509000    0.978000
  C      7.619000    5.153000   -0.115000
  C      4.321000   -0.148000   -0.092000
  C      3.025000    0.514000    0.015000
  C      4.387000    3.582000   -1.115000
  C      2.866000    1.916000    0.013000
  N      6.413000    4.296000   -0.095000
  H     -4.128000    6.439000    2.143000
  H      2.274000    4.766000    0.081000
  H     -3.157000    4.151000   -2.092000
  H     -4.561000    6.203000   -1.976000
  H     -4.539000    8.469000   -0.097000
  H     -5.951000    7.545000   -0.691000
  H     -5.672000    7.717000    1.065000
  H     -0.332000    5.282000    0.069000
  H     -2.704000    4.400000    2.197000
  H      0.182000    1.072000    0.005000
  H     -0.183000   -1.080000   -0.021000
  H     -5.864000   -4.962000    1.895000
  H     -4.794000    2.272000    0.139000
  H     -4.800000   -2.160000   -1.994000
  H     -6.841000   -3.582000   -1.893000
  H     -8.428000   -4.536000    0.546000
  H     -7.956000   -5.337000   -0.981000
  H     -7.456000   -6.037000    0.584000
  H     -5.287000   -0.344000    0.100000
  H     -3.780000   -3.601000    1.947000
  H      3.587000   -6.868000   -1.843000
  H     -2.276000   -4.774000   -0.050000
  H      3.714000   -3.724000    1.926000
  H      5.092000   -5.795000    1.871000
  H      6.205000   -7.329000   -0.439000
  H      5.393000   -7.917000    1.042000
  H      4.759000   -8.373000   -0.564000
  H      0.329000   -5.290000   -0.008000
  H      2.146000   -4.842000   -1.940000
  H      5.808000    4.986000   -1.956000
  H      4.788000   -2.281000   -0.185000
  H      4.860000    2.114000    1.912000
  H      6.901000    3.531000    1.772000
  H      7.383000    6.109000    0.356000
  H      8.414000    4.652000    0.435000
  H      7.921000    5.310000   -1.150000
  H      5.283000    0.336000   -0.179000
  H      3.720000    3.632000   -1.967000

 Total Charge           Charge          ....    0
 Multiplicity           Mult            ....    1
 Number of Electrons    NEL             ....  358
 Basis Dimension        Dim             ....  918

ORBITAL ENERGIES
----------------

  NO   OCC          E(Eh)            E(eV)
   0   2.0000     -15.704940      -427.3531
   1   2.0000     -15.631317      -425.3497
   2   2.0000     -15.620639      -425.0592
   3   2.0000     -15.584507      -424.0760
   4   2.0000     -15.519469      -422.3062
   5   2.0000     -15.506126      -421.9431
   6   2.0000     -15.450169      -420.4205
   7   2.0000     -15.428864      -419.8407
   8   2.0000     -11.346233      -308.7467
   9   2.0000     -11.345586      -308.7291
  10   2.0000     -11.341606      -308.6208
  11   2.0000     -11.300455      -307.5010
  12   2.0000     -11.298016      -307.4347
  13   2.0000     -11.292301      -307.2791
  14   2.0000     -11.290833      -307.2392
  15   2.0000     -11.283447      -307.0382
  16   2.0000     -11.282478      -307.0118
  17   2.0000     -11.277700      -306.8818
  18   2.0000     -11.277412      -306.8740
  19   2.0000     -11.273861      -306.7774
  20   2.0000     -11.268206      -306.6235
  21   2.0000     -11.249873      -306.1246
  22   2.0000     -11.246217      -306.0251
  23   2.0000     -11.234945      -305.7184
  24   2.0000     -11.228704      -305.5486
  25   2.0000     -11.227838      -305.5250
  26   2.0000     -11.224851      -305.4437
  27   2.0000     -11.220284      -305.3194
  28   2.0000     -11.220032      -305.3126
  29   2.0000     -11.207942      -304.9836
  30   2.0000     -11.206905      -304.9554
  31   2.0000     -11.194193      -304.6095
  32   2.0000     -11.193419      -304.5884
  33   2.0000     -11.191281      -304.5302
  34   2.0000     -11.190729      -304.5152
  35   2.0000     -11.189983      -304.4949
  36   2.0000     -11.189885      -304.4923
  37   2.0000     -11.182706      -304.2969
  38   2.0000     -11.182587      -304.2937
  39   2.0000     -11.173778      -304.0539
  40   2.0000     -11.165952      -303.8410
  41   2.0000     -11.165790      -303.8366
  42   2.0000     -11.162911      -303.7582
  43   2.0000     -11.161055      -303.7078
  44   2.0000     -11.158764      -303.6454
  45   2.0000     -11.147853      -303.3485
  46   2.0000     -11.147196      -303.3306
  47   2.0000     -11.143475      -303.2294
  48   2.0000     -11.141793      -303.1836
  49   2.0000     -11.134736      -302.9916
  50   2.0000     -11.119607      -302.5799
  51   2.0000     -11.114857      -302.4506
  52   2.0000      -1.379549       -37.5394
  53   2.0000      -1.319092       -35.8943
  54   2.0000      -1.309344       -35.6291
  55   2.0000      -1.278687       -34.7948
  56   2.0000      -1.222240       -33.2588
  57   2.0000      -1.202432       -32.7198
  58   2.0000      -1.174365       -31.9561
  59   2.0000      -1.156783       -31.4777
  60   2.0000      -1.139472       -31.0066
  61   2.0000      -1.107946       -30.1488
  62   2.0000      -1.098852       -29.9013
  63   2.0000      -1.098691       -29.8969
  64   2.0000      -1.071981       -29.1701
  65   2.0000      -1.049666       -28.5629
  66   2.0000      -1.043357       -28.3912
  67   2.0000      -1.034148       -28.1406
  68   2.0000      -1.014125       -27.5957
  69   2.0000      -1.005687       -27.3661
  70   2.0000      -1.004367       -27.3302
  71   2.0000      -0.991648       -26.9841
  72   2.0000      -0.984099       -26.7787
  73   2.0000      -0.978818       -26.6350
  74   2.0000      -0.964797       -26.2535
  75   2.0000      -0.961466       -26.1628
  76   2.0000      -0.951424       -25.8896
  77   2.0000      -0.941934       -25.6313
  78   2.0000      -0.924746       -25.1636
  79   2.0000      -0.922070       -25.0908
  80   2.0000      -0.914693       -24.8901
  81   2.0000      -0.889273       -24.1984
  82   2.0000      -0.882369       -24.0105
  83   2.0000      -0.870092       -23.6764
  84   2.0000      -0.861511       -23.4429
  85   2.0000      -0.848447       -23.0874
  86   2.0000      -0.833310       -22.6755
  87   2.0000      -0.828559       -22.5462
  88   2.0000      -0.821463       -22.3531
  89   2.0000      -0.794955       -21.6318
  90   2.0000      -0.787919       -21.4404
  91   2.0000      -0.764770       -20.8104
  92   2.0000      -0.733544       -19.9607
  93   2.0000      -0.730063       -19.8660
  94   2.0000      -0.727495       -19.7961
  95   2.0000      -0.721597       -19.6357
  96   2.0000      -0.716668       -19.5015
  97   2.0000      -0.707253       -19.2453
  98   2.0000      -0.703557       -19.1448
  99   2.0000      -0.698944       -19.0192
 100   2.0000      -0.695664       -18.9300
 101   2.0000      -0.690189       -18.7810
 102   2.0000      -0.683896       -18.6097
 103   2.0000      -0.674594       -18.3566
 104   2.0000      -0.673142       -18.3171
 105   2.0000      -0.668834       -18.1999
 106   2.0000      -0.664048       -18.0697
 107   2.0000      -0.661296       -17.9948
 108   2.0000      -0.653226       -17.7752
 109   2.0000      -0.650777       -17.7085
 110   2.0000      -0.648606       -17.6495
 111   2.0000      -0.643529       -17.5113
 112   2.0000      -0.640409       -17.4264
 113   2.0000      -0.637819       -17.3559
 114   2.0000      -0.631488       -17.1837
 115   2.0000      -0.625849       -17.0302
 116   2.0000      -0.625401       -17.0180
 117   2.0000      -0.619640       -16.8613
 118   2.0000      -0.612732       -16.6733
 119   2.0000      -0.610749       -16.6193
 120   2.0000      -0.609541       -16.5865
 121   2.0000      -0.602189       -16.3864
 122   2.0000      -0.590730       -16.0746
 123   2.0000      -0.585624       -15.9356
 124   2.0000      -0.583895       -15.8886
 125   2.0000      -0.579590       -15.7714
 126   2.0000      -0.576075       -15.6758
 127   2.0000      -0.575704       -15.6657
 128   2.0000      -0.572101       -15.5677
 129   2.0000      -0.561480       -15.2786
 130   2.0000      -0.556724       -15.1492
 131   2.0000      -0.548084       -14.9141
 132   2.0000      -0.542193       -14.7538
 133   2.0000      -0.539361       -14.6768
 134   2.0000      -0.534146       -14.5348
 135   2.0000      -0.530286       -14.4298
 136   2.0000      -0.518484       -14.1087
 137   2.0000      -0.515835       -14.0366
 138   2.0000      -0.514672       -14.0049
 139   2.0000      -0.512423       -13.9437
 140   2.0000      -0.510318       -13.8865
 141   2.0000      -0.503342       -13.6966
 142   2.0000      -0.501839       -13.6557
 143   2.0000      -0.499904       -13.6031
 144   2.0000      -0.495293       -13.4776
 145   2.0000      -0.493780       -13.4364
 146   2.0000      -0.490571       -13.3491
 147   2.0000      -0.476312       -12.9611
 148   2.0000      -0.474771       -12.9192
 149   2.0000      -0.464981       -12.6528
 150   2.0000      -0.462152       -12.5758
 151   2.0000      -0.459767       -12.5109
 152   2.0000      -0.451308       -12.2807
 153   2.0000      -0.441443       -12.0123
 154   2.0000      -0.435014       -11.8373
 155   2.0000      -0.433303       -11.7908
 156   2.0000      -0.420916       -11.4537
 157   2.0000      -0.414525       -11.2798
 158   2.0000      -0.411346       -11.1933
 159   2.0000      -0.401244       -10.9184
 160   2.0000      -0.382454       -10.4071
 161   2.0000      -0.370490       -10.0815
 162   2.0000      -0.354978        -9.6594
 163   2.0000      -0.353996        -9.6327
 164   2.0000      -0.347005        -9.4425
 165   2.0000      -0.340134        -9.2555
 166   2.0000      -0.338810        -9.2195
 167   2.0000      -0.322434        -8.7739
 168   2.0000      -0.314149        -8.5484
 169   2.0000      -0.302274        -8.2253
 170   2.0000      -0.298400        -8.1199
 171   2.0000      -0.283409        -7.7119
 172   2.0000      -0.277830        -7.5601
 173   2.0000      -0.264917        -7.2087
 174   2.0000      -0.231656        -6.3037
 175   2.0000      -0.183732        -4.9996
 176   2.0000      -0.173748        -4.7279
 177   2.0000      -0.062276        -1.6946
 178   2.0000      -0.051092        -1.3903
 179   0.0000       0.034784         0.9465
 180   0.0000       0.057633         1.5683
 181   0.0000       0.082730         2.2512
 182   0.0000       0.098019         2.6672
 183   0.0000       0.102325         2.7844

MULLIKEN ATOMIC CHARGES
-----------------------
   0 C :    0.231612
   1 N :   -0.416444
   2 C :   -0.067123
   3 N :   -0.343495
   4 C :   -0.074697
   5 N :   -0.565305
   6 C :   -0.028842
   7 N :   -0.337011
   8 C :    0.231390
   9 N :   -0.565860
  10 C :    0.104217
  11 N :   -0.439476
  12 C :   -0.058529
  13 N :   -0.450326
  14 C :    0.220014
  15 N :   -0.441490
  16 C :    0.255152
  17 C :   -0.029654
  18 C :   -0.174770
  19 C :    0.227381
  20 C :    0.189665
  21 C :   -0.066428
  22 C :   -0.090286
  23 C :   -0.066319
  24 C :    0.217060
  25 C :    0.114779
  26 C :   -0.067059
  27 C :    0.245943
  28 C :   -0.040356
  29 C :   -0.196059
  30 C :    0.221739
  31 C :    0.189408
  32 C :   -0.064548
  33 C :   -0.101419
  34 C :   -0.050204
  35 C :    0.179715
  36 C :    0.120619
  37 C :   -0.070226
  38 C :    0.244295
  39 C :   -0.065326
  40 C :   -0.203188
  41 C :    0.216038
  42 C :    0.211650
  43 C :   -0.077174
  44 C :   -0.091557
  45 C :   -0.039235
  46 C :    0.185678
  47 C :    0.116627
  48 C :   -0.082159
  49 C :    0.208741
  50 C :   -0.066287
  51 C :   -0.189249
  52 H :    0.079649
  53 H :   -0.007755
  54 H :    0.064514
  55 H :    0.078010
  56 H :    0.082473
  57 H :    0.074422
  58 H :    0.073337
  59 H :   -0.028374
  60 H :    0.065625
  61 H :    0.176762
  62 H :    0.168199
  63 H :    0.053081
  64 H :   -0.033819
  65 H :    0.040957
  66 H :    0.055101
  67 H :    0.058610
  68 H :    0.056110
  69 H :    0.059010
  70 H :   -0.014399
  71 H :    0.046882
  72 H :    0.038542
  73 H :   -0.019037
  74 H :    0.030385
  75 H :    0.037217
  76 H :    0.047077
  77 H :    0.046735
  78 H :    0.045952
  79 H :   -0.011695
  80 H :    0.030133
  81 H :    0.050643
  82 H :   -0.023235
  83 H :    0.042785
  84 H :    0.049585
  85 H :    0.054601
  86 H :    0.056412
  87 H :    0.054659
  88 H :   -0.030345
  89 H :    0.039564
Sum of atomic charges:    0.0000000

LOEWDIN ATOMIC CHARGES
----------------------
   0 C :    0.034788
   1 N :    0.186996
   2 C :   -0.099224
   3 N :    0.171406
   4 C :    0.109437
   5 N :   -0.146997
   6 C :   -0.010915
   7 N :    0.177403
   8 C :    0.034517
   9 N :   -0.138403
  10 C :    0.038555
  11 N :    0.139879
  12 C :   -0.096651
  13 N :    0.115109
  14 C :   -0.061271
  15 N :    0.135081
  16 C :   -0.018896
  17 C :   -0.010826
  18 C :   -0.119492
  19 C :   -0.089955
  20 C :   -0.016949
  21 C :   -0.099134
  22 C :    0.034462
  23 C :   -0.033200
  24 C :    0.007380
  25 C :    0.029380
  26 C :   -0.093608
  27 C :   -0.057392
  28 C :   -0.015074
  29 C :   -0.117189
  30 C :   -0.064236
  31 C :   -0.024755
  32 C :   -0.100393
  33 C :   -0.003579
  34 C :   -0.026231
  35 C :   -0.033392
  36 C :    0.023485
  37 C :   -0.109378
  38 C :   -0.029432
  39 C :   -0.034079
  40 C :   -0.113082
  41 C :   -0.094316
  42 C :    0.000487
  43 C :   -0.113798
  44 C :    0.028228
  45 C :   -0.014747
  46 C :   -0.022102
  47 C :    0.028285
  48 C :   -0.114926
  49 C :   -0.115939
  50 C :   -0.032704
  51 C :   -0.108704
  52 H :    0.040884
  53 H :    0.007343
  54 H :    0.054631
  55 H :    0.040727
  56 H :    0.038723
  57 H :    0.038826
  58 H :    0.039211
  59 H :   -0.000367
  60 H :    0.054999
  61 H :    0.062436
  62 H :    0.057931
  63 H :    0.028879
  64 H :   -0.004900
  65 H :    0.041861
  66 H :    0.029977
  67 H :    0.026539
  68 H :    0.031077
  69 H :    0.031287
  70 H :    0.002682
  71 H :    0.045517
  72 H :    0.022529
  73 H :    0.001879
  74 H :    0.038159
  75 H :    0.021529
  76 H :    0.020460
  77 H :    0.026221
  78 H :    0.025901
  79 H :    0.005571
  80 H :    0.037228
  81 H :    0.028073
  82 H :   -0.001469
  83 H :    0.044117
  84 H :    0.026933
  85 H :    0.024446
  86 H :    0.030375
  87 H :    0.030178
  88 H :   -0.005185
  89 H :    0.040883

  Mayer bond orders larger than 0.100000
B(  0-C ,  1-N ) :   1.1929 B(  0-C , 17-C ) :   1.5320 B(  0-C , 52-H ) :   0.9671
B(  1-N ,  8-C ) :   1.1904 B(  1-N , 10-C ) :   0.9304 B(  2-C , 12-C ) :   1.5746
B(  2-C , 16-C ) :   1.2785 B(  2-C , 53-H ) :   0.9792 B(  3-N , 14-C ) :   1.1772
B(  3-N , 16-C ) :   1.2021 B(  3-N , 61-H ) :   0.8957 B(  4-C ,  6-C ) :   1.3466
B(  4-C , 17-C ) :   1.3494 B(  4-C , 18-C ) :   1.0746 B(  5-N , 19-C ) :   1.3693
B(  5-N , 27-C ) :   1.4451 B(  6-C ,  8-C ) :   1.5334 B(  6-C , 54-H ) :   0.9708
B(  7-N , 30-C ) :   1.1844 B(  7-N , 38-C ) :   1.2145 B(  7-N , 62-H ) :   0.9011
B(  8-C , 55-H ) :   0.9681 B(  9-N , 41-C ) :   1.4315 B(  9-N , 49-C ) :   1.3961
B( 10-C , 56-H ) :   0.9765 B( 10-C , 57-H ) :   0.9810 B( 10-C , 58-H ) :   0.9817
B( 11-N , 20-C ) :   1.1004 B( 11-N , 24-C ) :   1.1345 B( 11-N , 25-C ) :   0.9615
B( 12-C , 14-C ) :   1.2793 B( 12-C , 59-H ) :   0.9772 B( 13-N , 31-C ) :   1.0863
B( 13-N , 35-C ) :   1.0759 B( 13-N , 36-C ) :   0.9802 B( 14-C , 18-C ) :   1.2572
B( 15-N , 42-C ) :   1.1256 B( 15-N , 46-C ) :   1.0926 B( 15-N , 47-C ) :   0.9657
B( 16-C , 51-C ) :   1.2425 B( 17-C , 60-H ) :   0.9709 B( 18-C , 19-C ) :   1.3014
B( 19-C , 21-C ) :   1.1689 B( 20-C , 28-C ) :   1.6275 B( 20-C , 63-H ) :   0.9708
B( 21-C , 26-C ) :   1.6769 B( 21-C , 64-H ) :   0.9723 B( 22-C , 23-C ) :   1.2588
B( 22-C , 28-C ) :   1.2803 B( 22-C , 29-C ) :   1.2532 B( 23-C , 24-C ) :   1.6323
B( 23-C , 65-H ) :   0.9721 B( 24-C , 66-H ) :   0.9690 B( 25-C , 67-H ) :   0.9763
B( 25-C , 68-H ) :   0.9833 B( 25-C , 69-H ) :   0.9819 B( 26-C , 27-C ) :   1.1766
B( 26-C , 70-H ) :   0.9754 B( 27-C , 29-C ) :   1.2392 B( 28-C , 71-H ) :   0.9709
B( 29-C , 30-C ) :   1.1807 B( 30-C , 32-C ) :   1.3458 B( 31-C , 39-C ) :   1.6792
B( 31-C , 72-H ) :   0.9708 B( 32-C , 37-C ) :   1.5139 B( 32-C , 73-H ) :   0.9772
B( 33-C , 34-C ) :   1.2370 B( 33-C , 39-C ) :   1.2291 B( 33-C , 40-C ) :   1.3460
B( 34-C , 35-C ) :   1.6775 B( 34-C , 74-H ) :   0.9709 B( 35-C , 75-H ) :   0.9708
B( 36-C , 76-H ) :   0.9756 B( 36-C , 77-H ) :   0.9825 B( 36-C , 78-H ) :   0.9837
B( 37-C , 38-C ) :   1.3405 B( 37-C , 79-H ) :   0.9791 B( 38-C , 40-C ) :   1.1824
B( 39-C , 80-H ) :   0.9721 B( 40-C , 41-C ) :   1.1729 B( 41-C , 43-C ) :   1.2530
B( 42-C , 50-C ) :   1.6407 B( 42-C , 81-H ) :   0.9696 B( 43-C , 48-C ) :   1.5980
B( 43-C , 82-H ) :   0.9754 B( 44-C , 45-C ) :   1.2801 B( 44-C , 50-C ) :   1.2514
B( 44-C , 51-C ) :   1.2486 B( 45-C , 46-C ) :   1.6325 B( 45-C , 83-H ) :   0.9703
B( 46-C , 84-H ) :   0.9708 B( 47-C , 85-H ) :   0.9760 B( 47-C , 86-H ) :   0.9826
B( 47-C , 87-H ) :   0.9829 B( 48-C , 49-C ) :   1.2478 B( 48-C , 88-H ) :   0.9726
B( 49-C , 51-C ) :   1.1914 B( 50-C , 89-H ) :   0.9721

MP2 TOTAL ENERGY:    -2130.879679802 Eh
FINAL SINGLE POINT ENERGY     -2130.879679802059

DIPOLE MOMENT
-------------
                                X             Y             Z
Electronic contribution:     -4.13503       4.53000      -0.05934
Nuclear contribution   :      0.04708       0.22153       0.08304
                        -----------------------------------------
Total Dipole Moment    :     -4.08795       4.75153       0.02370
                        -----------------------------------------
Magnitude (a.u.)       :      6.26809
Magnitude (Debye)      :     15.93221

Rotational constants in cm-1:     0.001498     0.001472     0.000763
Rotational constants in MHz :    44.919882    44.125197    22.867233

                             ****ORCA TERMINATED NORMALLY****
TOTAL RUN TIME: 0 days 1 hours 24 minutes 59 seconds 26 msec
