                         Program Version 5.0.4 -  RELEASE  -
|  1> ! PAL2
|  2> ! mp2 cc-pvdz TightSCF  NoKeepInts
|  3>
|  4> %scf
|  5>   MaxCore 2000
|  6> end
|  7> %mp2
|  8>   MaxCore 2000
|  9> end
| 10> * xyz 0 1
| 11>    C       -4.94600         5.19200        -0.09900
| 12>    C        1.47400         4.04100         0.05700
| 13>    C       -2.80200         4.09300         0.04900
| 14>    C       -2.22300         5.35800         0.23400
| 15>    C       -3.01700         6.48800         0.24900
| 16>    C       -5.18300         7.62200         0.14100
| 17>    C        0.13200         4.30700         0.06100
| 18>    C       -0.56900         3.05600         0.04700
| 19>    C        1.64900         2.61800         0.02300
| 20>    C       -4.19400         4.03300        -0.11600
| 21>    N       -4.35600         6.39600         0.08100
| 22>    N        0.38800         2.06700         0.02500
| 23>    N       -2.01000         0.39500        -0.07500
| 24>    N       -0.38800        -2.07400        -0.02700
| 25>    N        2.01000        -0.40100         0.06500
| 26>    C       -1.96000         2.86100         0.02400
| 27>    C       -2.62300         1.61500        -0.01800
| 28>    C       -5.57300        -4.32900         1.06600
| 29>    C       -4.07300         1.47100         0.05600
| 30>    C       -4.10600        -2.75600        -0.02600
| 31>    C       -4.99500        -2.75700        -1.11100
| 32>    C       -6.13200        -3.54200        -1.07600
| 33>    C       -7.65100        -5.11300         0.04000
| 34>    C       -4.32400         0.14100         0.03700
| 35>    C       -3.02500        -0.52000        -0.04800
| 36>    C       -4.42200        -3.56600         1.07500
| 37>    N       -6.40700        -4.31300         0.00100
| 38>    C       -2.86700        -1.92200        -0.04000
| 39>    C       -1.65000        -2.62400        -0.02700
| 40>    C        3.56800        -6.14200        -1.04000
| 41>    C       -1.47600        -4.04900        -0.03400
| 42>    C        2.80300        -4.09900        -0.00800
| 43>    C        3.65700        -4.38400         1.06900
| 44>    C        4.42700        -5.53000         1.05900
| 45>    C        5.24500        -7.58800         0.01400
| 46>    C       -0.13400        -4.31500        -0.02200
| 47>    C        0.56800        -3.06400        -0.02700
| 48>    C        2.77500        -5.01200        -1.07400
| 49>    N        4.37600        -6.39100         0.01700
| 50>    C        1.95900        -2.86900        -0.00900
| 51>    C        2.62100        -1.62200         0.00900
| 52>    C        5.54300         4.33900        -1.13000
| 53>    C        4.07000        -1.47900        -0.09400
| 54>    C        4.10400         2.75100        -0.02100
| 55>    C        5.02700         2.72900         1.03600
| 56>    C        6.16600         3.50900         0.97800
| 57>    C        7.61900         5.15300        -0.11500
| 58>    C        4.32100        -0.14800        -0.09200
| 59>    C        3.02500         0.51400         0.01500
| 60>    C        4.38700         3.58200        -1.11500
| 61>    C        2.86600         1.91600         0.01300
| 62>    N        6.41300         4.29600        -0.09500
| 63>    H       -6.02000         5.19400        -0.23400
| 64>    H        2.27400         4.76600         0.08100
| 65>    H       -1.15500         5.46900         0.37600
| 66>    H       -2.61700         7.48300         0.39700
| 67>    H       -5.43300         7.83200         1.18300
| 68>    H       -4.61400         8.45000        -0.28300
| 69>    H       -6.09300         7.46000        -0.43700
| 70>    H       -0.33200         5.28200         0.06900
| 71>    H       -4.69900         3.08700        -0.27700
| 72>    H        0.18200         1.07200         0.00500
| 73>    H       -0.18300        -1.08000        -0.02100
| 74>    H       -5.86400        -4.96200         1.89500
| 75>    H       -4.79400         2.27200         0.13900
| 76>    H       -4.80000        -2.16000        -1.99400
| 77>    H       -6.84100        -3.58200        -1.89300
| 78>    H       -8.42800        -4.53600         0.54600
| 79>    H       -7.95600        -5.33700        -0.98100
| 80>    H       -7.45600        -6.03700         0.58400
| 81>    H       -5.28700        -0.34400         0.10000
| 82>    H       -3.78000        -3.60100         1.94700
| 83>    H        3.58700        -6.86800        -1.84300
| 84>    H       -2.27600        -4.77400        -0.05000
| 85>    H        3.71400        -3.72400         1.92600
| 86>    H        5.09200        -5.79500         1.87100
| 87>    H        6.20500        -7.32900        -0.43900
| 88>    H        5.39300        -7.91700         1.04200
| 89>    H        4.75900        -8.37300        -0.56400
| 90>    H        0.32900        -5.29000        -0.00800
| 91>    H        2.14600        -4.84200        -1.94000
| 92>    H        5.80800         4.98600        -1.95600
| 93>    H        4.78800        -2.28100        -0.18500
| 94>    H        4.86000         2.11400         1.91200
| 95>    H        6.90100         3.53100         1.77200
| 96>    H        7.38300         6.10900         0.35600
| 97>    H        8.41400         4.65200         0.43500
| 98>    H        7.92100         5.31000        -1.15000
| 99>    H        5.28300         0.33600        -0.17900
|100>    H        3.72000         3.63200        -1.96700
|101> *
|102>
|103>                          ****END OF INPUT****

CARTESIAN COORDINATES (ANGSTROEM)
---------------------------------
  C     -4.946000    5.192000   -0.099000
  C      1.474000    4.041000    0.057000
  C     -2.802000    4.093000    0.049000
  C     -2.223000    5.358000    0.234000
  C     -3.017000    6.488000    0.249000
  C     -5.183000    7.622000    0.141000
  C      0.132000    4.307000    0.061000
  C     -0.569000    3.056000    0.047000
  C      1.649000    2.618000    0.023000
  C     -4.194000    4.033000   -0.116000
  N     -4.356000    6.396000    0.081000
  N      0.388000    2.067000    0.025000
  N     -2.010000    0.395000   -0.075000
  N     -0.388000   -2.074000   -0.027000
  N      2.010000   -0.401000    0.065000
  C     -1.960000    2.861000    0.024000
  C     -2.623000    1.615000   -0.018000
  C     -5.573000   -4.329000    1.066000
  C     -4.073000    1.471000    0.056000
  C     -4.106000   -2.756000   -0.026000
  C     -4.995000   -2.757000   -1.111000
  C     -6.132000   -3.542000   -1.076000
  C     -7.651000   -5.113000    0.040000
  C     -4.324000    0.141000    0.037000
  C     -3.025000   -0.520000   -0.048000
  C     -4.422000   -3.566000    1.075000
  N     -6.407000   -4.313000    0.001000
  C     -2.867000   -1.922000   -0.040000
  C     -1.650000   -2.624000   -0.027000
  C      3.568000   -6.142000   -1.040000
  C     -1.476000   -4.049000   -0.034000
  C      2.803000   -4.099000   -0.008000
  C      3.657000   -4.384000    1.069000
  C      4.427000   -5.530000    1.059000
  C      5.245000   -7.588000    0.014000
  C     -0.134000   -4.315000   -0.022000
  C      0.568000   -3.064000   -0.027000
  C      2.775000   -5.012000   -1.074000
  N      4.376000   -6.391000    0.017000
  C      1.959000   -2.869000   -0.009000
  C      2.621000   -1.622000    0.009000
  C      5.543000    4.339000   -1.130000
  C      4.070000   -1.479000   -0.094000
  C      4.104000    2.751000   -0.021000
  C      5.027000    2.729000    1.036000
  C      6.166000    3.509000    0.978000
  C      7.619000    5.153000   -0.115000
  C      4.321000   -0.148000   -0.092000
  C      3.025000    0.514000    0.015000
  C      4.387000    3.582000   -1.115000
  C      2.866000    1.916000    0.013000
  N      6.413000    4.296000   -0.095000
  H     -6.020000    5.194000   -0.234000
  H      2.274000    4.766000    0.081000
  H     -1.155000    5.469000    0.376000
  H     -2.617000    7.483000    0.397000
  H     -5.433000    7.832000    1.183000
  H     -4.614000    8.450000   -0.283000
  H     -6.093000    7.460000   -0.437000
  H     -0.332000    5.282000    0.069000
  H     -4.699000    3.087000   -0.277000
  H      0.182000    1.072000    0.005000
  H     -0.183000   -1.080000   -0.021000
  H     -5.864000   -4.962000    1.895000
  H     -4.794000    2.272000    0.139000
  H     -4.800000   -2.160000   -1.994000
  H     -6.841000   -3.582000   -1.893000
  H     -8.428000   -4.536000    0.546000
  H     -7.956000   -5.337000   -0.981000
  H     -7.456000   -6.037000    0.584000
  H     -5.287000   -0.344000    0.100000
  H     -3.780000   -3.601000    1.947000
  H      3.587000   -6.868000   -1.843000
  H     -2.276000   -4.774000   -0.050000
  H      3.714000   -3.724000    1.926000
  H      5.092000   -5.795000    1.871000
  H      6.205000   -7.329000   -0.439000
  H      5.393000   -7.917000    1.042000
  H      4.759000   -8.373000   -0.564000
  H      0.329000   -5.290000   -0.008000
  H      2.146000   -4.842000   -1.940000
  H      5.808000    4.986000   -1.956000
  H      4.788000   -2.281000   -0.185000
  H      4.860000    2.114000    1.912000
  H      6.901000    3.531000    1.772000
  H      7.383000    6.109000    0.356000
  H      8.414000    4.652000    0.435000
  H      7.921000    5.310000   -1.150000
  H      5.283000    0.336000   -0.179000
  H      3.720000    3.632000   -1.967000

 Total Charge           Charge          ....    0
 Multiplicity           Mult            ....    1
 Number of Electrons    NEL             ....  358
 Basis Dimension        Dim             ....  918

ORBITAL ENERGIES
----------------

  NO   OCC          E(Eh)            E(eV)
   0   2.0000     -15.680326      -426.6834
   1   2.0000     -15.634995      -425.4498
   2   2.0000     -15.631085      -425.3434
   3   2.0000     -15.587701      -424.1629
   4   2.0000     -15.525375      -422.4669
   5   2.0000     -15.515380      -422.1950
   6   2.0000     -15.453631      -420.5147
   7   2.0000     -15.439832      -420.1392
   8   2.0000     -11.329958      -308.3038
   9   2.0000     -11.328682      -308.2691
  10   2.0000     -11.328249      -308.2573
  11   2.0000     -11.299945      -307.4871
  12   2.0000     -11.297909      -307.4317
  13   2.0000     -11.293869      -307.3218
  14   2.0000     -11.290618      -307.2333
  15   2.0000     -11.287424      -307.1464
  16   2.0000     -11.285857      -307.1038
  17   2.0000     -11.282542      -307.0136
  18   2.0000     -11.269460      -306.6576
  19   2.0000     -11.263713      -306.5012
  20   2.0000     -11.262722      -306.4743
  21   2.0000     -11.250332      -306.1371
  22   2.0000     -11.248578      -306.0894
  23   2.0000     -11.238728      -305.8213
  24   2.0000     -11.235907      -305.7446
  25   2.0000     -11.231868      -305.6347
  26   2.0000     -11.231206      -305.6167
  27   2.0000     -11.229181      -305.5616
  28   2.0000     -11.228919      -305.5544
  29   2.0000     -11.211581      -305.0826
  30   2.0000     -11.210089      -305.0420
  31   2.0000     -11.193318      -304.5857
  32   2.0000     -11.191689      -304.5413
  33   2.0000     -11.191626      -304.5396
  34   2.0000     -11.188142      -304.4448
  35   2.0000     -11.187939      -304.4393
  36   2.0000     -11.186716      -304.4060
  37   2.0000     -11.175191      -304.0924
  38   2.0000     -11.172899      -304.0300
  39   2.0000     -11.171790      -303.9998
  40   2.0000     -11.170114      -303.9543
  41   2.0000     -11.170015      -303.9516
  42   2.0000     -11.169051      -303.9253
  43   2.0000     -11.161705      -303.7254
  44   2.0000     -11.160766      -303.6999
  45   2.0000     -11.156849      -303.5933
  46   2.0000     -11.156279      -303.5778
  47   2.0000     -11.151473      -303.4470
  48   2.0000     -11.146332      -303.3071
  49   2.0000     -11.135012      -302.9991
  50   2.0000     -11.129819      -302.8578
  51   2.0000     -11.117223      -302.5150
  52   2.0000      -1.360823       -37.0299
  53   2.0000      -1.322089       -35.9759
  54   2.0000      -1.318979       -35.8912
  55   2.0000      -1.279932       -34.8287
  56   2.0000      -1.226575       -33.3768
  57   2.0000      -1.210191       -32.9310
  58   2.0000      -1.173281       -31.9266
  59   2.0000      -1.150906       -31.3177
  60   2.0000      -1.143987       -31.1295
  61   2.0000      -1.110882       -30.2286
  62   2.0000      -1.108507       -30.1640
  63   2.0000      -1.082475       -29.4557
  64   2.0000      -1.076897       -29.3038
  65   2.0000      -1.046226       -28.4693
  66   2.0000      -1.043655       -28.3993
  67   2.0000      -1.041388       -28.3376
  68   2.0000      -1.015133       -27.6232
  69   2.0000      -1.013694       -27.5840
  70   2.0000      -1.008926       -27.4543
  71   2.0000      -0.993980       -27.0476
  72   2.0000      -0.985369       -26.8132
  73   2.0000      -0.982095       -26.7242
  74   2.0000      -0.973688       -26.4954
  75   2.0000      -0.961932       -26.1755
  76   2.0000      -0.954564       -25.9750
  77   2.0000      -0.946039       -25.7430
  78   2.0000      -0.937913       -25.5219
  79   2.0000      -0.916714       -24.9451
  80   2.0000      -0.910946       -24.7881
  81   2.0000      -0.897942       -24.4342
  82   2.0000      -0.877346       -23.8738
  83   2.0000      -0.873045       -23.7568
  84   2.0000      -0.870287       -23.6817
  85   2.0000      -0.860736       -23.4218
  86   2.0000      -0.842602       -22.9284
  87   2.0000      -0.838303       -22.8114
  88   2.0000      -0.828581       -22.5468
  89   2.0000      -0.796435       -21.6721
  90   2.0000      -0.788842       -21.4655
  91   2.0000      -0.770106       -20.9556
  92   2.0000      -0.753344       -20.4995
  93   2.0000      -0.734195       -19.9785
  94   2.0000      -0.727865       -19.8062
  95   2.0000      -0.725214       -19.7341
  96   2.0000      -0.719628       -19.5821
  97   2.0000      -0.717669       -19.5288
  98   2.0000      -0.713038       -19.4027
  99   2.0000      -0.698670       -19.0118
 100   2.0000      -0.698134       -18.9972
 101   2.0000      -0.693290       -18.8654
 102   2.0000      -0.685629       -18.6569
 103   2.0000      -0.684582       -18.6284
 104   2.0000      -0.679251       -18.4834
 105   2.0000      -0.674379       -18.3508
 106   2.0000      -0.672653       -18.3038
 107   2.0000      -0.660608       -17.9761
 108   2.0000      -0.658092       -17.9076
 109   2.0000      -0.653492       -17.7824
 110   2.0000      -0.651555       -17.7297
 111   2.0000      -0.646541       -17.5933
 112   2.0000      -0.645711       -17.5707
 113   2.0000      -0.638099       -17.3636
 114   2.0000      -0.635610       -17.2958
 115   2.0000      -0.627979       -17.0882
 116   2.0000      -0.622777       -16.9466
 117   2.0000      -0.620457       -16.8835
 118   2.0000      -0.613448       -16.6928
 119   2.0000      -0.612869       -16.6770
 120   2.0000      -0.611957       -16.6522
 121   2.0000      -0.610862       -16.6224
 122   2.0000      -0.600975       -16.3534
 123   2.0000      -0.588975       -16.0268
 124   2.0000      -0.582269       -15.8444
 125   2.0000      -0.580811       -15.8047
 126   2.0000      -0.580058       -15.7842
 127   2.0000      -0.571408       -15.5488
 128   2.0000      -0.567297       -15.4369
 129   2.0000      -0.559791       -15.2327
 130   2.0000      -0.555233       -15.1087
 131   2.0000      -0.548112       -14.9149
 132   2.0000      -0.543005       -14.7759
 133   2.0000      -0.540904       -14.7188
 134   2.0000      -0.539128       -14.6704
 135   2.0000      -0.535611       -14.5747
 136   2.0000      -0.531522       -14.4635
 137   2.0000      -0.518196       -14.1008
 138   2.0000      -0.517522       -14.0825
 139   2.0000      -0.513982       -13.9862
 140   2.0000      -0.511842       -13.9279
 141   2.0000      -0.510442       -13.8898
 142   2.0000      -0.508596       -13.8396
 143   2.0000      -0.505088       -13.7441
 144   2.0000      -0.501655       -13.6507
 145   2.0000      -0.495491       -13.4830
 146   2.0000      -0.489038       -13.3074
 147   2.0000      -0.481350       -13.0982
 148   2.0000      -0.476494       -12.9661
 149   2.0000      -0.467815       -12.7299
 150   2.0000      -0.466178       -12.6853
 151   2.0000      -0.456328       -12.4173
 152   2.0000      -0.451254       -12.2792
 153   2.0000      -0.445276       -12.1166
 154   2.0000      -0.438345       -11.9280
 155   2.0000      -0.427583       -11.6351
 156   2.0000      -0.409289       -11.1373
 157   2.0000      -0.392490       -10.6802
 158   2.0000      -0.389263       -10.5924
 159   2.0000      -0.387555       -10.5459
 160   2.0000      -0.378917       -10.3109
 161   2.0000      -0.374867       -10.2006
 162   2.0000      -0.367540       -10.0013
 163   2.0000      -0.357320        -9.7232
 164   2.0000      -0.355358        -9.6698
 165   2.0000      -0.341657        -9.2969
 166   2.0000      -0.337745        -9.1905
 167   2.0000      -0.325077        -8.8458
 168   2.0000      -0.320518        -8.7217
 169   2.0000      -0.305852        -8.3226
 170   2.0000      -0.299177        -8.1410
 171   2.0000      -0.285544        -7.7700
 172   2.0000      -0.278275        -7.5723
 173   2.0000      -0.263253        -7.1635
 174   2.0000      -0.241802        -6.5798
 175   2.0000      -0.190052        -5.1716
 176   2.0000      -0.181319        -4.9339
 177   2.0000      -0.080271        -2.1843
 178   2.0000      -0.059771        -1.6265
 179   0.0000       0.028304         0.7702
 180   0.0000       0.065185         1.7738
 181   0.0000       0.090171         2.4537
 182   0.0000       0.105899         2.8817
 183   0.0000       0.116287         3.1643

MULLIKEN ATOMIC CHARGES
-----------------------
   0 C :    0.219772
   1 N :   -0.455775
   2 C :   -0.076572
   3 N :   -0.341719
   4 C :   -0.084257
   5 N :   -0.568591
   6 C :   -0.115334
   7 N :   -0.341066
   8 C :    0.222540
   9 N :   -0.562521
  10 C :    0.119008
  11 N :   -0.438209
  12 C :   -0.042854
  13 N :   -0.429191
  14 C :    0.208151
  15 N :   -0.441101
  16 C :    0.235458
  17 C :   -0.114314
  18 C :   -0.159879
  19 C :    0.203750
  20 C :    0.214371
  21 C :   -0.054457
  22 C :   -0.089513
  23 C :   -0.039537
  24 C :    0.193804
  25 C :    0.114462
  26 C :   -0.092431
  27 C :    0.216458
  28 C :   -0.061764
  29 C :   -0.183322
  30 C :    0.246007
  31 C :    0.230930
  32 C :   -0.061324
  33 C :   -0.059800
  34 C :   -0.050819
  35 C :    0.228540
  36 C :    0.108137
  37 C :   -0.064372
  38 C :    0.231411
  39 C :   -0.057942
  40 C :   -0.181336
  41 C :    0.225581
  42 C :    0.197120
  43 C :   -0.072725
  44 C :   -0.090006
  45 C :   -0.061737
  46 C :    0.211450
  47 C :    0.115434
  48 C :   -0.066673
  49 C :    0.238128
  50 C :   -0.046082
  51 C :   -0.194809
  52 H :    0.034719
  53 H :   -0.018132
  54 H :    0.045235
  55 H :    0.032854
  56 H :    0.049492
  57 H :    0.047369
  58 H :    0.046659
  59 H :   -0.018730
  60 H :    0.046726
  61 H :    0.171056
  62 H :    0.175665
  63 H :    0.055672
  64 H :   -0.026044
  65 H :    0.047066
  66 H :    0.055852
  67 H :    0.062804
  68 H :    0.057380
  69 H :    0.056561
  70 H :   -0.030149
  71 H :    0.045188
  72 H :    0.071658
  73 H :   -0.007897
  74 H :    0.060752
  75 H :    0.071074
  76 H :    0.075276
  77 H :    0.068230
  78 H :    0.067488
  79 H :   -0.016582
  80 H :    0.061597
  81 H :    0.054274
  82 H :   -0.025199
  83 H :    0.041614
  84 H :    0.053971
  85 H :    0.060715
  86 H :    0.055387
  87 H :    0.057160
  88 H :   -0.014380
  89 H :    0.047136
Sum of atomic charges:   -0.0000000

LOEWDIN ATOMIC CHARGES
----------------------
   0 C :   -0.021727
   1 N :    0.121654
   2 C :   -0.101094
   3 N :    0.182514
   4 C :   -0.012356
   5 N :   -0.134177
   6 C :   -0.026133
   7 N :    0.174983
   8 C :   -0.018113
   9 N :   -0.140744
  10 C :    0.022875
  11 N :    0.142458
  12 C :   -0.097792
  13 N :    0.166792
  14 C :   -0.016088
  15 N :    0.138491
  16 C :   -0.060245
  17 C :   -0.026404
  18 C :   -0.112775
  19 C :   -0.073477
  20 C :    0.005519
  21 C :   -0.107295
  22 C :    0.038272
  23 C :   -0.014377
  24 C :   -0.012335
  25 C :    0.029932
  26 C :   -0.108421
  27 C :   -0.117395
  28 C :   -0.027463
  29 C :   -0.098951
  30 C :   -0.029970
  31 C :    0.025105
  32 C :   -0.093857
  33 C :    0.082967
  34 C :   -0.014820
  35 C :    0.023336
  36 C :    0.035357
  37 C :   -0.093970
  38 C :   -0.051746
  39 C :   -0.017648
  40 C :   -0.108746
  41 C :   -0.091948
  42 C :   -0.010778
  43 C :   -0.099399
  44 C :    0.033273
  45 C :   -0.028543
  46 C :    0.001757
  47 C :    0.029436
  48 C :   -0.094966
  49 C :   -0.068993
  50 C :   -0.018584
  51 C :   -0.109249
  52 H :    0.021945
  53 H :    0.002386
  54 H :   -0.006988
  55 H :    0.021969
  56 H :    0.021839
  57 H :    0.026190
  58 H :    0.026766
  59 H :    0.003808
  60 H :   -0.000606
  61 H :    0.060236
  62 H :    0.061966
  63 H :    0.030925
  64 H :    0.001774
  65 H :    0.045901
  66 H :    0.029335
  67 H :    0.028407
  68 H :    0.031695
  69 H :    0.030393
  70 H :   -0.004909
  71 H :    0.043646
  72 H :    0.037887
  73 H :    0.007189
  74 H :    0.050854
  75 H :    0.037535
  76 H :    0.034985
  77 H :    0.036296
  78 H :    0.035963
  79 H :    0.002969
  80 H :    0.050862
  81 H :    0.029028
  82 H :   -0.002901
  83 H :    0.042358
  84 H :    0.029792
  85 H :    0.027308
  86 H :    0.030107
  87 H :    0.031380
  88 H :    0.002447
  89 H :    0.045126

  Mayer bond orders larger than 0.100000
B(  0-C ,  1-N ) :   1.0929 B(  0-C , 17-C ) :   1.7238 B(  0-C , 52-H ) :   0.9603
B(  1-N ,  8-C ) :   1.0991 B(  1-N , 10-C ) :   0.9774 B(  2-C , 12-C ) :   1.4814
B(  2-C , 16-C ) :   1.3775 B(  2-C , 53-H ) :   0.9720 B(  3-N , 14-C ) :   1.2232
B(  3-N , 16-C ) :   1.1796 B(  3-N , 61-H ) :   0.8983 B(  4-C ,  6-C ) :   1.2222
B(  4-C , 17-C ) :   1.2222 B(  4-C , 18-C ) :   1.4808 B(  5-N , 19-C ) :   1.4596
B(  5-N , 27-C ) :   1.3691 B(  6-C ,  8-C ) :   1.7221 B(  6-C , 54-H ) :   0.8732
B(  7-N , 30-C ) :   1.1947 B(  7-N , 38-C ) :   1.1898 B(  7-N , 62-H ) :   0.8966
B(  8-C , 55-H ) :   0.9615 B(  9-N , 41-C ) :   1.3934 B(  9-N , 49-C ) :   1.4261
B( 10-C , 56-H ) :   0.9776 B( 10-C , 57-H ) :   0.9829 B( 10-C , 58-H ) :   0.9834
B( 11-N , 20-C ) :   1.1322 B( 11-N , 24-C ) :   1.1075 B( 11-N , 25-C ) :   0.9598
B( 12-C , 14-C ) :   1.3619 B( 12-C , 59-H ) :   0.9138 B( 13-N , 31-C ) :   1.1627
B( 13-N , 35-C ) :   1.1607 B( 13-N , 36-C ) :   0.9410 B( 14-C , 18-C ) :   1.1148
B( 15-N , 42-C ) :   1.1071 B( 15-N , 46-C ) :   1.1242 B( 15-N , 47-C ) :   0.9615
B( 16-C , 51-C ) :   1.1665 B( 17-C , 60-H ) :   0.8719 B( 18-C , 19-C ) :   1.1137
B( 19-C , 21-C ) :   1.2530 B( 20-C , 28-C ) :   1.6277 B( 20-C , 63-H ) :   0.9702
B( 21-C , 26-C ) :   1.5808 B( 21-C , 64-H ) :   0.9156 B( 22-C , 23-C ) :   1.2906
B( 22-C , 28-C ) :   1.2645 B( 22-C , 29-C ) :   1.2249 B( 23-C , 24-C ) :   1.6189
B( 23-C , 65-H ) :   0.9703 B( 24-C , 66-H ) :   0.9695 B( 25-C , 67-H ) :   0.9761
B( 25-C , 68-H ) :   0.9828 B( 25-C , 69-H ) :   0.9823 B( 26-C , 27-C ) :   1.2625
B( 26-C , 70-H ) :   0.9662 B( 27-C , 29-C ) :   1.2060 B( 28-C , 71-H ) :   0.9720
B( 29-C , 30-C ) :   1.2484 B( 30-C , 32-C ) :   1.2773 B( 31-C , 39-C ) :   1.5870
B( 31-C , 72-H ) :   0.9681 B( 32-C , 37-C ) :   1.5816 B( 32-C , 73-H ) :   0.9786
B( 33-C , 34-C ) :   1.3081 B( 33-C , 39-C ) :   1.3045 B( 33-C , 40-C ) :   1.1744
B( 34-C , 35-C ) :   1.5843 B( 34-C , 74-H ) :   0.9696 B( 35-C , 75-H ) :   0.9681
B( 36-C , 76-H ) :   0.9768 B( 36-C , 77-H ) :   0.9815 B( 36-C , 78-H ) :   0.9823
B( 37-C , 38-C ) :   1.2833 B( 37-C , 79-H ) :   0.9764 B( 38-C , 40-C ) :   1.2354
B( 39-C , 80-H ) :   0.9705 B( 40-C , 41-C ) :   1.2506 B( 41-C , 43-C ) :   1.1848
B( 42-C , 50-C ) :   1.6339 B( 42-C , 81-H ) :   0.9697 B( 43-C , 48-C ) :   1.6680
B( 43-C , 82-H ) :   0.9720 B( 44-C , 45-C ) :   1.2627 B( 44-C , 50-C ) :   1.2718
B( 44-C , 51-C ) :   1.2625 B( 45-C , 46-C ) :   1.6352 B( 45-C , 83-H ) :   0.9719
B( 46-C , 84-H ) :   0.9700 B( 47-C , 85-H ) :   0.9762 B( 47-C , 86-H ) :   0.9829
B( 47-C , 87-H ) :   0.9824 B( 48-C , 49-C ) :   1.1882 B( 48-C , 88-H ) :   0.9749
B( 49-C , 51-C ) :   1.2451 B( 50-C , 89-H ) :   0.9708 B( 54-H , 59-H ) :   0.1012

MP2 TOTAL ENERGY:    -2130.771794468 Eh
FINAL SINGLE POINT ENERGY     -2130.771794468242

DIPOLE MOMENT
-------------
                                X             Y             Z
Electronic contribution:      2.72401      -4.46046      -0.20992
Nuclear contribution   :      0.05843       0.22563       0.20755
                        -----------------------------------------
Total Dipole Moment    :      2.78244      -4.23484      -0.00237
                        -----------------------------------------
Magnitude (a.u.)       :      5.06713
Magnitude (Debye)      :     12.87962

Rotational constants in cm-1:     0.001501     0.001480     0.000760
Rotational constants in MHz :    45.010685    44.356661    22.782161

                             ****ORCA TERMINATED NORMALLY****
TOTAL RUN TIME: 0 days 1 hours 25 minutes 30 seconds 621 msec
