                         Program Version 5.0.4 -  RELEASE  -
|  1> ! PAL2
|  2> ! mp2 cc-pvdz TightSCF  NoKeepInts
|  3>
|  4> %scf
|  5>   MaxCore 2000
|  6> end
|  7> %mp2
|  8>   MaxCore 2000
|  9> end
| 10> * xyz 0 1
| 11>    C       -4.86800         5.25200        -0.41500
| 12>    C        1.47400         4.04100         0.05700
| 13>    C       -2.80200         4.09300         0.04900
| 14>    C       -2.30000         5.29900         0.56200
| 15>    C       -3.09100         6.43000         0.57300
| 16>    C       -5.18900         7.61800         0.14700
| 17>    C        0.13200         4.30700         0.06100
| 18>    C       -0.56900         3.05600         0.04700
| 19>    C        1.64900         2.61800         0.02300
| 20>    C       -4.11700         4.09200        -0.44200
| 21>    N       -4.35400         6.39800         0.08600
| 22>    N        0.38800         2.06700         0.02500
| 23>    N       -2.01000         0.39500        -0.07500
| 24>    N       -0.38800        -2.07400        -0.02700
| 25>    N        2.01000        -0.40100         0.06500
| 26>    C       -1.96000         2.86100         0.02400
| 27>    C       -2.62300         1.61500        -0.01800
| 28>    C       -5.57300        -4.32900         1.06600
| 29>    C       -4.07300         1.47100         0.05600
| 30>    C       -4.10600        -2.75600        -0.02600
| 31>    C       -4.99500        -2.75700        -1.11100
| 32>    C       -6.13200        -3.54200        -1.07600
| 33>    C       -7.65100        -5.11300         0.04000
| 34>    C       -4.32400         0.14100         0.03700
| 35>    C       -3.02500        -0.52000        -0.04800
| 36>    C       -4.42200        -3.56600         1.07500
| 37>    N       -6.40700        -4.31300         0.00100
| 38>    C       -2.86700        -1.92200        -0.04000
| 39>    C       -1.65000        -2.62400        -0.02700
| 40>    C        3.56800        -6.14200        -1.04000
| 41>    C       -1.47600        -4.04900        -0.03400
| 42>    C        2.80300        -4.09900        -0.00800
| 43>    C        3.65700        -4.38400         1.06900
| 44>    C        4.42700        -5.53000         1.05900
| 45>    C        5.24500        -7.58800         0.01400
| 46>    C       -0.13400        -4.31500        -0.02200
| 47>    C        0.56800        -3.06400        -0.02700
| 48>    C        2.77500        -5.01200        -1.07400
| 49>    N        4.37600        -6.39100         0.01700
| 50>    C        1.95900        -2.86900        -0.00900
| 51>    C        2.62100        -1.62200         0.00900
| 52>    C        5.54300         4.33900        -1.13000
| 53>    C        4.07000        -1.47900        -0.09400
| 54>    C        4.10400         2.75100        -0.02100
| 55>    C        5.02700         2.72900         1.03600
| 56>    C        6.16600         3.50900         0.97800
| 57>    C        7.61900         5.15300        -0.11500
| 58>    C        4.32100        -0.14800        -0.09200
| 59>    C        3.02500         0.51400         0.01500
| 60>    C        4.38700         3.58200        -1.11500
| 61>    C        2.86600         1.91600         0.01300
| 62>    N        6.41300         4.29600        -0.09500
| 63>    H       -5.88100         5.30100        -0.79400
| 64>    H        2.27400         4.76600         0.08100
| 65>    H       -1.29600         5.36100         0.96400
| 66>    H       -2.75100         7.38000         0.96600
| 67>    H       -5.67800         7.66600         1.12300
| 68>    H       -4.54900         8.48900         0.00500
| 69>    H       -5.93600         7.57100        -0.64500
| 70>    H       -0.33200         5.28200         0.06900
| 71>    H       -4.55700         3.19600        -0.86400
| 72>    H        0.18200         1.07200         0.00500
| 73>    H       -0.18300        -1.08000        -0.02100
| 74>    H       -5.86400        -4.96200         1.89500
| 75>    H       -4.79400         2.27200         0.13900
| 76>    H       -4.80000        -2.16000        -1.99400
| 77>    H       -6.84100        -3.58200        -1.89300
| 78>    H       -8.42800        -4.53600         0.54600
| 79>    H       -7.95600        -5.33700        -0.98100
| 80>    H       -7.45600        -6.03700         0.58400
| 81>    H       -5.28700        -0.34400         0.10000
| 82>    H       -3.78000        -3.60100         1.94700
| 83>    H        3.58700        -6.86800        -1.84300
| 84>    H       -2.27600        -4.77400        -0.05000
| 85>    H        3.71400        -3.72400         1.92600
| 86>    H        5.09200        -5.79500         1.87100
| 87>    H        6.20500        -7.32900        -0.43900
| 88>    H        5.39300        -7.91700         1.04200
| 89>    H        4.75900        -8.37300        -0.56400
| 90>    H        0.32900        -5.29000        -0.00800
| 91>    H        2.14600        -4.84200        -1.94000
| 92>    H        5.80800         4.98600        -1.95600
| 93>    H        4.78800        -2.28100        -0.18500
| 94>    H        4.86000         2.11400         1.91200
| 95>    H        6.90100         3.53100         1.77200
| 96>    H        7.38300         6.10900         0.35600
| 97>    H        8.41400         4.65200         0.43500
| 98>    H        7.92100         5.31000        -1.15000
| 99>    H        5.28300         0.33600        -0.17900
|100>    H        3.72000         3.63200        -1.96700
|101> *
|102>
|103>                          ****END OF INPUT****

CARTESIAN COORDINATES (ANGSTROEM)
---------------------------------
  C     -4.868000    5.252000   -0.415000
  C      1.474000    4.041000    0.057000
  C     -2.802000    4.093000    0.049000
  C     -2.300000    5.299000    0.562000
  C     -3.091000    6.430000    0.573000
  C     -5.189000    7.618000    0.147000
  C      0.132000    4.307000    0.061000
  C     -0.569000    3.056000    0.047000
  C      1.649000    2.618000    0.023000
  C     -4.117000    4.092000   -0.442000
  N     -4.354000    6.398000    0.086000
  N      0.388000    2.067000    0.025000
  N     -2.010000    0.395000   -0.075000
  N     -0.388000   -2.074000   -0.027000
  N      2.010000   -0.401000    0.065000
  C     -1.960000    2.861000    0.024000
  C     -2.623000    1.615000   -0.018000
  C     -5.573000   -4.329000    1.066000
  C     -4.073000    1.471000    0.056000
  C     -4.106000   -2.756000   -0.026000
  C     -4.995000   -2.757000   -1.111000
  C     -6.132000   -3.542000   -1.076000
  C     -7.651000   -5.113000    0.040000
  C     -4.324000    0.141000    0.037000
  C     -3.025000   -0.520000   -0.048000
  C     -4.422000   -3.566000    1.075000
  N     -6.407000   -4.313000    0.001000
  C     -2.867000   -1.922000   -0.040000
  C     -1.650000   -2.624000   -0.027000
  C      3.568000   -6.142000   -1.040000
  C     -1.476000   -4.049000   -0.034000
  C      2.803000   -4.099000   -0.008000
  C      3.657000   -4.384000    1.069000
  C      4.427000   -5.530000    1.059000
  C      5.245000   -7.588000    0.014000
  C     -0.134000   -4.315000   -0.022000
  C      0.568000   -3.064000   -0.027000
  C      2.775000   -5.012000   -1.074000
  N      4.376000   -6.391000    0.017000
  C      1.959000   -2.869000   -0.009000
  C      2.621000   -1.622000    0.009000
  C      5.543000    4.339000   -1.130000
  C      4.070000   -1.479000   -0.094000
  C      4.104000    2.751000   -0.021000
  C      5.027000    2.729000    1.036000
  C      6.166000    3.509000    0.978000
  C      7.619000    5.153000   -0.115000
  C      4.321000   -0.148000   -0.092000
  C      3.025000    0.514000    0.015000
  C      4.387000    3.582000   -1.115000
  C      2.866000    1.916000    0.013000
  N      6.413000    4.296000   -0.095000
  H     -5.881000    5.301000   -0.794000
  H      2.274000    4.766000    0.081000
  H     -1.296000    5.361000    0.964000
  H     -2.751000    7.380000    0.966000
  H     -5.678000    7.666000    1.123000
  H     -4.549000    8.489000    0.005000
  H     -5.936000    7.571000   -0.645000
  H     -0.332000    5.282000    0.069000
  H     -4.557000    3.196000   -0.864000
  H      0.182000    1.072000    0.005000
  H     -0.183000   -1.080000   -0.021000
  H     -5.864000   -4.962000    1.895000
  H     -4.794000    2.272000    0.139000
  H     -4.800000   -2.160000   -1.994000
  H     -6.841000   -3.582000   -1.893000
  H     -8.428000   -4.536000    0.546000
  H     -7.956000   -5.337000   -0.981000
  H     -7.456000   -6.037000    0.584000
  H     -5.287000   -0.344000    0.100000
  H     -3.780000   -3.601000    1.947000
  H      3.587000   -6.868000   -1.843000
  H     -2.276000   -4.774000   -0.050000
  H      3.714000   -3.724000    1.926000
  H      5.092000   -5.795000    1.871000
  H      6.205000   -7.329000   -0.439000
  H      5.393000   -7.917000    1.042000
  H      4.759000   -8.373000   -0.564000
  H      0.329000   -5.290000   -0.008000
  H      2.146000   -4.842000   -1.940000
  H      5.808000    4.986000   -1.956000
  H      4.788000   -2.281000   -0.185000
  H      4.860000    2.114000    1.912000
  H      6.901000    3.531000    1.772000
  H      7.383000    6.109000    0.356000
  H      8.414000    4.652000    0.435000
  H      7.921000    5.310000   -1.150000
  H      5.283000    0.336000   -0.179000
  H      3.720000    3.632000   -1.967000

 Total Charge           Charge          ....    0
 Multiplicity           Mult            ....    1
 Number of Electrons    NEL             ....  358
 Basis Dimension        Dim             ....  918

ORBITAL ENERGIES
----------------

  NO   OCC          E(Eh)            E(eV)
   0   2.0000     -15.676761      -426.5864
   1   2.0000     -15.636644      -425.4947
   2   2.0000     -15.629293      -425.2947
   3   2.0000     -15.588095      -424.1736
   4   2.0000     -15.525607      -422.4732
   5   2.0000     -15.515685      -422.2033
   6   2.0000     -15.452697      -420.4893
   7   2.0000     -15.441855      -420.1942
   8   2.0000     -11.327272      -308.2307
   9   2.0000     -11.326061      -308.1978
  10   2.0000     -11.325421      -308.1804
  11   2.0000     -11.300991      -307.5156
  12   2.0000     -11.296761      -307.4005
  13   2.0000     -11.295070      -307.3545
  14   2.0000     -11.289151      -307.1934
  15   2.0000     -11.288870      -307.1858
  16   2.0000     -11.284540      -307.0680
  17   2.0000     -11.279234      -306.9236
  18   2.0000     -11.271104      -306.7023
  19   2.0000     -11.261287      -306.4352
  20   2.0000     -11.260327      -306.4091
  21   2.0000     -11.253174      -306.2144
  22   2.0000     -11.251771      -306.1763
  23   2.0000     -11.240338      -305.8651
  24   2.0000     -11.234147      -305.6967
  25   2.0000     -11.233214      -305.6713
  26   2.0000     -11.232607      -305.6548
  27   2.0000     -11.227866      -305.5258
  28   2.0000     -11.227541      -305.5169
  29   2.0000     -11.211536      -305.0814
  30   2.0000     -11.210029      -305.0404
  31   2.0000     -11.196590      -304.6747
  32   2.0000     -11.190336      -304.5045
  33   2.0000     -11.189629      -304.4853
  34   2.0000     -11.188347      -304.4504
  35   2.0000     -11.186305      -304.3948
  36   2.0000     -11.186226      -304.3927
  37   2.0000     -11.185923      -304.3844
  38   2.0000     -11.185028      -304.3601
  39   2.0000     -11.174525      -304.0743
  40   2.0000     -11.174241      -304.0666
  41   2.0000     -11.169270      -303.9313
  42   2.0000     -11.168968      -303.9231
  43   2.0000     -11.160800      -303.7008
  44   2.0000     -11.159739      -303.6719
  45   2.0000     -11.158821      -303.6469
  46   2.0000     -11.156346      -303.5796
  47   2.0000     -11.154380      -303.5261
  48   2.0000     -11.146429      -303.3098
  49   2.0000     -11.137102      -303.0559
  50   2.0000     -11.132087      -302.9195
  51   2.0000     -11.121778      -302.6390
  52   2.0000      -1.357804       -36.9477
  53   2.0000      -1.323538       -36.0153
  54   2.0000      -1.317429       -35.8491
  55   2.0000      -1.281931       -34.8831
  56   2.0000      -1.226581       -33.3770
  57   2.0000      -1.209975       -32.9251
  58   2.0000      -1.171851       -31.8877
  59   2.0000      -1.152173       -31.3522
  60   2.0000      -1.141486       -31.0614
  61   2.0000      -1.112132       -30.2627
  62   2.0000      -1.107200       -30.1284
  63   2.0000      -1.079695       -29.3800
  64   2.0000      -1.078518       -29.3480
  65   2.0000      -1.047642       -28.5078
  66   2.0000      -1.042192       -28.3595
  67   2.0000      -1.039785       -28.2940
  68   2.0000      -1.015293       -27.6275
  69   2.0000      -1.011973       -27.5372
  70   2.0000      -1.008925       -27.4542
  71   2.0000      -0.993899       -27.0454
  72   2.0000      -0.986044       -26.8316
  73   2.0000      -0.981090       -26.6968
  74   2.0000      -0.971920       -26.4473
  75   2.0000      -0.960767       -26.1438
  76   2.0000      -0.953448       -25.9446
  77   2.0000      -0.945812       -25.7369
  78   2.0000      -0.935011       -25.4429
  79   2.0000      -0.918207       -24.9857
  80   2.0000      -0.908367       -24.7179
  81   2.0000      -0.894831       -24.3496
  82   2.0000      -0.875646       -23.8275
  83   2.0000      -0.873448       -23.7677
  84   2.0000      -0.868385       -23.6300
  85   2.0000      -0.857043       -23.3213
  86   2.0000      -0.839009       -22.8306
  87   2.0000      -0.836556       -22.7639
  88   2.0000      -0.824511       -22.4361
  89   2.0000      -0.797437       -21.6994
  90   2.0000      -0.790353       -21.5066
  91   2.0000      -0.752213       -20.4688
  92   2.0000      -0.745069       -20.2744
  93   2.0000      -0.733753       -19.9664
  94   2.0000      -0.725058       -19.7298
  95   2.0000      -0.722234       -19.6530
  96   2.0000      -0.716605       -19.4998
  97   2.0000      -0.713048       -19.4030
  98   2.0000      -0.707652       -19.2562
  99   2.0000      -0.697680       -18.9849
 100   2.0000      -0.696226       -18.9453
 101   2.0000      -0.684979       -18.6392
 102   2.0000      -0.682269       -18.5655
 103   2.0000      -0.679628       -18.4936
 104   2.0000      -0.678915       -18.4742
 105   2.0000      -0.672579       -18.3018
 106   2.0000      -0.670298       -18.2397
 107   2.0000      -0.660990       -17.9865
 108   2.0000      -0.655222       -17.8295
 109   2.0000      -0.654551       -17.8112
 110   2.0000      -0.649674       -17.6785
 111   2.0000      -0.643985       -17.5237
 112   2.0000      -0.643670       -17.5152
 113   2.0000      -0.638930       -17.3862
 114   2.0000      -0.636905       -17.3311
 115   2.0000      -0.626798       -17.0560
 116   2.0000      -0.622444       -16.9376
 117   2.0000      -0.618764       -16.8374
 118   2.0000      -0.614495       -16.7213
 119   2.0000      -0.613272       -16.6880
 120   2.0000      -0.609722       -16.5914
 121   2.0000      -0.609275       -16.5792
 122   2.0000      -0.599413       -16.3109
 123   2.0000      -0.586505       -15.9596
 124   2.0000      -0.583044       -15.8654
 125   2.0000      -0.580472       -15.7955
 126   2.0000      -0.578791       -15.7497
 127   2.0000      -0.574343       -15.6287
 128   2.0000      -0.568591       -15.4722
 129   2.0000      -0.559093       -15.2137
 130   2.0000      -0.551012       -14.9938
 131   2.0000      -0.547628       -14.9017
 132   2.0000      -0.543471       -14.7886
 133   2.0000      -0.542082       -14.7508
 134   2.0000      -0.539630       -14.6841
 135   2.0000      -0.534523       -14.5451
 136   2.0000      -0.528430       -14.3793
 137   2.0000      -0.520771       -14.1709
 138   2.0000      -0.518429       -14.1072
 139   2.0000      -0.514121       -13.9899
 140   2.0000      -0.511823       -13.9274
 141   2.0000      -0.510659       -13.8957
 142   2.0000      -0.510311       -13.8863
 143   2.0000      -0.504095       -13.7171
 144   2.0000      -0.500371       -13.6158
 145   2.0000      -0.495977       -13.4962
 146   2.0000      -0.493060       -13.4168
 147   2.0000      -0.482620       -13.1327
 148   2.0000      -0.478004       -13.0072
 149   2.0000      -0.467039       -12.7088
 150   2.0000      -0.466059       -12.6821
 151   2.0000      -0.457092       -12.4381
 152   2.0000      -0.450427       -12.2567
 153   2.0000      -0.445862       -12.1325
 154   2.0000      -0.441014       -12.0006
 155   2.0000      -0.428170       -11.6511
 156   2.0000      -0.422777       -11.5044
 157   2.0000      -0.414270       -11.2729
 158   2.0000      -0.407177       -11.0798
 159   2.0000      -0.387302       -10.5390
 160   2.0000      -0.385654       -10.4942
 161   2.0000      -0.378119       -10.2891
 162   2.0000      -0.371377       -10.1057
 163   2.0000      -0.358522        -9.7559
 164   2.0000      -0.354113        -9.6359
 165   2.0000      -0.340617        -9.2687
 166   2.0000      -0.337867        -9.1938
 167   2.0000      -0.326438        -8.8828
 168   2.0000      -0.322097        -8.7647
 169   2.0000      -0.305697        -8.3184
 170   2.0000      -0.299389        -8.1468
 171   2.0000      -0.285208        -7.7609
 172   2.0000      -0.280466        -7.6319
 173   2.0000      -0.262582        -7.1452
 174   2.0000      -0.242559        -6.6004
 175   2.0000      -0.190097        -5.1728
 176   2.0000      -0.180622        -4.9150
 177   2.0000      -0.077713        -2.1147
 178   2.0000      -0.058966        -1.6046
 179   0.0000       0.028218         0.7679
 180   0.0000       0.065591         1.7848
 181   0.0000       0.090939         2.4746
 182   0.0000       0.108121         2.9421
 183   0.0000       0.112128         3.0512

MULLIKEN ATOMIC CHARGES
-----------------------
   0 C :    0.210049
   1 N :   -0.456806
   2 C :   -0.071681
   3 N :   -0.338514
   4 C :   -0.056463
   5 N :   -0.563765
   6 C :   -0.122775
   7 N :   -0.340628
   8 C :    0.211409
   9 N :   -0.562609
  10 C :    0.118924
  11 N :   -0.437933
  12 C :   -0.074327
  13 N :   -0.430069
  14 C :    0.216337
  15 N :   -0.441470
  16 C :    0.231165
  17 C :   -0.120032
  18 C :   -0.156617
  19 C :    0.204005
  20 C :    0.214419
  21 C :   -0.087730
  22 C :   -0.089088
  23 C :   -0.040260
  24 C :    0.195358
  25 C :    0.114251
  26 C :   -0.082556
  27 C :    0.212704
  28 C :   -0.060902
  29 C :   -0.181644
  30 C :    0.245370
  31 C :    0.229984
  32 C :   -0.061331
  33 C :   -0.061829
  34 C :   -0.049998
  35 C :    0.225758
  36 C :    0.108627
  37 C :   -0.064390
  38 C :    0.232472
  39 C :   -0.058828
  40 C :   -0.181075
  41 C :    0.224388
  42 C :    0.197009
  43 C :   -0.072710
  44 C :   -0.090974
  45 C :   -0.061149
  46 C :    0.209902
  47 C :    0.115657
  48 C :   -0.067688
  49 C :    0.237729
  50 C :   -0.046711
  51 C :   -0.194675
  52 H :    0.038003
  53 H :   -0.017346
  54 H :    0.050569
  55 H :    0.036922
  56 H :    0.049196
  57 H :    0.047734
  58 H :    0.046712
  59 H :    0.000273
  60 H :    0.052633
  61 H :    0.170963
  62 H :    0.175624
  63 H :    0.056257
  64 H :   -0.005199
  65 H :    0.047130
  66 H :    0.056384
  67 H :    0.063250
  68 H :    0.057670
  69 H :    0.057030
  70 H :   -0.029081
  71 H :    0.045861
  72 H :    0.070499
  73 H :   -0.008144
  74 H :    0.059680
  75 H :    0.069796
  76 H :    0.074241
  77 H :    0.067426
  78 H :    0.066608
  79 H :   -0.015958
  80 H :    0.060352
  81 H :    0.053787
  82 H :   -0.025244
  83 H :    0.041059
  84 H :    0.053284
  85 H :    0.060106
  86 H :    0.055066
  87 H :    0.056794
  88 H :   -0.014825
  89 H :    0.046599
Sum of atomic charges:   -0.0000000

LOEWDIN ATOMIC CHARGES
----------------------
   0 C :   -0.024109
   1 N :    0.116230
   2 C :   -0.102652
   3 N :    0.183399
   4 C :   -0.012346
   5 N :   -0.131214
   6 C :   -0.044027
   7 N :    0.175392
   8 C :   -0.020419
   9 N :   -0.140564
  10 C :    0.023328
  11 N :    0.143260
  12 C :   -0.115811
  13 N :    0.164745
  14 C :   -0.026813
  15 N :    0.137575
  16 C :   -0.058367
  17 C :   -0.042522
  18 C :   -0.103267
  19 C :   -0.081178
  20 C :    0.005770
  21 C :   -0.121925
  22 C :    0.038950
  23 C :   -0.014763
  24 C :   -0.010804
  25 C :    0.030135
  26 C :   -0.108927
  27 C :   -0.116445
  28 C :   -0.026627
  29 C :   -0.098686
  30 C :   -0.031603
  31 C :    0.023792
  32 C :   -0.093528
  33 C :    0.079308
  34 C :   -0.014716
  35 C :    0.020372
  36 C :    0.034900
  37 C :   -0.094428
  38 C :   -0.049847
  39 C :   -0.018608
  40 C :   -0.108137
  41 C :   -0.093390
  42 C :   -0.010974
  43 C :   -0.099925
  44 C :    0.031468
  45 C :   -0.028370
  46 C :    0.000131
  47 C :    0.029223
  48 C :   -0.096152
  49 C :   -0.070126
  50 C :   -0.019239
  51 C :   -0.110108
  52 H :    0.022859
  53 H :    0.002724
  54 H :    0.036419
  55 H :    0.023142
  56 H :    0.021646
  57 H :    0.026341
  58 H :    0.026763
  59 H :    0.011842
  60 H :    0.039296
  61 H :    0.060005
  62 H :    0.061918
  63 H :    0.031173
  64 H :    0.008391
  65 H :    0.045884
  66 H :    0.029613
  67 H :    0.028632
  68 H :    0.031830
  69 H :    0.030609
  70 H :   -0.004364
  71 H :    0.043961
  72 H :    0.037366
  73 H :    0.007055
  74 H :    0.050439
  75 H :    0.036883
  76 H :    0.034439
  77 H :    0.035916
  78 H :    0.035554
  79 H :    0.003262
  80 H :    0.050278
  81 H :    0.028826
  82 H :   -0.002914
  83 H :    0.042155
  84 H :    0.029445
  85 H :    0.027002
  86 H :    0.029950
  87 H :    0.031210
  88 H :    0.002227
  89 H :    0.044860

  Mayer bond orders larger than 0.100000
B(  0-C ,  1-N ) :   1.0883 B(  0-C , 17-C ) :   1.7136 B(  0-C , 52-H ) :   0.9654
B(  1-N ,  8-C ) :   1.0909 B(  1-N , 10-C ) :   0.9784 B(  2-C , 12-C ) :   1.4992
B(  2-C , 16-C ) :   1.3619 B(  2-C , 53-H ) :   0.9751 B(  3-N , 14-C ) :   1.2190
B(  3-N , 16-C ) :   1.1887 B(  3-N , 61-H ) :   0.8993 B(  4-C ,  6-C ) :   1.2108
B(  4-C , 17-C ) :   1.2115 B(  4-C , 18-C ) :   1.4506 B(  5-N , 19-C ) :   1.4544
B(  5-N , 27-C ) :   1.3771 B(  6-C ,  8-C ) :   1.7123 B(  6-C , 54-H ) :   0.9437
B(  7-N , 30-C ) :   1.1942 B(  7-N , 38-C ) :   1.1914 B(  7-N , 62-H ) :   0.8967
B(  8-C , 55-H ) :   0.9663 B(  9-N , 41-C ) :   1.3924 B(  9-N , 49-C ) :   1.4278
B( 10-C , 56-H ) :   0.9771 B( 10-C , 57-H ) :   0.9833 B( 10-C , 58-H ) :   0.9834
B( 11-N , 20-C ) :   1.1323 B( 11-N , 24-C ) :   1.1096 B( 11-N , 25-C ) :   0.9592
B( 12-C , 14-C ) :   1.3581 B( 12-C , 59-H ) :   0.9684 B( 13-N , 31-C ) :   1.1603
B( 13-N , 35-C ) :   1.1560 B( 13-N , 36-C ) :   0.9425 B( 14-C , 18-C ) :   1.1236
B( 15-N , 42-C ) :   1.1066 B( 15-N , 46-C ) :   1.1218 B( 15-N , 47-C ) :   0.9622
B( 16-C , 51-C ) :   1.1693 B( 17-C , 60-H ) :   0.9457 B( 18-C , 19-C ) :   1.1259
B( 19-C , 21-C ) :   1.2478 B( 20-C , 28-C ) :   1.6263 B( 20-C , 63-H ) :   0.9702
B( 21-C , 26-C ) :   1.6031 B( 21-C , 64-H ) :   0.9675 B( 22-C , 23-C ) :   1.2910
B( 22-C , 28-C ) :   1.2664 B( 22-C , 29-C ) :   1.2213 B( 23-C , 24-C ) :   1.6178
B( 23-C , 65-H ) :   0.9704 B( 24-C , 66-H ) :   0.9695 B( 25-C , 67-H ) :   0.9760
B( 25-C , 68-H ) :   0.9828 B( 25-C , 69-H ) :   0.9823 B( 26-C , 27-C ) :   1.2444
B( 26-C , 70-H ) :   0.9694 B( 27-C , 29-C ) :   1.2111 B( 28-C , 71-H ) :   0.9719
B( 29-C , 30-C ) :   1.2452 B( 30-C , 32-C ) :   1.2795 B( 31-C , 39-C ) :   1.5907
B( 31-C , 72-H ) :   0.9682 B( 32-C , 37-C ) :   1.5798 B( 32-C , 73-H ) :   0.9785
B( 33-C , 34-C ) :   1.3064 B( 33-C , 39-C ) :   1.3008 B( 33-C , 40-C ) :   1.1791
B( 34-C , 35-C ) :   1.5874 B( 34-C , 74-H ) :   0.9696 B( 35-C , 75-H ) :   0.9682
B( 36-C , 76-H ) :   0.9767 B( 36-C , 77-H ) :   0.9816 B( 36-C , 78-H ) :   0.9824
B( 37-C , 38-C ) :   1.2843 B( 37-C , 79-H ) :   0.9766 B( 38-C , 40-C ) :   1.2339
B( 39-C , 80-H ) :   0.9706 B( 40-C , 41-C ) :   1.2486 B( 41-C , 43-C ) :   1.1880
B( 42-C , 50-C ) :   1.6357 B( 42-C , 81-H ) :   0.9697 B( 43-C , 48-C ) :   1.6642
B( 43-C , 82-H ) :   0.9721 B( 44-C , 45-C ) :   1.2620 B( 44-C , 50-C ) :   1.2698
B( 44-C , 51-C ) :   1.2652 B( 45-C , 46-C ) :   1.6368 B( 45-C , 83-H ) :   0.9718
B( 46-C , 84-H ) :   0.9701 B( 47-C , 85-H ) :   0.9762 B( 47-C , 86-H ) :   0.9829
B( 47-C , 87-H ) :   0.9825 B( 48-C , 49-C ) :   1.1916 B( 48-C , 88-H ) :   0.9749
B( 49-C , 51-C ) :   1.2394 B( 50-C , 89-H ) :   0.9709

MP2 TOTAL ENERGY:    -2130.872234667 Eh
FINAL SINGLE POINT ENERGY     -2130.872234667370

DIPOLE MOMENT
-------------
                                X             Y             Z
Electronic contribution:      2.38670      -4.28879      -0.22281
Nuclear contribution   :      0.04318       0.21569       0.22034
                        -----------------------------------------
Total Dipole Moment    :      2.42988      -4.07309      -0.00247
                        -----------------------------------------
Magnitude (a.u.)       :      4.74283
Magnitude (Debye)      :     12.05531

Rotational constants in cm-1:     0.001501     0.001479     0.000760
Rotational constants in MHz :    44.986807    44.327774    22.795688

                             ****ORCA TERMINATED NORMALLY****
TOTAL RUN TIME: 0 days 1 hours 17 minutes 26 seconds 890 msec
