                         Program Version 5.0.4 -  RELEASE  -
|  1> ! PAL2
|  2> ! mp2 cc-pvdz TightSCF  NoKeepInts
|  3>
|  4> %scf
|  5>   MaxCore 2000
|  6> end
|  7> %mp2
|  8>   MaxCore 2000
|  9> end
| 10> * xyz 0 1
| 11>    C       -3.07500         6.47300        -0.24000
| 12>    C        1.47400         4.04100         0.05700
| 13>    C       -2.80200         4.09300         0.04900
| 14>    C       -4.15600         4.03400         0.41200
| 15>    C       -4.91900         5.18400         0.43500
| 16>    C       -5.23000         7.59000         0.11300
| 17>    C        0.13200         4.30700         0.06100
| 18>    C       -0.56900         3.05600         0.04700
| 19>    C        1.64900         2.61800         0.02300
| 20>    C       -2.27300         5.35000        -0.28300
| 21>    N       -4.37600         6.38200         0.11600
| 22>    N        0.38800         2.06700         0.02500
| 23>    N       -2.01000         0.39500        -0.07500
| 24>    N       -0.38800        -2.07400        -0.02700
| 25>    N        2.01000        -0.40100         0.06500
| 26>    C       -1.96000         2.86100         0.02400
| 27>    C       -2.62300         1.61500        -0.01800
| 28>    C       -5.57300        -4.32900         1.06600
| 29>    C       -4.07300         1.47100         0.05600
| 30>    C       -4.10600        -2.75600        -0.02600
| 31>    C       -4.99500        -2.75700        -1.11100
| 32>    C       -6.13200        -3.54200        -1.07600
| 33>    C       -7.65100        -5.11300         0.04000
| 34>    C       -4.32400         0.14100         0.03700
| 35>    C       -3.02500        -0.52000        -0.04800
| 36>    C       -4.42200        -3.56600         1.07500
| 37>    N       -6.40700        -4.31300         0.00100
| 38>    C       -2.86700        -1.92200        -0.04000
| 39>    C       -1.65000        -2.62400        -0.02700
| 40>    C        3.56800        -6.14200        -1.04000
| 41>    C       -1.47600        -4.04900        -0.03400
| 42>    C        2.80300        -4.09900        -0.00800
| 43>    C        3.65700        -4.38400         1.06900
| 44>    C        4.42700        -5.53000         1.05900
| 45>    C        5.24500        -7.58800         0.01400
| 46>    C       -0.13400        -4.31500        -0.02200
| 47>    C        0.56800        -3.06400        -0.02700
| 48>    C        2.77500        -5.01200        -1.07400
| 49>    N        4.37600        -6.39100         0.01700
| 50>    C        1.95900        -2.86900        -0.00900
| 51>    C        2.62100        -1.62200         0.00900
| 52>    C        5.54300         4.33900        -1.13000
| 53>    C        4.07000        -1.47900        -0.09400
| 54>    C        4.10400         2.75100        -0.02100
| 55>    C        5.02700         2.72900         1.03600
| 56>    C        6.16600         3.50900         0.97800
| 57>    C        7.61900         5.15300        -0.11500
| 58>    C        4.32100        -0.14800        -0.09200
| 59>    C        3.02500         0.51400         0.01500
| 60>    C        4.38700         3.58200        -1.11500
| 61>    C        2.86600         1.91600         0.01300
| 62>    N        6.41300         4.29600        -0.09500
| 63>    H       -2.70600         7.46400        -0.47600
| 64>    H        2.27400         4.76600         0.08100
| 65>    H       -4.62500         3.09200         0.67000
| 66>    H       -5.96900         5.18600         0.70000
| 67>    H       -5.72600         7.67300        -0.85700
| 68>    H       -5.97200         7.49800         0.90600
| 69>    H       -4.60200         8.46300         0.28800
| 70>    H       -0.33200         5.28200         0.06900
| 71>    H       -1.23000         5.46300        -0.55800
| 72>    H        0.18200         1.07200         0.00500
| 73>    H       -0.18300        -1.08000        -0.02100
| 74>    H       -5.86400        -4.96200         1.89500
| 75>    H       -4.79400         2.27200         0.13900
| 76>    H       -4.80000        -2.16000        -1.99400
| 77>    H       -6.84100        -3.58200        -1.89300
| 78>    H       -8.42800        -4.53600         0.54600
| 79>    H       -7.95600        -5.33700        -0.98100
| 80>    H       -7.45600        -6.03700         0.58400
| 81>    H       -5.28700        -0.34400         0.10000
| 82>    H       -3.78000        -3.60100         1.94700
| 83>    H        3.58700        -6.86800        -1.84300
| 84>    H       -2.27600        -4.77400        -0.05000
| 85>    H        3.71400        -3.72400         1.92600
| 86>    H        5.09200        -5.79500         1.87100
| 87>    H        6.20500        -7.32900        -0.43900
| 88>    H        5.39300        -7.91700         1.04200
| 89>    H        4.75900        -8.37300        -0.56400
| 90>    H        0.32900        -5.29000        -0.00800
| 91>    H        2.14600        -4.84200        -1.94000
| 92>    H        5.80800         4.98600        -1.95600
| 93>    H        4.78800        -2.28100        -0.18500
| 94>    H        4.86000         2.11400         1.91200
| 95>    H        6.90100         3.53100         1.77200
| 96>    H        7.38300         6.10900         0.35600
| 97>    H        8.41400         4.65200         0.43500
| 98>    H        7.92100         5.31000        -1.15000
| 99>    H        5.28300         0.33600        -0.17900
|100>    H        3.72000         3.63200        -1.96700
|101> *
|102>
|103>                          ****END OF INPUT****

CARTESIAN COORDINATES (ANGSTROEM)
---------------------------------
  C     -3.075000    6.473000   -0.240000
  C      1.474000    4.041000    0.057000
  C     -2.802000    4.093000    0.049000
  C     -4.156000    4.034000    0.412000
  C     -4.919000    5.184000    0.435000
  C     -5.230000    7.590000    0.113000
  C      0.132000    4.307000    0.061000
  C     -0.569000    3.056000    0.047000
  C      1.649000    2.618000    0.023000
  C     -2.273000    5.350000   -0.283000
  N     -4.376000    6.382000    0.116000
  N      0.388000    2.067000    0.025000
  N     -2.010000    0.395000   -0.075000
  N     -0.388000   -2.074000   -0.027000
  N      2.010000   -0.401000    0.065000
  C     -1.960000    2.861000    0.024000
  C     -2.623000    1.615000   -0.018000
  C     -5.573000   -4.329000    1.066000
  C     -4.073000    1.471000    0.056000
  C     -4.106000   -2.756000   -0.026000
  C     -4.995000   -2.757000   -1.111000
  C     -6.132000   -3.542000   -1.076000
  C     -7.651000   -5.113000    0.040000
  C     -4.324000    0.141000    0.037000
  C     -3.025000   -0.520000   -0.048000
  C     -4.422000   -3.566000    1.075000
  N     -6.407000   -4.313000    0.001000
  C     -2.867000   -1.922000   -0.040000
  C     -1.650000   -2.624000   -0.027000
  C      3.568000   -6.142000   -1.040000
  C     -1.476000   -4.049000   -0.034000
  C      2.803000   -4.099000   -0.008000
  C      3.657000   -4.384000    1.069000
  C      4.427000   -5.530000    1.059000
  C      5.245000   -7.588000    0.014000
  C     -0.134000   -4.315000   -0.022000
  C      0.568000   -3.064000   -0.027000
  C      2.775000   -5.012000   -1.074000
  N      4.376000   -6.391000    0.017000
  C      1.959000   -2.869000   -0.009000
  C      2.621000   -1.622000    0.009000
  C      5.543000    4.339000   -1.130000
  C      4.070000   -1.479000   -0.094000
  C      4.104000    2.751000   -0.021000
  C      5.027000    2.729000    1.036000
  C      6.166000    3.509000    0.978000
  C      7.619000    5.153000   -0.115000
  C      4.321000   -0.148000   -0.092000
  C      3.025000    0.514000    0.015000
  C      4.387000    3.582000   -1.115000
  C      2.866000    1.916000    0.013000
  N      6.413000    4.296000   -0.095000
  H     -2.706000    7.464000   -0.476000
  H      2.274000    4.766000    0.081000
  H     -4.625000    3.092000    0.670000
  H     -5.969000    5.186000    0.700000
  H     -5.726000    7.673000   -0.857000
  H     -5.972000    7.498000    0.906000
  H     -4.602000    8.463000    0.288000
  H     -0.332000    5.282000    0.069000
  H     -1.230000    5.463000   -0.558000
  H      0.182000    1.072000    0.005000
  H     -0.183000   -1.080000   -0.021000
  H     -5.864000   -4.962000    1.895000
  H     -4.794000    2.272000    0.139000
  H     -4.800000   -2.160000   -1.994000
  H     -6.841000   -3.582000   -1.893000
  H     -8.428000   -4.536000    0.546000
  H     -7.956000   -5.337000   -0.981000
  H     -7.456000   -6.037000    0.584000
  H     -5.287000   -0.344000    0.100000
  H     -3.780000   -3.601000    1.947000
  H      3.587000   -6.868000   -1.843000
  H     -2.276000   -4.774000   -0.050000
  H      3.714000   -3.724000    1.926000
  H      5.092000   -5.795000    1.871000
  H      6.205000   -7.329000   -0.439000
  H      5.393000   -7.917000    1.042000
  H      4.759000   -8.373000   -0.564000
  H      0.329000   -5.290000   -0.008000
  H      2.146000   -4.842000   -1.940000
  H      5.808000    4.986000   -1.956000
  H      4.788000   -2.281000   -0.185000
  H      4.860000    2.114000    1.912000
  H      6.901000    3.531000    1.772000
  H      7.383000    6.109000    0.356000
  H      8.414000    4.652000    0.435000
  H      7.921000    5.310000   -1.150000
  H      5.283000    0.336000   -0.179000
  H      3.720000    3.632000   -1.967000

 Total Charge           Charge          ....    0
 Multiplicity           Mult            ....    1
 Number of Electrons    NEL             ....  358
 Basis Dimension        Dim             ....  918

ORBITAL ENERGIES
----------------

  NO   OCC          E(Eh)            E(eV)
   0   2.0000     -15.678963      -426.6463
   1   2.0000     -15.633092      -425.3980
   2   2.0000     -15.632557      -425.3835
   3   2.0000     -15.588558      -424.1862
   4   2.0000     -15.524886      -422.4536
   5   2.0000     -15.515761      -422.2053
   6   2.0000     -15.453915      -420.5224
   7   2.0000     -15.439749      -420.1369
   8   2.0000     -11.328650      -308.2682
   9   2.0000     -11.327764      -308.2441
  10   2.0000     -11.327423      -308.2349
  11   2.0000     -11.298813      -307.4563
  12   2.0000     -11.298775      -307.4553
  13   2.0000     -11.292234      -307.2773
  14   2.0000     -11.291776      -307.2648
  15   2.0000     -11.287213      -307.1407
  16   2.0000     -11.285823      -307.1029
  17   2.0000     -11.281267      -306.9789
  18   2.0000     -11.270496      -306.6858
  19   2.0000     -11.262804      -306.4765
  20   2.0000     -11.261808      -306.4494
  21   2.0000     -11.252840      -306.2053
  22   2.0000     -11.249735      -306.1209
  23   2.0000     -11.237297      -305.7824
  24   2.0000     -11.236875      -305.7709
  25   2.0000     -11.230487      -305.5971
  26   2.0000     -11.230289      -305.5917
  27   2.0000     -11.230146      -305.5878
  28   2.0000     -11.229698      -305.5756
  29   2.0000     -11.210570      -305.0551
  30   2.0000     -11.209296      -305.0205
  31   2.0000     -11.195138      -304.6352
  32   2.0000     -11.191216      -304.5285
  33   2.0000     -11.191058      -304.5242
  34   2.0000     -11.188525      -304.4552
  35   2.0000     -11.188500      -304.4546
  36   2.0000     -11.187135      -304.4174
  37   2.0000     -11.180742      -304.2435
  38   2.0000     -11.175863      -304.1107
  39   2.0000     -11.174239      -304.0665
  40   2.0000     -11.171590      -303.9944
  41   2.0000     -11.171198      -303.9838
  42   2.0000     -11.167817      -303.8917
  43   2.0000     -11.161899      -303.7307
  44   2.0000     -11.160178      -303.6839
  45   2.0000     -11.156841      -303.5931
  46   2.0000     -11.156610      -303.5868
  47   2.0000     -11.153517      -303.5026
  48   2.0000     -11.147321      -303.3340
  49   2.0000     -11.135918      -303.0237
  50   2.0000     -11.129406      -302.8465
  51   2.0000     -11.117202      -302.5144
  52   2.0000      -1.359680       -36.9988
  53   2.0000      -1.320463       -35.9316
  54   2.0000      -1.320240       -35.9255
  55   2.0000      -1.281662       -34.8758
  56   2.0000      -1.225864       -33.3574
  57   2.0000      -1.210391       -32.9364
  58   2.0000      -1.173518       -31.9330
  59   2.0000      -1.150592       -31.3092
  60   2.0000      -1.143095       -31.1052
  61   2.0000      -1.110227       -30.2108
  62   2.0000      -1.108871       -30.1739
  63   2.0000      -1.081428       -29.4271
  64   2.0000      -1.077969       -29.3330
  65   2.0000      -1.044868       -28.4323
  66   2.0000      -1.044681       -28.4272
  67   2.0000      -1.040750       -28.3203
  68   2.0000      -1.014882       -27.6164
  69   2.0000      -1.013176       -27.5699
  70   2.0000      -1.009143       -27.4602
  71   2.0000      -0.993241       -27.0275
  72   2.0000      -0.985956       -26.8292
  73   2.0000      -0.981384       -26.7048
  74   2.0000      -0.972744       -26.4697
  75   2.0000      -0.962121       -26.1806
  76   2.0000      -0.954599       -25.9760
  77   2.0000      -0.945776       -25.7359
  78   2.0000      -0.936807       -25.4918
  79   2.0000      -0.917491       -24.9662
  80   2.0000      -0.909915       -24.7600
  81   2.0000      -0.896203       -24.3869
  82   2.0000      -0.876251       -23.8440
  83   2.0000      -0.871649       -23.7188
  84   2.0000      -0.870719       -23.6935
  85   2.0000      -0.859129       -23.3781
  86   2.0000      -0.842795       -22.9336
  87   2.0000      -0.835543       -22.7363
  88   2.0000      -0.826800       -22.4984
  89   2.0000      -0.796877       -21.6841
  90   2.0000      -0.789582       -21.4856
  91   2.0000      -0.758685       -20.6449
  92   2.0000      -0.752039       -20.4640
  93   2.0000      -0.733369       -19.9560
  94   2.0000      -0.726438       -19.7674
  95   2.0000      -0.723051       -19.6752
  96   2.0000      -0.718407       -19.5489
  97   2.0000      -0.715855       -19.4794
  98   2.0000      -0.711911       -19.3721
  99   2.0000      -0.697971       -18.9928
 100   2.0000      -0.696980       -18.9658
 101   2.0000      -0.691270       -18.8104
 102   2.0000      -0.684824       -18.6350
 103   2.0000      -0.683796       -18.6070
 104   2.0000      -0.678483       -18.4625
 105   2.0000      -0.674405       -18.3515
 106   2.0000      -0.672123       -18.2894
 107   2.0000      -0.660342       -17.9688
 108   2.0000      -0.657982       -17.9046
 109   2.0000      -0.652619       -17.7587
 110   2.0000      -0.652074       -17.7438
 111   2.0000      -0.645566       -17.5667
 112   2.0000      -0.645006       -17.5515
 113   2.0000      -0.637390       -17.3443
 114   2.0000      -0.636944       -17.3321
 115   2.0000      -0.628314       -17.0973
 116   2.0000      -0.622742       -16.9457
 117   2.0000      -0.621296       -16.9063
 118   2.0000      -0.612867       -16.6770
 119   2.0000      -0.612042       -16.6545
 120   2.0000      -0.611694       -16.6450
 121   2.0000      -0.610708       -16.6182
 122   2.0000      -0.601186       -16.3591
 123   2.0000      -0.587567       -15.9885
 124   2.0000      -0.581277       -15.8173
 125   2.0000      -0.580941       -15.8082
 126   2.0000      -0.579886       -15.7795
 127   2.0000      -0.571181       -15.5426
 128   2.0000      -0.568586       -15.4720
 129   2.0000      -0.559808       -15.2331
 130   2.0000      -0.553467       -15.0606
 131   2.0000      -0.547758       -14.9053
 132   2.0000      -0.542506       -14.7623
 133   2.0000      -0.541261       -14.7285
 134   2.0000      -0.538210       -14.6454
 135   2.0000      -0.536309       -14.5937
 136   2.0000      -0.530720       -14.4416
 137   2.0000      -0.519614       -14.1394
 138   2.0000      -0.516580       -14.0568
 139   2.0000      -0.514851       -14.0098
 140   2.0000      -0.512458       -13.9447
 141   2.0000      -0.510560       -13.8931
 142   2.0000      -0.508498       -13.8369
 143   2.0000      -0.504785       -13.7359
 144   2.0000      -0.502400       -13.6710
 145   2.0000      -0.496050       -13.4982
 146   2.0000      -0.489479       -13.3194
 147   2.0000      -0.481902       -13.1132
 148   2.0000      -0.478103       -13.0098
 149   2.0000      -0.467492       -12.7211
 150   2.0000      -0.466407       -12.6916
 151   2.0000      -0.457041       -12.4367
 152   2.0000      -0.451658       -12.2902
 153   2.0000      -0.444743       -12.1021
 154   2.0000      -0.439043       -11.9470
 155   2.0000      -0.427554       -11.6343
 156   2.0000      -0.411575       -11.1995
 157   2.0000      -0.406347       -11.0573
 158   2.0000      -0.391309       -10.6481
 159   2.0000      -0.387144       -10.5347
 160   2.0000      -0.383276       -10.4295
 161   2.0000      -0.378509       -10.2997
 162   2.0000      -0.369604       -10.0574
 163   2.0000      -0.356522        -9.7015
 164   2.0000      -0.355891        -9.6843
 165   2.0000      -0.341953        -9.3050
 166   2.0000      -0.337674        -9.1886
 167   2.0000      -0.324679        -8.8350
 168   2.0000      -0.321744        -8.7551
 169   2.0000      -0.304980        -8.2989
 170   2.0000      -0.299557        -8.1514
 171   2.0000      -0.285470        -7.7680
 172   2.0000      -0.279431        -7.6037
 173   2.0000      -0.263837        -7.1794
 174   2.0000      -0.241465        -6.5706
 175   2.0000      -0.189963        -5.1692
 176   2.0000      -0.180810        -4.9201
 177   2.0000      -0.078717        -2.1420
 178   2.0000      -0.059480        -1.6185
 179   0.0000       0.028319         0.7706
 180   0.0000       0.065438         1.7807
 181   0.0000       0.090378         2.4593
 182   0.0000       0.106781         2.9057
 183   0.0000       0.114256         3.1091

MULLIKEN ATOMIC CHARGES
-----------------------
   0 C :    0.215576
   1 N :   -0.455417
   2 C :   -0.071424
   3 N :   -0.340154
   4 C :   -0.056605
   5 N :   -0.567317
   6 C :   -0.107535
   7 N :   -0.340802
   8 C :    0.209310
   9 N :   -0.562116
  10 C :    0.119133
  11 N :   -0.438644
  12 C :   -0.066966
  13 N :   -0.429565
  14 C :    0.224700
  15 N :   -0.440774
  16 C :    0.229938
  17 C :   -0.122043
  18 C :   -0.185032
  19 C :    0.217415
  20 C :    0.213158
  21 C :   -0.070107
  22 C :   -0.091231
  23 C :   -0.039604
  24 C :    0.193356
  25 C :    0.114716
  26 C :   -0.089809
  27 C :    0.214949
  28 C :   -0.061762
  29 C :   -0.181560
  30 C :    0.246186
  31 C :    0.229629
  32 C :   -0.061937
  33 C :   -0.060531
  34 C :   -0.051504
  35 C :    0.228476
  36 C :    0.108317
  37 C :   -0.064230
  38 C :    0.230784
  39 C :   -0.057411
  40 C :   -0.181511
  41 C :    0.226277
  42 C :    0.197696
  43 C :   -0.072263
  44 C :   -0.089065
  45 C :   -0.061398
  46 C :    0.212059
  47 C :    0.115243
  48 C :   -0.066765
  49 C :    0.238879
  50 C :   -0.046307
  51 C :   -0.192613
  52 H :    0.036671
  53 H :   -0.017741
  54 H :    0.046759
  55 H :    0.035658
  56 H :    0.049331
  57 H :    0.047680
  58 H :    0.046836
  59 H :   -0.005157
  60 H :    0.044843
  61 H :    0.171211
  62 H :    0.175397
  63 H :    0.054897
  64 H :   -0.021954
  65 H :    0.046996
  66 H :    0.055352
  67 H :    0.062117
  68 H :    0.057040
  69 H :    0.056127
  70 H :   -0.030433
  71 H :    0.044381
  72 H :    0.071175
  73 H :   -0.007998
  74 H :    0.060257
  75 H :    0.070645
  76 H :    0.074808
  77 H :    0.067915
  78 H :    0.067254
  79 H :   -0.016716
  80 H :    0.061245
  81 H :    0.054630
  82 H :   -0.024703
  83 H :    0.042284
  84 H :    0.054558
  85 H :    0.061196
  86 H :    0.055768
  87 H :    0.057406
  88 H :   -0.014435
  89 H :    0.046909
Sum of atomic charges:   -0.0000000

LOEWDIN ATOMIC CHARGES
----------------------
   0 C :   -0.018859
   1 N :    0.120018
   2 C :   -0.101102
   3 N :    0.182897
   4 C :   -0.011672
   5 N :   -0.133977
   6 C :   -0.026556
   7 N :    0.175164
   8 C :   -0.022959
   9 N :   -0.140523
  10 C :    0.023178
  11 N :    0.141396
  12 C :   -0.113043
  13 N :    0.165972
  14 C :   -0.019818
  15 N :    0.139308
  16 C :   -0.060574
  17 C :   -0.042364
  18 C :   -0.108745
  19 C :   -0.076606
  20 C :    0.004169
  21 C :   -0.113666
  22 C :    0.036317
  23 C :   -0.014635
  24 C :   -0.013040
  25 C :    0.029686
  26 C :   -0.108763
  27 C :   -0.116584
  28 C :   -0.027848
  29 C :   -0.100245
  30 C :   -0.029434
  31 C :    0.023779
  32 C :   -0.094756
  33 C :    0.081450
  34 C :   -0.015402
  35 C :    0.023099
  36 C :    0.035183
  37 C :   -0.094028
  38 C :   -0.052763
  39 C :   -0.017466
  40 C :   -0.108503
  41 C :   -0.090680
  42 C :   -0.009986
  43 C :   -0.099081
  44 C :    0.034394
  45 C :   -0.027986
  46 C :    0.002499
  47 C :    0.029627
  48 C :   -0.094605
  49 C :   -0.069498
  50 C :   -0.018632
  51 C :   -0.108408
  52 H :    0.022860
  53 H :    0.002596
  54 H :    0.013373
  55 H :    0.022579
  56 H :    0.021873
  57 H :    0.026349
  58 H :    0.026762
  59 H :    0.008847
  60 H :    0.023484
  61 H :    0.060142
  62 H :    0.061824
  63 H :    0.030551
  64 H :    0.001144
  65 H :    0.045848
  66 H :    0.029109
  67 H :    0.028066
  68 H :    0.031537
  69 H :    0.030180
  70 H :   -0.004889
  71 H :    0.043291
  72 H :    0.037634
  73 H :    0.007135
  74 H :    0.050600
  75 H :    0.037355
  76 H :    0.034747
  77 H :    0.036147
  78 H :    0.035847
  79 H :    0.002909
  80 H :    0.050736
  81 H :    0.029198
  82 H :   -0.002659
  83 H :    0.042661
  84 H :    0.030061
  85 H :    0.027546
  86 H :    0.030288
  87 H :    0.031495
  88 H :    0.002410
  89 H :    0.045035

  Mayer bond orders larger than 0.100000
B(  0-C ,  1-N ) :   1.0991 B(  0-C , 17-C ) :   1.7087 B(  0-C , 52-H ) :   0.9643
B(  1-N ,  8-C ) :   1.0883 B(  1-N , 10-C ) :   0.9776 B(  2-C , 12-C ) :   1.4953
B(  2-C , 16-C ) :   1.3667 B(  2-C , 53-H ) :   0.9734 B(  3-N , 14-C ) :   1.2211
B(  3-N , 16-C ) :   1.1832 B(  3-N , 61-H ) :   0.8988 B(  4-C ,  6-C ) :   1.2136
B(  4-C , 17-C ) :   1.2149 B(  4-C , 18-C ) :   1.4643 B(  5-N , 19-C ) :   1.4567
B(  5-N , 27-C ) :   1.3732 B(  6-C ,  8-C ) :   1.7191 B(  6-C , 54-H ) :   0.9026
B(  7-N , 30-C ) :   1.1960 B(  7-N , 38-C ) :   1.1892 B(  7-N , 62-H ) :   0.8968
B(  8-C , 55-H ) :   0.9639 B(  9-N , 41-C ) :   1.3949 B(  9-N , 49-C ) :   1.4246
B( 10-C , 56-H ) :   0.9774 B( 10-C , 57-H ) :   0.9822 B( 10-C , 58-H ) :   0.9842
B( 11-N , 20-C ) :   1.1303 B( 11-N , 24-C ) :   1.1062 B( 11-N , 25-C ) :   0.9606
B( 12-C , 14-C ) :   1.3568 B( 12-C , 59-H ) :   0.9522 B( 13-N , 31-C ) :   1.1605
B( 13-N , 35-C ) :   1.1601 B( 13-N , 36-C ) :   0.9416 B( 14-C , 18-C ) :   1.1221
B( 15-N , 42-C ) :   1.1084 B( 15-N , 46-C ) :   1.1251 B( 15-N , 47-C ) :   0.9609
B( 16-C , 51-C ) :   1.1689 B( 17-C , 60-H ) :   0.9229 B( 18-C , 19-C ) :   1.1218
B( 19-C , 21-C ) :   1.2523 B( 20-C , 28-C ) :   1.6296 B( 20-C , 63-H ) :   0.9703
B( 21-C , 26-C ) :   1.5844 B( 21-C , 64-H ) :   0.9330 B( 22-C , 23-C ) :   1.2884
B( 22-C , 28-C ) :   1.2631 B( 22-C , 29-C ) :   1.2271 B( 23-C , 24-C ) :   1.6212
B( 23-C , 65-H ) :   0.9703 B( 24-C , 66-H ) :   0.9695 B( 25-C , 67-H ) :   0.9761
B( 25-C , 68-H ) :   0.9828 B( 25-C , 69-H ) :   0.9823 B( 26-C , 27-C ) :   1.2583
B( 26-C , 70-H ) :   0.9684 B( 27-C , 29-C ) :   1.2059 B( 28-C , 71-H ) :   0.9720
B( 29-C , 30-C ) :   1.2457 B( 30-C , 32-C ) :   1.2798 B( 31-C , 39-C ) :   1.5882
B( 31-C , 72-H ) :   0.9681 B( 32-C , 37-C ) :   1.5787 B( 32-C , 73-H ) :   0.9786
B( 33-C , 34-C ) :   1.3062 B( 33-C , 39-C ) :   1.3040 B( 33-C , 40-C ) :   1.1773
B( 34-C , 35-C ) :   1.5861 B( 34-C , 74-H ) :   0.9697 B( 35-C , 75-H ) :   0.9681
B( 36-C , 76-H ) :   0.9768 B( 36-C , 77-H ) :   0.9816 B( 36-C , 78-H ) :   0.9823
B( 37-C , 38-C ) :   1.2860 B( 37-C , 79-H ) :   0.9764 B( 38-C , 40-C ) :   1.2332
B( 39-C , 80-H ) :   0.9705 B( 40-C , 41-C ) :   1.2505 B( 41-C , 43-C ) :   1.1840
B( 42-C , 50-C ) :   1.6322 B( 42-C , 81-H ) :   0.9696 B( 43-C , 48-C ) :   1.6690
B( 43-C , 82-H ) :   0.9722 B( 44-C , 45-C ) :   1.2643 B( 44-C , 50-C ) :   1.2732
B( 44-C , 51-C ) :   1.2589 B( 45-C , 46-C ) :   1.6337 B( 45-C , 83-H ) :   0.9718
B( 46-C , 84-H ) :   0.9700 B( 47-C , 85-H ) :   0.9762 B( 47-C , 86-H ) :   0.9829
B( 47-C , 87-H ) :   0.9824 B( 48-C , 49-C ) :   1.1875 B( 48-C , 88-H ) :   0.9748
B( 49-C , 51-C ) :   1.2450 B( 50-C , 89-H ) :   0.9709

MP2 TOTAL ENERGY:    -2130.817210871 Eh
FINAL SINGLE POINT ENERGY     -2130.817210871458

DIPOLE MOMENT
-------------
                                X             Y             Z
Electronic contribution:      2.88498      -4.17496      -0.10199
Nuclear contribution   :     -0.04626       0.15464       0.11825
                        -----------------------------------------
Total Dipole Moment    :      2.83871      -4.02032       0.01626
                        -----------------------------------------
Magnitude (a.u.)       :      4.92154
Magnitude (Debye)      :     12.50955

Rotational constants in cm-1:     0.001503     0.001477     0.000760
Rotational constants in MHz :    45.056125    44.292599    22.787623

                             ****ORCA TERMINATED NORMALLY****
TOTAL RUN TIME: 0 days 1 hours 19 minutes 3 seconds 515 msec
