                         Program Version 5.0.4 -  RELEASE  -
|  1> ! PAL2
|  2> ! mp2 cc-pvdz TightSCF  NoKeepInts
|  3>
|  4> %scf
|  5>   MaxCore 2000
|  6> end
|  7> %mp2
|  8>   MaxCore 2000
|  9> end
| 10> * xyz 0 1
| 11>    C       -4.31800         5.59500         1.17600
| 12>    C        1.47400         4.04100         0.05700
| 13>    C       -2.80200         4.09300         0.04900
| 14>    C       -2.88800         4.93100        -1.07400
| 15>    C       -3.67500         6.06400        -1.03500
| 16>    C       -5.18400         7.62200         0.09900
| 17>    C        0.13200         4.30700         0.06100
| 18>    C       -0.56900         3.05600         0.04700
| 19>    C        1.64900         2.61800         0.02300
| 20>    C       -3.53900         4.45400         1.18700
| 21>    N       -4.37900         6.38100         0.07700
| 22>    N        0.38800         2.06700         0.02500
| 23>    N       -2.01000         0.39500        -0.07500
| 24>    N       -0.38800        -2.07400        -0.02700
| 25>    N        2.01000        -0.40100         0.06500
| 26>    C       -1.96000         2.86100         0.02400
| 27>    C       -2.62300         1.61500        -0.01800
| 28>    C       -5.57300        -4.32900         1.06600
| 29>    C       -4.07300         1.47100         0.05600
| 30>    C       -4.10600        -2.75600        -0.02600
| 31>    C       -4.99500        -2.75700        -1.11100
| 32>    C       -6.13200        -3.54200        -1.07600
| 33>    C       -7.65100        -5.11300         0.04000
| 34>    C       -4.32400         0.14100         0.03700
| 35>    C       -3.02500        -0.52000        -0.04800
| 36>    C       -4.42200        -3.56600         1.07500
| 37>    N       -6.40700        -4.31300         0.00100
| 38>    C       -2.86700        -1.92200        -0.04000
| 39>    C       -1.65000        -2.62400        -0.02700
| 40>    C        3.56800        -6.14200        -1.04000
| 41>    C       -1.47600        -4.04900        -0.03400
| 42>    C        2.80300        -4.09900        -0.00800
| 43>    C        3.65700        -4.38400         1.06900
| 44>    C        4.42700        -5.53000         1.05900
| 45>    C        5.24500        -7.58800         0.01400
| 46>    C       -0.13400        -4.31500        -0.02200
| 47>    C        0.56800        -3.06400        -0.02700
| 48>    C        2.77500        -5.01200        -1.07400
| 49>    N        4.37600        -6.39100         0.01700
| 50>    C        1.95900        -2.86900        -0.00900
| 51>    C        2.62100        -1.62200         0.00900
| 52>    C        5.54300         4.33900        -1.13000
| 53>    C        4.07000        -1.47900        -0.09400
| 54>    C        4.10400         2.75100        -0.02100
| 55>    C        5.02700         2.72900         1.03600
| 56>    C        6.16600         3.50900         0.97800
| 57>    C        7.61900         5.15300        -0.11500
| 58>    C        4.32100        -0.14800        -0.09200
| 59>    C        3.02500         0.51400         0.01500
| 60>    C        4.38700         3.58200        -1.11500
| 61>    C        2.86600         1.91600         0.01300
| 62>    N        6.41300         4.29600        -0.09500
| 63>    H       -4.91200         5.90600         2.02700
| 64>    H        2.27400         4.76600         0.08100
| 65>    H       -2.33500         4.71000        -1.97900
| 66>    H       -3.76600         6.74400        -1.87200
| 67>    H       -4.54300         8.45600         0.39400
| 68>    H       -5.59100         7.79500        -0.89700
| 69>    H       -5.99400         7.50100         0.81800
| 70>    H       -0.33200         5.28200         0.06900
| 71>    H       -3.52600         3.84100         2.08100
| 72>    H        0.18200         1.07200         0.00500
| 73>    H       -0.18300        -1.08000        -0.02100
| 74>    H       -5.86400        -4.96200         1.89500
| 75>    H       -4.79400         2.27200         0.13900
| 76>    H       -4.80000        -2.16000        -1.99400
| 77>    H       -6.84100        -3.58200        -1.89300
| 78>    H       -8.42800        -4.53600         0.54600
| 79>    H       -7.95600        -5.33700        -0.98100
| 80>    H       -7.45600        -6.03700         0.58400
| 81>    H       -5.28700        -0.34400         0.10000
| 82>    H       -3.78000        -3.60100         1.94700
| 83>    H        3.58700        -6.86800        -1.84300
| 84>    H       -2.27600        -4.77400        -0.05000
| 85>    H        3.71400        -3.72400         1.92600
| 86>    H        5.09200        -5.79500         1.87100
| 87>    H        6.20500        -7.32900        -0.43900
| 88>    H        5.39300        -7.91700         1.04200
| 89>    H        4.75900        -8.37300        -0.56400
| 90>    H        0.32900        -5.29000        -0.00800
| 91>    H        2.14600        -4.84200        -1.94000
| 92>    H        5.80800         4.98600        -1.95600
| 93>    H        4.78800        -2.28100        -0.18500
| 94>    H        4.86000         2.11400         1.91200
| 95>    H        6.90100         3.53100         1.77200
| 96>    H        7.38300         6.10900         0.35600
| 97>    H        8.41400         4.65200         0.43500
| 98>    H        7.92100         5.31000        -1.15000
| 99>    H        5.28300         0.33600        -0.17900
|100>    H        3.72000         3.63200        -1.96700
|101> *
|102>
|103>                          ****END OF INPUT****

CARTESIAN COORDINATES (ANGSTROEM)
---------------------------------
  C     -4.318000    5.595000    1.176000
  C      1.474000    4.041000    0.057000
  C     -2.802000    4.093000    0.049000
  C     -2.888000    4.931000   -1.074000
  C     -3.675000    6.064000   -1.035000
  C     -5.184000    7.622000    0.099000
  C      0.132000    4.307000    0.061000
  C     -0.569000    3.056000    0.047000
  C      1.649000    2.618000    0.023000
  C     -3.539000    4.454000    1.187000
  N     -4.379000    6.381000    0.077000
  N      0.388000    2.067000    0.025000
  N     -2.010000    0.395000   -0.075000
  N     -0.388000   -2.074000   -0.027000
  N      2.010000   -0.401000    0.065000
  C     -1.960000    2.861000    0.024000
  C     -2.623000    1.615000   -0.018000
  C     -5.573000   -4.329000    1.066000
  C     -4.073000    1.471000    0.056000
  C     -4.106000   -2.756000   -0.026000
  C     -4.995000   -2.757000   -1.111000
  C     -6.132000   -3.542000   -1.076000
  C     -7.651000   -5.113000    0.040000
  C     -4.324000    0.141000    0.037000
  C     -3.025000   -0.520000   -0.048000
  C     -4.422000   -3.566000    1.075000
  N     -6.407000   -4.313000    0.001000
  C     -2.867000   -1.922000   -0.040000
  C     -1.650000   -2.624000   -0.027000
  C      3.568000   -6.142000   -1.040000
  C     -1.476000   -4.049000   -0.034000
  C      2.803000   -4.099000   -0.008000
  C      3.657000   -4.384000    1.069000
  C      4.427000   -5.530000    1.059000
  C      5.245000   -7.588000    0.014000
  C     -0.134000   -4.315000   -0.022000
  C      0.568000   -3.064000   -0.027000
  C      2.775000   -5.012000   -1.074000
  N      4.376000   -6.391000    0.017000
  C      1.959000   -2.869000   -0.009000
  C      2.621000   -1.622000    0.009000
  C      5.543000    4.339000   -1.130000
  C      4.070000   -1.479000   -0.094000
  C      4.104000    2.751000   -0.021000
  C      5.027000    2.729000    1.036000
  C      6.166000    3.509000    0.978000
  C      7.619000    5.153000   -0.115000
  C      4.321000   -0.148000   -0.092000
  C      3.025000    0.514000    0.015000
  C      4.387000    3.582000   -1.115000
  C      2.866000    1.916000    0.013000
  N      6.413000    4.296000   -0.095000
  H     -4.912000    5.906000    2.027000
  H      2.274000    4.766000    0.081000
  H     -2.335000    4.710000   -1.979000
  H     -3.766000    6.744000   -1.872000
  H     -4.543000    8.456000    0.394000
  H     -5.591000    7.795000   -0.897000
  H     -5.994000    7.501000    0.818000
  H     -0.332000    5.282000    0.069000
  H     -3.526000    3.841000    2.081000
  H      0.182000    1.072000    0.005000
  H     -0.183000   -1.080000   -0.021000
  H     -5.864000   -4.962000    1.895000
  H     -4.794000    2.272000    0.139000
  H     -4.800000   -2.160000   -1.994000
  H     -6.841000   -3.582000   -1.893000
  H     -8.428000   -4.536000    0.546000
  H     -7.956000   -5.337000   -0.981000
  H     -7.456000   -6.037000    0.584000
  H     -5.287000   -0.344000    0.100000
  H     -3.780000   -3.601000    1.947000
  H      3.587000   -6.868000   -1.843000
  H     -2.276000   -4.774000   -0.050000
  H      3.714000   -3.724000    1.926000
  H      5.092000   -5.795000    1.871000
  H      6.205000   -7.329000   -0.439000
  H      5.393000   -7.917000    1.042000
  H      4.759000   -8.373000   -0.564000
  H      0.329000   -5.290000   -0.008000
  H      2.146000   -4.842000   -1.940000
  H      5.808000    4.986000   -1.956000
  H      4.788000   -2.281000   -0.185000
  H      4.860000    2.114000    1.912000
  H      6.901000    3.531000    1.772000
  H      7.383000    6.109000    0.356000
  H      8.414000    4.652000    0.435000
  H      7.921000    5.310000   -1.150000
  H      5.283000    0.336000   -0.179000
  H      3.720000    3.632000   -1.967000

 Total Charge           Charge          ....    0
 Multiplicity           Mult            ....    1
 Number of Electrons    NEL             ....  358
 Basis Dimension        Dim             ....  918

ORBITAL ENERGIES
----------------

  NO   OCC          E(Eh)            E(eV)
   0   2.0000     -15.670301      -426.4106
   1   2.0000     -15.637178      -425.5093
   2   2.0000     -15.624906      -425.1753
   3   2.0000     -15.604573      -424.6220
   4   2.0000     -15.518311      -422.2747
   5   2.0000     -15.511110      -422.0788
   6   2.0000     -15.447459      -420.3467
   7   2.0000     -15.434864      -420.0040
   8   2.0000     -11.321318      -308.0687
   9   2.0000     -11.319910      -308.0304
  10   2.0000     -11.318864      -308.0019
  11   2.0000     -11.301393      -307.5265
  12   2.0000     -11.294998      -307.3525
  13   2.0000     -11.293498      -307.3117
  14   2.0000     -11.290260      -307.2236
  15   2.0000     -11.284658      -307.0712
  16   2.0000     -11.280970      -306.9708
  17   2.0000     -11.279416      -306.9285
  18   2.0000     -11.270430      -306.6840
  19   2.0000     -11.266701      -306.5825
  20   2.0000     -11.263749      -306.5022
  21   2.0000     -11.255800      -306.2859
  22   2.0000     -11.255061      -306.2658
  23   2.0000     -11.240451      -305.8682
  24   2.0000     -11.232632      -305.6555
  25   2.0000     -11.231778      -305.6322
  26   2.0000     -11.229135      -305.5603
  27   2.0000     -11.223621      -305.4103
  28   2.0000     -11.223365      -305.4033
  29   2.0000     -11.210648      -305.0572
  30   2.0000     -11.208902      -305.0097
  31   2.0000     -11.208081      -304.9874
  32   2.0000     -11.202053      -304.8234
  33   2.0000     -11.201863      -304.8182
  34   2.0000     -11.189198      -304.4735
  35   2.0000     -11.188885      -304.4650
  36   2.0000     -11.182789      -304.2992
  37   2.0000     -11.182168      -304.2823
  38   2.0000     -11.180709      -304.2426
  39   2.0000     -11.168135      -303.9004
  40   2.0000     -11.164805      -303.8098
  41   2.0000     -11.163815      -303.7828
  42   2.0000     -11.158488      -303.6379
  43   2.0000     -11.157457      -303.6098
  44   2.0000     -11.157268      -303.6047
  45   2.0000     -11.155774      -303.5640
  46   2.0000     -11.153079      -303.4907
  47   2.0000     -11.152363      -303.4712
  48   2.0000     -11.149111      -303.3827
  49   2.0000     -11.143536      -303.2310
  50   2.0000     -11.129024      -302.8361
  51   2.0000     -11.126141      -302.7577
  52   2.0000      -1.351430       -36.7743
  53   2.0000      -1.323958       -36.0267
  54   2.0000      -1.313109       -35.7315
  55   2.0000      -1.295996       -35.2658
  56   2.0000      -1.218506       -33.1572
  57   2.0000      -1.207826       -32.8666
  58   2.0000      -1.167858       -31.7790
  59   2.0000      -1.147423       -31.2230
  60   2.0000      -1.134886       -30.8818
  61   2.0000      -1.111763       -30.2526
  62   2.0000      -1.102549       -30.0019
  63   2.0000      -1.087164       -29.5832
  64   2.0000      -1.073407       -29.2089
  65   2.0000      -1.047793       -28.5119
  66   2.0000      -1.037782       -28.2395
  67   2.0000      -1.033780       -28.1306
  68   2.0000      -1.021871       -27.8065
  69   2.0000      -1.013345       -27.5745
  70   2.0000      -1.006121       -27.3779
  71   2.0000      -0.991045       -26.9677
  72   2.0000      -0.983600       -26.7651
  73   2.0000      -0.975414       -26.5424
  74   2.0000      -0.970579       -26.4108
  75   2.0000      -0.959764       -26.1165
  76   2.0000      -0.950377       -25.8611
  77   2.0000      -0.946832       -25.7646
  78   2.0000      -0.929759       -25.3000
  79   2.0000      -0.920318       -25.0431
  80   2.0000      -0.900986       -24.5171
  81   2.0000      -0.888576       -24.1794
  82   2.0000      -0.875020       -23.8105
  83   2.0000      -0.866566       -23.5805
  84   2.0000      -0.864657       -23.5285
  85   2.0000      -0.853614       -23.2280
  86   2.0000      -0.847646       -23.0656
  87   2.0000      -0.833895       -22.6914
  88   2.0000      -0.822418       -22.3791
  89   2.0000      -0.796729       -21.6801
  90   2.0000      -0.794015       -21.6062
  91   2.0000      -0.746356       -20.3094
  92   2.0000      -0.734046       -19.9744
  93   2.0000      -0.726984       -19.7822
  94   2.0000      -0.722216       -19.6525
  95   2.0000      -0.716299       -19.4915
  96   2.0000      -0.710323       -19.3289
  97   2.0000      -0.704970       -19.1832
  98   2.0000      -0.701872       -19.0989
  99   2.0000      -0.694216       -18.8906
 100   2.0000      -0.692774       -18.8513
 101   2.0000      -0.682548       -18.5731
 102   2.0000      -0.678646       -18.4669
 103   2.0000      -0.677137       -18.4258
 104   2.0000      -0.671943       -18.2845
 105   2.0000      -0.668834       -18.1999
 106   2.0000      -0.665530       -18.1100
 107   2.0000      -0.657661       -17.8959
 108   2.0000      -0.655406       -17.8345
 109   2.0000      -0.653823       -17.7914
 110   2.0000      -0.649365       -17.6701
 111   2.0000      -0.646873       -17.6023
 112   2.0000      -0.641113       -17.4456
 113   2.0000      -0.638107       -17.3638
 114   2.0000      -0.634847       -17.2751
 115   2.0000      -0.631750       -17.1908
 116   2.0000      -0.622629       -16.9426
 117   2.0000      -0.615873       -16.7588
 118   2.0000      -0.614011       -16.7081
 119   2.0000      -0.609323       -16.5805
 120   2.0000      -0.605529       -16.4773
 121   2.0000      -0.604244       -16.4423
 122   2.0000      -0.597104       -16.2480
 123   2.0000      -0.590883       -16.0788
 124   2.0000      -0.590380       -16.0651
 125   2.0000      -0.583424       -15.8758
 126   2.0000      -0.575886       -15.6706
 127   2.0000      -0.572837       -15.5877
 128   2.0000      -0.565263       -15.3816
 129   2.0000      -0.562092       -15.2953
 130   2.0000      -0.557582       -15.1726
 131   2.0000      -0.547921       -14.9097
 132   2.0000      -0.539385       -14.6774
 133   2.0000      -0.538739       -14.6598
 134   2.0000      -0.534403       -14.5418
 135   2.0000      -0.531790       -14.4707
 136   2.0000      -0.522555       -14.2194
 137   2.0000      -0.520035       -14.1509
 138   2.0000      -0.516000       -14.0411
 139   2.0000      -0.513274       -13.9669
 140   2.0000      -0.510511       -13.8917
 141   2.0000      -0.507221       -13.8022
 142   2.0000      -0.503068       -13.6892
 143   2.0000      -0.499521       -13.5927
 144   2.0000      -0.497064       -13.5258
 145   2.0000      -0.495839       -13.4925
 146   2.0000      -0.493498       -13.4288
 147   2.0000      -0.488096       -13.2818
 148   2.0000      -0.484074       -13.1723
 149   2.0000      -0.465451       -12.6656
 150   2.0000      -0.462268       -12.5790
 151   2.0000      -0.454552       -12.3690
 152   2.0000      -0.448991       -12.2177
 153   2.0000      -0.442640       -12.0448
 154   2.0000      -0.440503       -11.9867
 155   2.0000      -0.439434       -11.9576
 156   2.0000      -0.429440       -11.6856
 157   2.0000      -0.422862       -11.5066
 158   2.0000      -0.398506       -10.8439
 159   2.0000      -0.382821       -10.4171
 160   2.0000      -0.379931       -10.3385
 161   2.0000      -0.373748       -10.1702
 162   2.0000      -0.363709        -9.8970
 163   2.0000      -0.358422        -9.7532
 164   2.0000      -0.349912        -9.5216
 165   2.0000      -0.338808        -9.2194
 166   2.0000      -0.336483        -9.1562
 167   2.0000      -0.335970        -9.1422
 168   2.0000      -0.320806        -8.7296
 169   2.0000      -0.299642        -8.1537
 170   2.0000      -0.296808        -8.0766
 171   2.0000      -0.286113        -7.7855
 172   2.0000      -0.283752        -7.7213
 173   2.0000      -0.260530        -7.0894
 174   2.0000      -0.239652        -6.5213
 175   2.0000      -0.185722        -5.0538
 176   2.0000      -0.175562        -4.7773
 177   2.0000      -0.063098        -1.7170
 178   2.0000      -0.051760        -1.4085
 179   0.0000       0.033423         0.9095
 180   0.0000       0.064833         1.7642
 181   0.0000       0.092177         2.5083
 182   0.0000       0.096170         2.6169
 183   0.0000       0.113772         3.0959

MULLIKEN ATOMIC CHARGES
-----------------------
   0 C :    0.221385
   1 N :   -0.428872
   2 C :   -0.066271
   3 N :   -0.340317
   4 C :   -0.073615
   5 N :   -0.564962
   6 C :   -0.039766
   7 N :   -0.337025
   8 C :    0.218324
   9 N :   -0.565014
  10 C :    0.109235
  11 N :   -0.437944
  12 C :   -0.063048
  13 N :   -0.446280
  14 C :    0.231188
  15 N :   -0.440979
  16 C :    0.245917
  17 C :   -0.046234
  18 C :   -0.196588
  19 C :    0.237323
  20 C :    0.199021
  21 C :   -0.074550
  22 C :   -0.086693
  23 C :   -0.058443
  24 C :    0.213829
  25 C :    0.113981
  26 C :   -0.069461
  27 C :    0.236883
  28 C :   -0.045134
  29 C :   -0.192374
  30 C :    0.227319
  31 C :    0.197236
  32 C :   -0.066384
  33 C :   -0.093827
  34 C :   -0.050768
  35 C :    0.189715
  36 C :    0.118066
  37 C :   -0.068919
  38 C :    0.240693
  39 C :   -0.063262
  40 C :   -0.197945
  41 C :    0.218994
  42 C :    0.208764
  43 C :   -0.075181
  44 C :   -0.089817
  45 C :   -0.044445
  46 C :    0.193409
  47 C :    0.116068
  48 C :   -0.078549
  49 C :    0.216472
  50 C :   -0.060645
  51 C :   -0.189172
  52 H :    0.069068
  53 H :   -0.010616
  54 H :    0.055624
  55 H :    0.066764
  56 H :    0.071928
  57 H :    0.066624
  58 H :    0.065241
  59 H :   -0.021598
  60 H :    0.056734
  61 H :    0.175216
  62 H :    0.170061
  63 H :    0.055562
  64 H :   -0.027016
  65 H :    0.044995
  66 H :    0.057342
  67 H :    0.061199
  68 H :    0.057708
  69 H :    0.059632
  70 H :   -0.019334
  71 H :    0.048215
  72 H :    0.045549
  73 H :   -0.018110
  74 H :    0.036777
  75 H :    0.044470
  76 H :    0.052895
  77 H :    0.051197
  78 H :    0.050442
  79 H :   -0.012753
  80 H :    0.036831
  81 H :    0.052030
  82 H :   -0.022774
  83 H :    0.043404
  84 H :    0.051507
  85 H :    0.056818
  86 H :    0.056608
  87 H :    0.055613
  88 H :   -0.026619
  89 H :    0.041430
Sum of atomic charges:   -0.0000000

LOEWDIN ATOMIC CHARGES
----------------------
   0 C :    0.018232
   1 N :    0.163649
   2 C :   -0.100688
   3 N :    0.175053
   4 C :    0.074602
   5 N :   -0.143964
   6 C :   -0.014108
   7 N :    0.177904
   8 C :    0.015759
   9 N :   -0.139078
  10 C :    0.034234
  11 N :    0.143596
  12 C :   -0.099231
  13 N :    0.125498
  14 C :   -0.054552
  15 N :    0.137059
  16 C :   -0.030245
  17 C :   -0.016411
  18 C :   -0.113737
  19 C :   -0.088118
  20 C :   -0.007615
  21 C :   -0.101418
  22 C :    0.041851
  23 C :   -0.026855
  24 C :    0.005677
  25 C :    0.030192
  26 C :   -0.097694
  27 C :   -0.073039
  28 C :   -0.017113
  29 C :   -0.114735
  30 C :   -0.056749
  31 C :   -0.015003
  32 C :   -0.101934
  33 C :    0.013495
  34 C :   -0.024055
  35 C :   -0.021597
  36 C :    0.025917
  37 C :   -0.106392
  38 C :   -0.035278
  39 C :   -0.030284
  40 C :   -0.111628
  41 C :   -0.092599
  42 C :   -0.001393
  43 C :   -0.109198
  44 C :    0.031661
  45 C :   -0.017547
  46 C :   -0.014628
  47 C :    0.028819
  48 C :   -0.109687
  49 C :   -0.104865
  50 C :   -0.028727
  51 C :   -0.108445
  52 H :    0.036203
  53 H :    0.005959
  54 H :    0.049649
  55 H :    0.035405
  56 H :    0.033189
  57 H :    0.035177
  58 H :    0.035260
  59 H :    0.001566
  60 H :    0.049961
  61 H :    0.061739
  62 H :    0.058982
  63 H :    0.030274
  64 H :   -0.003234
  65 H :    0.044002
  66 H :    0.030770
  67 H :    0.027807
  68 H :    0.031824
  69 H :    0.031650
  70 H :    0.000337
  71 H :    0.045847
  72 H :    0.025711
  73 H :    0.002283
  74 H :    0.040763
  75 H :    0.024900
  76 H :    0.023437
  77 H :    0.028302
  78 H :    0.027987
  79 H :    0.004988
  80 H :    0.040116
  81 H :    0.028534
  82 H :   -0.001367
  83 H :    0.044096
  84 H :    0.028044
  85 H :    0.025500
  86 H :    0.030522
  87 H :    0.030635
  88 H :   -0.003401
  89 H :    0.041997

  Mayer bond orders larger than 0.100000
B(  0-C ,  1-N ) :   1.1559 B(  0-C , 17-C ) :   1.5794 B(  0-C , 52-H ) :   0.9684
B(  1-N ,  8-C ) :   1.1502 B(  1-N , 10-C ) :   0.9451 B(  2-C , 12-C ) :   1.5549
B(  2-C , 16-C ) :   1.3016 B(  2-C , 53-H ) :   0.9786 B(  3-N , 14-C ) :   1.1874
B(  3-N , 16-C ) :   1.2013 B(  3-N , 61-H ) :   0.8967 B(  4-C ,  6-C ) :   1.3078
B(  4-C , 17-C ) :   1.3135 B(  4-C , 18-C ) :   1.1592 B(  5-N , 19-C ) :   1.3897
B(  5-N , 27-C ) :   1.4284 B(  6-C ,  8-C ) :   1.5853 B(  6-C , 54-H ) :   0.9713
B(  7-N , 30-C ) :   1.1895 B(  7-N , 38-C ) :   1.2089 B(  7-N , 62-H ) :   0.8999
B(  8-C , 55-H ) :   0.9690 B(  9-N , 41-C ) :   1.4234 B(  9-N , 49-C ) :   1.4023
B( 10-C , 56-H ) :   0.9763 B( 10-C , 57-H ) :   0.9812 B( 10-C , 58-H ) :   0.9827
B( 11-N , 20-C ) :   1.1135 B( 11-N , 24-C ) :   1.1323 B( 11-N , 25-C ) :   0.9588
B( 12-C , 14-C ) :   1.3016 B( 12-C , 59-H ) :   0.9772 B( 13-N , 31-C ) :   1.1000
B( 13-N , 35-C ) :   1.0920 B( 13-N , 36-C ) :   0.9722 B( 14-C , 18-C ) :   1.2279
B( 15-N , 42-C ) :   1.1224 B( 15-N , 46-C ) :   1.1021 B( 15-N , 47-C ) :   0.9639
B( 16-C , 51-C ) :   1.2195 B( 17-C , 60-H ) :   0.9712 B( 18-C , 19-C ) :   1.2652
B( 19-C , 21-C ) :   1.1850 B( 20-C , 28-C ) :   1.6230 B( 20-C , 63-H ) :   0.9705
B( 21-C , 26-C ) :   1.6636 B( 21-C , 64-H ) :   0.9725 B( 22-C , 23-C ) :   1.2718
B( 22-C , 28-C ) :   1.2798 B( 22-C , 29-C ) :   1.2417 B( 23-C , 24-C ) :   1.6236
B( 23-C , 65-H ) :   0.9715 B( 24-C , 66-H ) :   0.9689 B( 25-C , 67-H ) :   0.9763
B( 25-C , 68-H ) :   0.9831 B( 25-C , 69-H ) :   0.9820 B( 26-C , 27-C ) :   1.1897
B( 26-C , 70-H ) :   0.9744 B( 27-C , 29-C ) :   1.2378 B( 28-C , 71-H ) :   0.9711
B( 29-C , 30-C ) :   1.1897 B( 30-C , 32-C ) :   1.3354 B( 31-C , 39-C ) :   1.6599
B( 31-C , 72-H ) :   0.9704 B( 32-C , 37-C ) :   1.5231 B( 32-C , 73-H ) :   0.9773
B( 33-C , 34-C ) :   1.2516 B( 33-C , 39-C ) :   1.2446 B( 33-C , 40-C ) :   1.3070
B( 34-C , 35-C ) :   1.6577 B( 34-C , 74-H ) :   0.9708 B( 35-C , 75-H ) :   0.9704
B( 36-C , 76-H ) :   0.9759 B( 36-C , 77-H ) :   0.9824 B( 36-C , 78-H ) :   0.9835
B( 37-C , 38-C ) :   1.3336 B( 37-C , 79-H ) :   0.9786 B( 38-C , 40-C ) :   1.1900
B( 39-C , 80-H ) :   0.9719 B( 40-C , 41-C ) :   1.1928 B( 41-C , 43-C ) :   1.2346
B( 42-C , 50-C ) :   1.6369 B( 42-C , 81-H ) :   0.9696 B( 43-C , 48-C ) :   1.6167
B( 43-C , 82-H ) :   0.9748 B( 44-C , 45-C ) :   1.2773 B( 44-C , 50-C ) :   1.2584
B( 44-C , 51-C ) :   1.2505 B( 45-C , 46-C ) :   1.6316 B( 45-C , 83-H ) :   0.9706
B( 46-C , 84-H ) :   0.9705 B( 47-C , 85-H ) :   0.9760 B( 47-C , 86-H ) :   0.9826
B( 47-C , 87-H ) :   0.9828 B( 48-C , 49-C ) :   1.2311 B( 48-C , 88-H ) :   0.9732
B( 49-C , 51-C ) :   1.2074 B( 50-C , 89-H ) :   0.9718

MP2 TOTAL ENERGY:    -2130.899055851 Eh
FINAL SINGLE POINT ENERGY     -2130.899055851060

DIPOLE MOMENT
-------------
                                X             Y             Z
Electronic contribution:     -2.59169       2.21707      -0.09322
Nuclear contribution   :      0.06927       0.23417       0.11041
                        -----------------------------------------
Total Dipole Moment    :     -2.52243       2.45124       0.01718
                        -----------------------------------------
Magnitude (a.u.)       :      3.51732
Magnitude (Debye)      :      8.94031

Rotational constants in cm-1:     0.001498     0.001473     0.000762
Rotational constants in MHz :    44.914799    44.162779    22.858133

                             ****ORCA TERMINATED NORMALLY****
TOTAL RUN TIME: 0 days 1 hours 28 minutes 10 seconds 103 msec
