                         Program Version 5.0.4 -  RELEASE  -
|  1> ! PAL2
|  2> ! mp2 cc-pvdz TightSCF  NoKeepInts
|  3>
|  4> %scf
|  5>   MaxCore 2000
|  6> end
|  7> %mp2
|  8>   MaxCore 2000
|  9> end
| 10> * xyz 0 1
| 11>    C       -4.38300         5.55100         1.14400
| 12>    C        1.47400         4.04100         0.05700
| 13>    C       -2.80200         4.09300         0.04900
| 14>    C       -2.82000         4.97700        -1.04100
| 15>    C       -3.60800         6.10900        -1.00300
| 16>    C       -5.18300         7.62300         0.10100
| 17>    C        0.13200         4.30700         0.06100
| 18>    C       -0.56900         3.05600         0.04700
| 19>    C        1.64900         2.61800         0.02300
| 20>    C       -3.60600         4.40900         1.15500
| 21>    N       -4.37800         6.38200         0.07600
| 22>    N        0.38800         2.06700         0.02500
| 23>    N       -2.01000         0.39500        -0.07500
| 24>    N       -0.38800        -2.07400        -0.02700
| 25>    N        2.01000        -0.40100         0.06500
| 26>    C       -1.96000         2.86100         0.02400
| 27>    C       -2.62300         1.61500        -0.01800
| 28>    C       -5.57300        -4.32900         1.06600
| 29>    C       -4.07300         1.47100         0.05600
| 30>    C       -4.10600        -2.75600        -0.02600
| 31>    C       -4.99500        -2.75700        -1.11100
| 32>    C       -6.13200        -3.54200        -1.07600
| 33>    C       -7.65100        -5.11300         0.04000
| 34>    C       -4.32400         0.14100         0.03700
| 35>    C       -3.02500        -0.52000        -0.04800
| 36>    C       -4.42200        -3.56600         1.07500
| 37>    N       -6.40700        -4.31300         0.00100
| 38>    C       -2.86700        -1.92200        -0.04000
| 39>    C       -1.65000        -2.62400        -0.02700
| 40>    C        3.56800        -6.14200        -1.04000
| 41>    C       -1.47600        -4.04900        -0.03400
| 42>    C        2.80300        -4.09900        -0.00800
| 43>    C        3.65700        -4.38400         1.06900
| 44>    C        4.42700        -5.53000         1.05900
| 45>    C        5.24500        -7.58800         0.01400
| 46>    C       -0.13400        -4.31500        -0.02200
| 47>    C        0.56800        -3.06400        -0.02700
| 48>    C        2.77500        -5.01200        -1.07400
| 49>    N        4.37600        -6.39100         0.01700
| 50>    C        1.95900        -2.86900        -0.00900
| 51>    C        2.62100        -1.62200         0.00900
| 52>    C        5.54300         4.33900        -1.13000
| 53>    C        4.07000        -1.47900        -0.09400
| 54>    C        4.10400         2.75100        -0.02100
| 55>    C        5.02700         2.72900         1.03600
| 56>    C        6.16600         3.50900         0.97800
| 57>    C        7.61900         5.15300        -0.11500
| 58>    C        4.32100        -0.14800        -0.09200
| 59>    C        3.02500         0.51400         0.01500
| 60>    C        4.38700         3.58200        -1.11500
| 61>    C        2.86600         1.91600         0.01300
| 62>    N        6.41300         4.29600        -0.09500
| 63>    H       -5.02800         5.82800         1.96900
| 64>    H        2.27400         4.76600         0.08100
| 65>    H       -2.21300         4.79200        -1.92000
| 66>    H       -3.64800         6.82300        -1.81500
| 67>    H       -4.56100         8.44300         0.46800
| 68>    H       -5.52900         7.83800        -0.91000
| 69>    H       -6.03500         7.47500         0.76400
| 70>    H       -0.33200         5.28200         0.06900
| 71>    H       -3.64700         3.75900         2.02200
| 72>    H        0.18200         1.07200         0.00500
| 73>    H       -0.18300        -1.08000        -0.02100
| 74>    H       -5.86400        -4.96200         1.89500
| 75>    H       -4.79400         2.27200         0.13900
| 76>    H       -4.80000        -2.16000        -1.99400
| 77>    H       -6.84100        -3.58200        -1.89300
| 78>    H       -8.42800        -4.53600         0.54600
| 79>    H       -7.95600        -5.33700        -0.98100
| 80>    H       -7.45600        -6.03700         0.58400
| 81>    H       -5.28700        -0.34400         0.10000
| 82>    H       -3.78000        -3.60100         1.94700
| 83>    H        3.58700        -6.86800        -1.84300
| 84>    H       -2.27600        -4.77400        -0.05000
| 85>    H        3.71400        -3.72400         1.92600
| 86>    H        5.09200        -5.79500         1.87100
| 87>    H        6.20500        -7.32900        -0.43900
| 88>    H        5.39300        -7.91700         1.04200
| 89>    H        4.75900        -8.37300        -0.56400
| 90>    H        0.32900        -5.29000        -0.00800
| 91>    H        2.14600        -4.84200        -1.94000
| 92>    H        5.80800         4.98600        -1.95600
| 93>    H        4.78800        -2.28100        -0.18500
| 94>    H        4.86000         2.11400         1.91200
| 95>    H        6.90100         3.53100         1.77200
| 96>    H        7.38300         6.10900         0.35600
| 97>    H        8.41400         4.65200         0.43500
| 98>    H        7.92100         5.31000        -1.15000
| 99>    H        5.28300         0.33600        -0.17900
|100>    H        3.72000         3.63200        -1.96700
|101> *
|102>
|103>                          ****END OF INPUT****

CARTESIAN COORDINATES (ANGSTROEM)
---------------------------------
  C     -4.383000    5.551000    1.144000
  C      1.474000    4.041000    0.057000
  C     -2.802000    4.093000    0.049000
  C     -2.820000    4.977000   -1.041000
  C     -3.608000    6.109000   -1.003000
  C     -5.183000    7.623000    0.101000
  C      0.132000    4.307000    0.061000
  C     -0.569000    3.056000    0.047000
  C      1.649000    2.618000    0.023000
  C     -3.606000    4.409000    1.155000
  N     -4.378000    6.382000    0.076000
  N      0.388000    2.067000    0.025000
  N     -2.010000    0.395000   -0.075000
  N     -0.388000   -2.074000   -0.027000
  N      2.010000   -0.401000    0.065000
  C     -1.960000    2.861000    0.024000
  C     -2.623000    1.615000   -0.018000
  C     -5.573000   -4.329000    1.066000
  C     -4.073000    1.471000    0.056000
  C     -4.106000   -2.756000   -0.026000
  C     -4.995000   -2.757000   -1.111000
  C     -6.132000   -3.542000   -1.076000
  C     -7.651000   -5.113000    0.040000
  C     -4.324000    0.141000    0.037000
  C     -3.025000   -0.520000   -0.048000
  C     -4.422000   -3.566000    1.075000
  N     -6.407000   -4.313000    0.001000
  C     -2.867000   -1.922000   -0.040000
  C     -1.650000   -2.624000   -0.027000
  C      3.568000   -6.142000   -1.040000
  C     -1.476000   -4.049000   -0.034000
  C      2.803000   -4.099000   -0.008000
  C      3.657000   -4.384000    1.069000
  C      4.427000   -5.530000    1.059000
  C      5.245000   -7.588000    0.014000
  C     -0.134000   -4.315000   -0.022000
  C      0.568000   -3.064000   -0.027000
  C      2.775000   -5.012000   -1.074000
  N      4.376000   -6.391000    0.017000
  C      1.959000   -2.869000   -0.009000
  C      2.621000   -1.622000    0.009000
  C      5.543000    4.339000   -1.130000
  C      4.070000   -1.479000   -0.094000
  C      4.104000    2.751000   -0.021000
  C      5.027000    2.729000    1.036000
  C      6.166000    3.509000    0.978000
  C      7.619000    5.153000   -0.115000
  C      4.321000   -0.148000   -0.092000
  C      3.025000    0.514000    0.015000
  C      4.387000    3.582000   -1.115000
  C      2.866000    1.916000    0.013000
  N      6.413000    4.296000   -0.095000
  H     -5.028000    5.828000    1.969000
  H      2.274000    4.766000    0.081000
  H     -2.213000    4.792000   -1.920000
  H     -3.648000    6.823000   -1.815000
  H     -4.561000    8.443000    0.468000
  H     -5.529000    7.838000   -0.910000
  H     -6.035000    7.475000    0.764000
  H     -0.332000    5.282000    0.069000
  H     -3.647000    3.759000    2.022000
  H      0.182000    1.072000    0.005000
  H     -0.183000   -1.080000   -0.021000
  H     -5.864000   -4.962000    1.895000
  H     -4.794000    2.272000    0.139000
  H     -4.800000   -2.160000   -1.994000
  H     -6.841000   -3.582000   -1.893000
  H     -8.428000   -4.536000    0.546000
  H     -7.956000   -5.337000   -0.981000
  H     -7.456000   -6.037000    0.584000
  H     -5.287000   -0.344000    0.100000
  H     -3.780000   -3.601000    1.947000
  H      3.587000   -6.868000   -1.843000
  H     -2.276000   -4.774000   -0.050000
  H      3.714000   -3.724000    1.926000
  H      5.092000   -5.795000    1.871000
  H      6.205000   -7.329000   -0.439000
  H      5.393000   -7.917000    1.042000
  H      4.759000   -8.373000   -0.564000
  H      0.329000   -5.290000   -0.008000
  H      2.146000   -4.842000   -1.940000
  H      5.808000    4.986000   -1.956000
  H      4.788000   -2.281000   -0.185000
  H      4.860000    2.114000    1.912000
  H      6.901000    3.531000    1.772000
  H      7.383000    6.109000    0.356000
  H      8.414000    4.652000    0.435000
  H      7.921000    5.310000   -1.150000
  H      5.283000    0.336000   -0.179000
  H      3.720000    3.632000   -1.967000

 Total Charge           Charge          ....    0
 Multiplicity           Mult            ....    1
 Number of Electrons    NEL             ....  358
 Basis Dimension        Dim             ....  918

ORBITAL ENERGIES
----------------

  NO   OCC          E(Eh)            E(eV)
   0   2.0000     -15.653836      -425.9625
   1   2.0000     -15.638563      -425.5469
   2   2.0000     -15.626949      -425.2309
   3   2.0000     -15.615858      -424.9291
   4   2.0000     -15.517484      -422.2522
   5   2.0000     -15.513705      -422.1494
   6   2.0000     -15.446105      -420.3099
   7   2.0000     -15.438005      -420.0895
   8   2.0000     -11.311553      -307.8030
   9   2.0000     -11.306931      -307.6772
  10   2.0000     -11.305775      -307.6458
  11   2.0000     -11.302161      -307.5474
  12   2.0000     -11.295057      -307.3541
  13   2.0000     -11.294791      -307.3469
  14   2.0000     -11.292391      -307.2816
  15   2.0000     -11.288091      -307.1646
  16   2.0000     -11.285578      -307.0962
  17   2.0000     -11.282212      -307.0046
  18   2.0000     -11.276212      -306.8413
  19   2.0000     -11.273485      -306.7671
  20   2.0000     -11.256107      -306.2942
  21   2.0000     -11.244627      -305.9819
  22   2.0000     -11.243875      -305.9614
  23   2.0000     -11.241766      -305.9040
  24   2.0000     -11.233648      -305.6831
  25   2.0000     -11.232823      -305.6606
  26   2.0000     -11.231189      -305.6162
  27   2.0000     -11.225191      -305.4530
  28   2.0000     -11.224957      -305.4466
  29   2.0000     -11.221335      -305.3481
  30   2.0000     -11.217320      -305.2388
  31   2.0000     -11.216480      -305.2159
  32   2.0000     -11.199326      -304.7492
  33   2.0000     -11.199158      -304.7446
  34   2.0000     -11.192741      -304.5700
  35   2.0000     -11.192503      -304.5635
  36   2.0000     -11.178565      -304.1842
  37   2.0000     -11.177997      -304.1688
  38   2.0000     -11.175708      -304.1065
  39   2.0000     -11.169296      -303.9320
  40   2.0000     -11.165147      -303.8191
  41   2.0000     -11.162295      -303.7415
  42   2.0000     -11.162256      -303.7404
  43   2.0000     -11.160305      -303.6873
  44   2.0000     -11.159257      -303.6588
  45   2.0000     -11.156350      -303.5797
  46   2.0000     -11.152411      -303.4725
  47   2.0000     -11.150582      -303.4228
  48   2.0000     -11.148688      -303.3712
  49   2.0000     -11.148496      -303.3660
  50   2.0000     -11.133727      -302.9641
  51   2.0000     -11.131773      -302.9109
  52   2.0000      -1.337732       -36.4015
  53   2.0000      -1.325098       -36.0577
  54   2.0000      -1.314918       -35.7807
  55   2.0000      -1.305702       -35.5300
  56   2.0000      -1.216669       -33.1073
  57   2.0000      -1.210799       -32.9475
  58   2.0000      -1.164912       -31.6989
  59   2.0000      -1.151379       -31.3306
  60   2.0000      -1.124075       -30.5876
  61   2.0000      -1.112538       -30.2737
  62   2.0000      -1.104443       -30.0534
  63   2.0000      -1.095506       -29.8102
  64   2.0000      -1.061030       -28.8721
  65   2.0000      -1.048851       -28.5407
  66   2.0000      -1.039514       -28.2866
  67   2.0000      -1.030993       -28.0547
  68   2.0000      -1.028380       -27.9836
  69   2.0000      -1.012257       -27.5449
  70   2.0000      -1.006845       -27.3977
  71   2.0000      -0.995463       -27.0879
  72   2.0000      -0.980931       -26.6925
  73   2.0000      -0.974609       -26.5205
  74   2.0000      -0.970364       -26.4049
  75   2.0000      -0.960920       -26.1480
  76   2.0000      -0.949607       -25.8401
  77   2.0000      -0.947633       -25.7864
  78   2.0000      -0.933895       -25.4126
  79   2.0000      -0.922245       -25.0956
  80   2.0000      -0.893011       -24.3001
  81   2.0000      -0.885145       -24.0860
  82   2.0000      -0.875653       -23.8277
  83   2.0000      -0.866722       -23.5847
  84   2.0000      -0.860622       -23.4187
  85   2.0000      -0.857905       -23.3448
  86   2.0000      -0.851842       -23.1798
  87   2.0000      -0.838127       -22.8066
  88   2.0000      -0.822252       -22.3746
  89   2.0000      -0.797383       -21.6979
  90   2.0000      -0.796460       -21.6728
  91   2.0000      -0.740290       -20.1443
  92   2.0000      -0.731904       -19.9161
  93   2.0000      -0.727100       -19.7854
  94   2.0000      -0.722787       -19.6680
  95   2.0000      -0.716600       -19.4997
  96   2.0000      -0.710567       -19.3355
  97   2.0000      -0.707428       -19.2501
  98   2.0000      -0.698417       -19.0049
  99   2.0000      -0.691570       -18.8186
 100   2.0000      -0.689271       -18.7560
 101   2.0000      -0.682108       -18.5611
 102   2.0000      -0.679582       -18.4924
 103   2.0000      -0.672077       -18.2882
 104   2.0000      -0.669652       -18.2221
 105   2.0000      -0.666243       -18.1294
 106   2.0000      -0.663282       -18.0488
 107   2.0000      -0.661216       -17.9926
 108   2.0000      -0.658458       -17.9176
 109   2.0000      -0.656210       -17.8564
 110   2.0000      -0.650810       -17.7094
 111   2.0000      -0.648254       -17.6399
 112   2.0000      -0.645587       -17.5673
 113   2.0000      -0.640423       -17.4268
 114   2.0000      -0.633291       -17.2327
 115   2.0000      -0.626729       -17.0542
 116   2.0000      -0.623449       -16.9649
 117   2.0000      -0.615895       -16.7594
 118   2.0000      -0.612278       -16.6609
 119   2.0000      -0.608161       -16.5489
 120   2.0000      -0.607004       -16.5174
 121   2.0000      -0.600617       -16.3436
 122   2.0000      -0.598678       -16.2908
 123   2.0000      -0.594329       -16.1725
 124   2.0000      -0.593241       -16.1429
 125   2.0000      -0.584435       -15.9033
 126   2.0000      -0.577058       -15.7026
 127   2.0000      -0.570423       -15.5220
 128   2.0000      -0.569713       -15.5027
 129   2.0000      -0.563220       -15.3260
 130   2.0000      -0.554134       -15.0787
 131   2.0000      -0.547474       -14.8975
 132   2.0000      -0.540317       -14.7028
 133   2.0000      -0.534625       -14.5479
 134   2.0000      -0.531959       -14.4753
 135   2.0000      -0.528257       -14.3746
 136   2.0000      -0.525749       -14.3064
 137   2.0000      -0.522626       -14.2214
 138   2.0000      -0.519336       -14.1318
 139   2.0000      -0.515127       -14.0173
 140   2.0000      -0.509102       -13.8534
 141   2.0000      -0.505056       -13.7433
 142   2.0000      -0.503320       -13.6960
 143   2.0000      -0.501328       -13.6418
 144   2.0000      -0.498503       -13.5650
 145   2.0000      -0.496306       -13.5052
 146   2.0000      -0.494454       -13.4548
 147   2.0000      -0.493260       -13.4223
 148   2.0000      -0.488126       -13.2826
 149   2.0000      -0.466988       -12.7074
 150   2.0000      -0.460810       -12.5393
 151   2.0000      -0.452442       -12.3116
 152   2.0000      -0.447352       -12.1731
 153   2.0000      -0.444644       -12.0994
 154   2.0000      -0.442551       -12.0424
 155   2.0000      -0.440066       -11.9748
 156   2.0000      -0.433260       -11.7896
 157   2.0000      -0.426924       -11.6172
 158   2.0000      -0.393724       -10.7138
 159   2.0000      -0.381537       -10.3822
 160   2.0000      -0.375320       -10.2130
 161   2.0000      -0.369624       -10.0580
 162   2.0000      -0.369351       -10.0505
 163   2.0000      -0.359263        -9.7760
 164   2.0000      -0.351354        -9.5608
 165   2.0000      -0.344243        -9.3673
 166   2.0000      -0.338073        -9.1994
 167   2.0000      -0.334174        -9.0933
 168   2.0000      -0.324172        -8.8212
 169   2.0000      -0.300047        -8.1647
 170   2.0000      -0.294176        -8.0049
 171   2.0000      -0.287915        -7.8346
 172   2.0000      -0.286403        -7.7934
 173   2.0000      -0.257967        -7.0196
 174   2.0000      -0.243466        -6.6251
 175   2.0000      -0.186595        -5.0775
 176   2.0000      -0.176378        -4.7995
 177   2.0000      -0.063841        -1.7372
 178   2.0000      -0.052446        -1.4271
 179   0.0000       0.032689         0.8895
 180   0.0000       0.068124         1.8537
 181   0.0000       0.092168         2.5080
 182   0.0000       0.095621         2.6020
 183   0.0000       0.124334         3.3833

MULLIKEN ATOMIC CHARGES
-----------------------
   0 C :    0.216574
   1 N :   -0.434526
   2 C :   -0.065667
   3 N :   -0.339262
   4 C :   -0.072445
   5 N :   -0.564553
   6 C :   -0.048325
   7 N :   -0.337264
   8 C :    0.213356
   9 N :   -0.564370
  10 C :    0.111257
  11 N :   -0.437538
  12 C :   -0.065722
  13 N :   -0.443919
  14 C :    0.235795
  15 N :   -0.440742
  16 C :    0.241425
  17 C :   -0.054605
  18 C :   -0.203934
  19 C :    0.239171
  20 C :    0.202838
  21 C :   -0.077633
  22 C :   -0.086128
  23 C :   -0.054662
  24 C :    0.211185
  25 C :    0.113812
  26 C :   -0.070520
  27 C :    0.231947
  28 C :   -0.047801
  29 C :   -0.189975
  30 C :    0.230356
  31 C :    0.202060
  32 C :   -0.066350
  33 C :   -0.089284
  34 C :   -0.050723
  35 C :    0.195199
  36 C :    0.116615
  37 C :   -0.068136
  38 C :    0.239121
  39 C :   -0.062409
  40 C :   -0.194893
  41 C :    0.219989
  42 C :    0.207038
  43 C :   -0.074434
  44 C :   -0.089045
  45 C :   -0.047358
  46 C :    0.197440
  47 C :    0.115806
  48 C :   -0.076994
  49 C :    0.220177
  50 C :   -0.057694
  51 C :   -0.189097
  52 H :    0.063453
  53 H :   -0.012006
  54 H :    0.051843
  55 H :    0.061049
  56 H :    0.067010
  57 H :    0.062848
  58 H :    0.061652
  59 H :   -0.018254
  60 H :    0.053217
  61 H :    0.174358
  62 H :    0.171076
  63 H :    0.056249
  64 H :   -0.024027
  65 H :    0.046174
  66 H :    0.057796
  67 H :    0.062028
  68 H :    0.058096
  69 H :    0.059535
  70 H :   -0.021468
  71 H :    0.048340
  72 H :    0.049504
  73 H :   -0.016920
  74 H :    0.040384
  75 H :    0.048494
  76 H :    0.056191
  77 H :    0.053723
  78 H :    0.052970
  79 H :   -0.013226
  80 H :    0.040575
  81 H :    0.052738
  82 H :   -0.022899
  83 H :    0.043572
  84 H :    0.052393
  85 H :    0.057870
  86 H :    0.056652
  87 H :    0.056110
  88 H :   -0.024846
  89 H :    0.042594
Sum of atomic charges:    0.0000000

LOEWDIN ATOMIC CHARGES
----------------------
   0 C :    0.010058
   1 N :    0.153067
   2 C :   -0.100893
   3 N :    0.176408
   4 C :    0.058818
   5 N :   -0.142187
   6 C :   -0.017770
   7 N :    0.177906
   8 C :    0.006988
   9 N :   -0.139161
  10 C :    0.032004
  11 N :    0.144511
  12 C :   -0.100612
  13 N :    0.131449
  14 C :   -0.050504
  15 N :    0.137980
  16 C :   -0.036317
  17 C :   -0.019809
  18 C :   -0.111803
  19 C :   -0.087121
  20 C :   -0.003996
  21 C :   -0.103039
  22 C :    0.043329
  23 C :   -0.024073
  24 C :    0.003609
  25 C :    0.030388
  26 C :   -0.099619
  27 C :   -0.081214
  28 C :   -0.018488
  29 C :   -0.112399
  30 C :   -0.052599
  31 C :   -0.009152
  32 C :   -0.101477
  33 C :    0.023363
  34 C :   -0.022610
  35 C :   -0.015117
  36 C :    0.027299
  37 C :   -0.104491
  38 C :   -0.037956
  39 C :   -0.028323
  40 C :   -0.110680
  41 C :   -0.092544
  42 C :   -0.002585
  43 C :   -0.107266
  44 C :    0.033294
  45 C :   -0.019184
  46 C :   -0.010771
  47 C :    0.029071
  48 C :   -0.107558
  49 C :   -0.099126
  50 C :   -0.026597
  51 C :   -0.108401
  52 H :    0.033655
  53 H :    0.005286
  54 H :    0.047421
  55 H :    0.032823
  56 H :    0.030662
  57 H :    0.033426
  58 H :    0.033546
  59 H :    0.002570
  60 H :    0.047752
  61 H :    0.061327
  62 H :    0.059541
  63 H :    0.030710
  64 H :   -0.002333
  65 H :    0.044705
  66 H :    0.030847
  67 H :    0.028194
  68 H :    0.032007
  69 H :    0.031639
  70 H :   -0.000667
  71 H :    0.045756
  72 H :    0.027530
  73 H :    0.002842
  74 H :    0.042264
  75 H :    0.026777
  76 H :    0.025128
  77 H :    0.029482
  78 H :    0.029165
  79 H :    0.004723
  80 H :    0.041724
  81 H :    0.028761
  82 H :   -0.001487
  83 H :    0.044008
  84 H :    0.028574
  85 H :    0.026002
  86 H :    0.030572
  87 H :    0.030872
  88 H :   -0.002554
  89 H :    0.042650

  Mayer bond orders larger than 0.100000
B(  0-C ,  1-N ) :   1.1393 B(  0-C , 17-C ) :   1.6027 B(  0-C , 52-H ) :   0.9689
B(  1-N ,  8-C ) :   1.1346 B(  1-N , 10-C ) :   0.9520 B(  2-C , 12-C ) :   1.5465
B(  2-C , 16-C ) :   1.3112 B(  2-C , 53-H ) :   0.9782 B(  3-N , 14-C ) :   1.1931
B(  3-N , 16-C ) :   1.1994 B(  3-N , 61-H ) :   0.8973 B(  4-C ,  6-C ) :   1.2911
B(  4-C , 17-C ) :   1.2937 B(  4-C , 18-C ) :   1.2035 B(  5-N , 19-C ) :   1.4014
B(  5-N , 27-C ) :   1.4189 B(  6-C ,  8-C ) :   1.6061 B(  6-C , 54-H ) :   0.9713
B(  7-N , 30-C ) :   1.1913 B(  7-N , 38-C ) :   1.2061 B(  7-N , 62-H ) :   0.8993
B(  8-C , 55-H ) :   0.9695 B(  9-N , 41-C ) :   1.4181 B(  9-N , 49-C ) :   1.4068
B( 10-C , 56-H ) :   0.9763 B( 10-C , 57-H ) :   0.9815 B( 10-C , 58-H ) :   0.9831
B( 11-N , 20-C ) :   1.1187 B( 11-N , 24-C ) :   1.1295 B( 11-N , 25-C ) :   0.9582
B( 12-C , 14-C ) :   1.3113 B( 12-C , 59-H ) :   0.9772 B( 13-N , 31-C ) :   1.1085
B( 13-N , 35-C ) :   1.1011 B( 13-N , 36-C ) :   0.9676 B( 14-C , 18-C ) :   1.2143
B( 15-N , 42-C ) :   1.1205 B( 15-N , 46-C ) :   1.1072 B( 15-N , 47-C ) :   0.9630
B( 16-C , 51-C ) :   1.2109 B( 17-C , 60-H ) :   0.9712 B( 18-C , 19-C ) :   1.2445
B( 19-C , 21-C ) :   1.1944 B( 20-C , 28-C ) :   1.6222 B( 20-C , 63-H ) :   0.9704
B( 21-C , 26-C ) :   1.6558 B( 21-C , 64-H ) :   0.9724 B( 22-C , 23-C ) :   1.2771
B( 22-C , 28-C ) :   1.2784 B( 22-C , 29-C ) :   1.2361 B( 23-C , 24-C ) :   1.6207
B( 23-C , 65-H ) :   0.9713 B( 24-C , 66-H ) :   0.9690 B( 25-C , 67-H ) :   0.9763
B( 25-C , 68-H ) :   0.9830 B( 25-C , 69-H ) :   0.9820 B( 26-C , 27-C ) :   1.1972
B( 26-C , 70-H ) :   0.9740 B( 27-C , 29-C ) :   1.2360 B( 28-C , 71-H ) :   0.9712
B( 29-C , 30-C ) :   1.1967 B( 30-C , 32-C ) :   1.3278 B( 31-C , 39-C ) :   1.6491
B( 31-C , 72-H ) :   0.9701 B( 32-C , 37-C ) :   1.5305 B( 32-C , 73-H ) :   0.9775
B( 33-C , 34-C ) :   1.2601 B( 33-C , 39-C ) :   1.2533 B( 33-C , 40-C ) :   1.2856
B( 34-C , 35-C ) :   1.6467 B( 34-C , 74-H ) :   0.9707 B( 35-C , 75-H ) :   0.9701
B( 36-C , 76-H ) :   0.9760 B( 36-C , 77-H ) :   0.9823 B( 36-C , 78-H ) :   0.9834
B( 37-C , 38-C ) :   1.3273 B( 37-C , 79-H ) :   0.9783 B( 38-C , 40-C ) :   1.1959
B( 39-C , 80-H ) :   0.9718 B( 40-C , 41-C ) :   1.2027 B( 41-C , 43-C ) :   1.2263
B( 42-C , 50-C ) :   1.6350 B( 42-C , 81-H ) :   0.9696 B( 43-C , 48-C ) :   1.6251
B( 43-C , 82-H ) :   0.9744 B( 44-C , 45-C ) :   1.2754 B( 44-C , 50-C ) :   1.2621
B( 44-C , 51-C ) :   1.2516 B( 45-C , 46-C ) :   1.6313 B( 45-C , 83-H ) :   0.9708
B( 46-C , 84-H ) :   0.9704 B( 47-C , 85-H ) :   0.9761 B( 47-C , 86-H ) :   0.9827
B( 47-C , 87-H ) :   0.9827 B( 48-C , 49-C ) :   1.2239 B( 48-C , 88-H ) :   0.9734
B( 49-C , 51-C ) :   1.2130 B( 50-C , 89-H ) :   0.9716

MP2 TOTAL ENERGY:    -2130.906235008 Eh
FINAL SINGLE POINT ENERGY     -2130.906235008482

DIPOLE MOMENT
-------------
                                X             Y             Z
Electronic contribution:     -1.73054       1.05994      -0.09921
Nuclear contribution   :      0.07132       0.23597       0.11456
                        -----------------------------------------
Total Dipole Moment    :     -1.65922       1.29591       0.01534
                        -----------------------------------------
Magnitude (a.u.)       :      2.10539
Magnitude (Debye)      :      5.35146

Rotational constants in cm-1:     0.001498     0.001474     0.000762
Rotational constants in MHz :    44.917597    44.176442    22.853504

                             ****ORCA TERMINATED NORMALLY****
TOTAL RUN TIME: 0 days 1 hours 15 minutes 29 seconds 40 msec
