                         Program Version 5.0.4 -  RELEASE  -
|  1> ! PAL2
|  2> ! mp2 cc-pvdz TightSCF  NoKeepInts
|  3>
|  4> %scf
|  5>   MaxCore 2000
|  6> end
|  7> %mp2
|  8>   MaxCore 2000
|  9> end
| 10> * xyz 0 1
| 11>    C       -3.76700         6.01600        -1.04300
| 12>    C        1.47400         4.04100         0.05700
| 13>    C       -2.80200         4.09300         0.04900
| 14>    C       -3.43000         4.51300         1.23100
| 15>    C       -4.20200         5.65800         1.23800
| 16>    C       -5.22300         7.59500         0.14400
| 17>    C        0.13200         4.30700         0.06100
| 18>    C       -0.56900         3.05600         0.04700
| 19>    C        1.64900         2.61800         0.02300
| 20>    C       -2.99100         4.87500        -1.10100
| 21>    N       -4.35900         6.39400         0.11300
| 22>    N        0.38800         2.06700         0.02500
| 23>    N       -2.01000         0.39500        -0.07500
| 24>    N       -0.38800        -2.07400        -0.02700
| 25>    N        2.01000        -0.40100         0.06500
| 26>    C       -1.96000         2.86100         0.02400
| 27>    C       -2.62300         1.61500        -0.01800
| 28>    C       -5.57300        -4.32900         1.06600
| 29>    C       -4.07300         1.47100         0.05600
| 30>    C       -4.10600        -2.75600        -0.02600
| 31>    C       -4.99500        -2.75700        -1.11100
| 32>    C       -6.13200        -3.54200        -1.07600
| 33>    C       -7.65100        -5.11300         0.04000
| 34>    C       -4.32400         0.14100         0.03700
| 35>    C       -3.02500        -0.52000        -0.04800
| 36>    C       -4.42200        -3.56600         1.07500
| 37>    N       -6.40700        -4.31300         0.00100
| 38>    C       -2.86700        -1.92200        -0.04000
| 39>    C       -1.65000        -2.62400        -0.02700
| 40>    C        3.56800        -6.14200        -1.04000
| 41>    C       -1.47600        -4.04900        -0.03400
| 42>    C        2.80300        -4.09900        -0.00800
| 43>    C        3.65700        -4.38400         1.06900
| 44>    C        4.42700        -5.53000         1.05900
| 45>    C        5.24500        -7.58800         0.01400
| 46>    C       -0.13400        -4.31500        -0.02200
| 47>    C        0.56800        -3.06400        -0.02700
| 48>    C        2.77500        -5.01200        -1.07400
| 49>    N        4.37600        -6.39100         0.01700
| 50>    C        1.95900        -2.86900        -0.00900
| 51>    C        2.62100        -1.62200         0.00900
| 52>    C        5.54300         4.33900        -1.13000
| 53>    C        4.07000        -1.47900        -0.09400
| 54>    C        4.10400         2.75100        -0.02100
| 55>    C        5.02700         2.72900         1.03600
| 56>    C        6.16600         3.50900         0.97800
| 57>    C        7.61900         5.15300        -0.11500
| 58>    C        4.32100        -0.14800        -0.09200
| 59>    C        3.02500         0.51400         0.01500
| 60>    C        4.38700         3.58200        -1.11500
| 61>    C        2.86600         1.91600         0.01300
| 62>    N        6.41300         4.29600        -0.09500
| 63>    H       -3.93000         6.65600        -1.90200
| 64>    H        2.27400         4.76600         0.08100
| 65>    H       -3.33000         3.94600         2.14900
| 66>    H       -4.71200         6.01600         2.12200
| 67>    H       -6.25700         7.29300        -0.03400
| 68>    H       -5.13200         8.06700         1.12200
| 69>    H       -4.89400         8.28300        -0.63500
| 70>    H       -0.33200         5.28200         0.06900
| 71>    H       -2.52100         4.61100        -2.04100
| 72>    H        0.18200         1.07200         0.00500
| 73>    H       -0.18300        -1.08000        -0.02100
| 74>    H       -5.86400        -4.96200         1.89500
| 75>    H       -4.79400         2.27200         0.13900
| 76>    H       -4.80000        -2.16000        -1.99400
| 77>    H       -6.84100        -3.58200        -1.89300
| 78>    H       -8.42800        -4.53600         0.54600
| 79>    H       -7.95600        -5.33700        -0.98100
| 80>    H       -7.45600        -6.03700         0.58400
| 81>    H       -5.28700        -0.34400         0.10000
| 82>    H       -3.78000        -3.60100         1.94700
| 83>    H        3.58700        -6.86800        -1.84300
| 84>    H       -2.27600        -4.77400        -0.05000
| 85>    H        3.71400        -3.72400         1.92600
| 86>    H        5.09200        -5.79500         1.87100
| 87>    H        6.20500        -7.32900        -0.43900
| 88>    H        5.39300        -7.91700         1.04200
| 89>    H        4.75900        -8.37300        -0.56400
| 90>    H        0.32900        -5.29000        -0.00800
| 91>    H        2.14600        -4.84200        -1.94000
| 92>    H        5.80800         4.98600        -1.95600
| 93>    H        4.78800        -2.28100        -0.18500
| 94>    H        4.86000         2.11400         1.91200
| 95>    H        6.90100         3.53100         1.77200
| 96>    H        7.38300         6.10900         0.35600
| 97>    H        8.41400         4.65200         0.43500
| 98>    H        7.92100         5.31000        -1.15000
| 99>    H        5.28300         0.33600        -0.17900
|100>    H        3.72000         3.63200        -1.96700
|101> *
|102>
|103>                          ****END OF INPUT****

CARTESIAN COORDINATES (ANGSTROEM)
---------------------------------
  C     -3.767000    6.016000   -1.043000
  C      1.474000    4.041000    0.057000
  C     -2.802000    4.093000    0.049000
  C     -3.430000    4.513000    1.231000
  C     -4.202000    5.658000    1.238000
  C     -5.223000    7.595000    0.144000
  C      0.132000    4.307000    0.061000
  C     -0.569000    3.056000    0.047000
  C      1.649000    2.618000    0.023000
  C     -2.991000    4.875000   -1.101000
  N     -4.359000    6.394000    0.113000
  N      0.388000    2.067000    0.025000
  N     -2.010000    0.395000   -0.075000
  N     -0.388000   -2.074000   -0.027000
  N      2.010000   -0.401000    0.065000
  C     -1.960000    2.861000    0.024000
  C     -2.623000    1.615000   -0.018000
  C     -5.573000   -4.329000    1.066000
  C     -4.073000    1.471000    0.056000
  C     -4.106000   -2.756000   -0.026000
  C     -4.995000   -2.757000   -1.111000
  C     -6.132000   -3.542000   -1.076000
  C     -7.651000   -5.113000    0.040000
  C     -4.324000    0.141000    0.037000
  C     -3.025000   -0.520000   -0.048000
  C     -4.422000   -3.566000    1.075000
  N     -6.407000   -4.313000    0.001000
  C     -2.867000   -1.922000   -0.040000
  C     -1.650000   -2.624000   -0.027000
  C      3.568000   -6.142000   -1.040000
  C     -1.476000   -4.049000   -0.034000
  C      2.803000   -4.099000   -0.008000
  C      3.657000   -4.384000    1.069000
  C      4.427000   -5.530000    1.059000
  C      5.245000   -7.588000    0.014000
  C     -0.134000   -4.315000   -0.022000
  C      0.568000   -3.064000   -0.027000
  C      2.775000   -5.012000   -1.074000
  N      4.376000   -6.391000    0.017000
  C      1.959000   -2.869000   -0.009000
  C      2.621000   -1.622000    0.009000
  C      5.543000    4.339000   -1.130000
  C      4.070000   -1.479000   -0.094000
  C      4.104000    2.751000   -0.021000
  C      5.027000    2.729000    1.036000
  C      6.166000    3.509000    0.978000
  C      7.619000    5.153000   -0.115000
  C      4.321000   -0.148000   -0.092000
  C      3.025000    0.514000    0.015000
  C      4.387000    3.582000   -1.115000
  C      2.866000    1.916000    0.013000
  N      6.413000    4.296000   -0.095000
  H     -3.930000    6.656000   -1.902000
  H      2.274000    4.766000    0.081000
  H     -3.330000    3.946000    2.149000
  H     -4.712000    6.016000    2.122000
  H     -6.257000    7.293000   -0.034000
  H     -5.132000    8.067000    1.122000
  H     -4.894000    8.283000   -0.635000
  H     -0.332000    5.282000    0.069000
  H     -2.521000    4.611000   -2.041000
  H      0.182000    1.072000    0.005000
  H     -0.183000   -1.080000   -0.021000
  H     -5.864000   -4.962000    1.895000
  H     -4.794000    2.272000    0.139000
  H     -4.800000   -2.160000   -1.994000
  H     -6.841000   -3.582000   -1.893000
  H     -8.428000   -4.536000    0.546000
  H     -7.956000   -5.337000   -0.981000
  H     -7.456000   -6.037000    0.584000
  H     -5.287000   -0.344000    0.100000
  H     -3.780000   -3.601000    1.947000
  H      3.587000   -6.868000   -1.843000
  H     -2.276000   -4.774000   -0.050000
  H      3.714000   -3.724000    1.926000
  H      5.092000   -5.795000    1.871000
  H      6.205000   -7.329000   -0.439000
  H      5.393000   -7.917000    1.042000
  H      4.759000   -8.373000   -0.564000
  H      0.329000   -5.290000   -0.008000
  H      2.146000   -4.842000   -1.940000
  H      5.808000    4.986000   -1.956000
  H      4.788000   -2.281000   -0.185000
  H      4.860000    2.114000    1.912000
  H      6.901000    3.531000    1.772000
  H      7.383000    6.109000    0.356000
  H      8.414000    4.652000    0.435000
  H      7.921000    5.310000   -1.150000
  H      5.283000    0.336000   -0.179000
  H      3.720000    3.632000   -1.967000

 Total Charge           Charge          ....    0
 Multiplicity           Mult            ....    1
 Number of Electrons    NEL             ....  358
 Basis Dimension        Dim             ....  918

ORBITAL ENERGIES
----------------

  NO   OCC          E(Eh)            E(eV)
   0   2.0000     -15.695317      -427.0913
   1   2.0000     -15.632533      -425.3828
   2   2.0000     -15.622234      -425.1026
   3   2.0000     -15.589587      -424.2142
   4   2.0000     -15.519838      -422.3163
   5   2.0000     -15.507265      -421.9741
   6   2.0000     -15.449205      -420.3942
   7   2.0000     -15.430794      -419.8933
   8   2.0000     -11.339774      -308.5709
   9   2.0000     -11.337931      -308.5208
  10   2.0000     -11.336118      -308.4714
  11   2.0000     -11.298695      -307.4531
  12   2.0000     -11.292633      -307.2882
  13   2.0000     -11.292237      -307.2774
  14   2.0000     -11.291855      -307.2670
  15   2.0000     -11.285042      -307.0816
  16   2.0000     -11.283553      -307.0411
  17   2.0000     -11.275688      -306.8271
  18   2.0000     -11.271982      -306.7262
  19   2.0000     -11.271551      -306.7145
  20   2.0000     -11.271465      -306.7121
  21   2.0000     -11.253985      -306.2365
  22   2.0000     -11.250871      -306.1518
  23   2.0000     -11.236042      -305.7483
  24   2.0000     -11.229393      -305.5673
  25   2.0000     -11.228500      -305.5430
  26   2.0000     -11.226468      -305.4877
  27   2.0000     -11.221676      -305.3573
  28   2.0000     -11.221389      -305.3495
  29   2.0000     -11.206796      -304.9524
  30   2.0000     -11.205884      -304.9276
  31   2.0000     -11.198072      -304.7150
  32   2.0000     -11.197284      -304.6936
  33   2.0000     -11.195563      -304.6468
  34   2.0000     -11.188880      -304.4649
  35   2.0000     -11.187780      -304.4350
  36   2.0000     -11.187627      -304.4308
  37   2.0000     -11.183968      -304.3312
  38   2.0000     -11.183645      -304.3225
  39   2.0000     -11.171545      -303.9932
  40   2.0000     -11.165656      -303.8329
  41   2.0000     -11.163066      -303.7625
  42   2.0000     -11.162639      -303.7508
  43   2.0000     -11.162169      -303.7381
  44   2.0000     -11.156965      -303.5964
  45   2.0000     -11.151082      -303.4364
  46   2.0000     -11.150771      -303.4279
  47   2.0000     -11.144683      -303.2622
  48   2.0000     -11.144078      -303.2458
  49   2.0000     -11.136473      -303.0388
  50   2.0000     -11.123069      -302.6741
  51   2.0000     -11.118584      -302.5521
  52   2.0000      -1.371894       -37.3311
  53   2.0000      -1.320082       -35.9213
  54   2.0000      -1.310765       -35.6677
  55   2.0000      -1.283088       -34.9146
  56   2.0000      -1.221672       -33.2434
  57   2.0000      -1.203455       -32.7477
  58   2.0000      -1.172311       -31.9002
  59   2.0000      -1.151155       -31.3245
  60   2.0000      -1.142153       -31.0796
  61   2.0000      -1.108617       -30.1670
  62   2.0000      -1.100295       -29.9405
  63   2.0000      -1.091933       -29.7130
  64   2.0000      -1.075875       -29.2760
  65   2.0000      -1.045125       -28.4393
  66   2.0000      -1.044207       -28.4143
  67   2.0000      -1.035550       -28.1787
  68   2.0000      -1.013656       -27.5830
  69   2.0000      -1.009741       -27.4764
  70   2.0000      -1.005106       -27.3503
  71   2.0000      -0.990138       -26.9430
  72   2.0000      -0.984274       -26.7835
  73   2.0000      -0.979461       -26.6525
  74   2.0000      -0.965820       -26.2813
  75   2.0000      -0.960449       -26.1351
  76   2.0000      -0.951555       -25.8931
  77   2.0000      -0.943269       -25.6677
  78   2.0000      -0.924587       -25.1593
  79   2.0000      -0.918336       -24.9892
  80   2.0000      -0.916462       -24.9382
  81   2.0000      -0.889140       -24.1947
  82   2.0000      -0.878800       -23.9134
  83   2.0000      -0.870617       -23.6907
  84   2.0000      -0.862821       -23.4785
  85   2.0000      -0.849630       -23.1196
  86   2.0000      -0.837041       -22.7770
  87   2.0000      -0.829700       -22.5773
  88   2.0000      -0.822056       -22.3693
  89   2.0000      -0.795492       -21.6464
  90   2.0000      -0.789664       -21.4879
  91   2.0000      -0.759765       -20.6743
  92   2.0000      -0.733931       -19.9713
  93   2.0000      -0.727840       -19.8055
  94   2.0000      -0.723562       -19.6891
  95   2.0000      -0.720744       -19.6124
  96   2.0000      -0.716727       -19.5031
  97   2.0000      -0.707372       -19.2486
  98   2.0000      -0.700985       -19.0748
  99   2.0000      -0.696187       -18.9442
 100   2.0000      -0.692644       -18.8478
 101   2.0000      -0.692019       -18.8308
 102   2.0000      -0.683927       -18.6106
 103   2.0000      -0.675331       -18.3767
 104   2.0000      -0.671973       -18.2853
 105   2.0000      -0.669775       -18.2255
 106   2.0000      -0.665452       -18.1079
 107   2.0000      -0.655157       -17.8277
 108   2.0000      -0.654115       -17.7994
 109   2.0000      -0.652118       -17.7450
 110   2.0000      -0.649097       -17.6628
 111   2.0000      -0.644843       -17.5471
 112   2.0000      -0.642337       -17.4789
 113   2.0000      -0.638863       -17.3843
 114   2.0000      -0.632917       -17.2225
 115   2.0000      -0.624251       -16.9867
 116   2.0000      -0.622872       -16.9492
 117   2.0000      -0.620163       -16.8755
 118   2.0000      -0.614202       -16.7133
 119   2.0000      -0.611435       -16.6380
 120   2.0000      -0.609789       -16.5932
 121   2.0000      -0.603485       -16.4216
 122   2.0000      -0.592560       -16.1244
 123   2.0000      -0.586990       -15.9728
 124   2.0000      -0.580450       -15.7948
 125   2.0000      -0.579530       -15.7698
 126   2.0000      -0.578292       -15.7361
 127   2.0000      -0.576330       -15.6827
 128   2.0000      -0.573194       -15.5974
 129   2.0000      -0.557915       -15.1816
 130   2.0000      -0.555079       -15.1045
 131   2.0000      -0.551303       -15.0017
 132   2.0000      -0.543784       -14.7971
 133   2.0000      -0.539017       -14.6674
 134   2.0000      -0.534621       -14.5478
 135   2.0000      -0.531115       -14.4524
 136   2.0000      -0.519243       -14.1293
 137   2.0000      -0.515821       -14.0362
 138   2.0000      -0.514932       -14.0120
 139   2.0000      -0.512677       -13.9506
 140   2.0000      -0.510225       -13.8839
 141   2.0000      -0.505282       -13.7494
 142   2.0000      -0.502271       -13.6675
 143   2.0000      -0.500624       -13.6227
 144   2.0000      -0.496105       -13.4997
 145   2.0000      -0.493630       -13.4324
 146   2.0000      -0.491688       -13.3795
 147   2.0000      -0.478554       -13.0221
 148   2.0000      -0.477841       -13.0027
 149   2.0000      -0.464760       -12.6467
 150   2.0000      -0.462903       -12.5962
 151   2.0000      -0.458201       -12.4683
 152   2.0000      -0.450700       -12.2642
 153   2.0000      -0.441536       -12.0148
 154   2.0000      -0.437159       -11.8957
 155   2.0000      -0.435456       -11.8494
 156   2.0000      -0.423298       -11.5185
 157   2.0000      -0.417217       -11.3530
 158   2.0000      -0.408184       -11.1073
 159   2.0000      -0.395432       -10.7602
 160   2.0000      -0.382188       -10.3999
 161   2.0000      -0.371795       -10.1171
 162   2.0000      -0.356284        -9.6950
 163   2.0000      -0.355555        -9.6752
 164   2.0000      -0.348178        -9.4744
 165   2.0000      -0.339275        -9.2321
 166   2.0000      -0.338685        -9.2161
 167   2.0000      -0.326006        -8.8711
 168   2.0000      -0.316367        -8.6088
 169   2.0000      -0.301184        -8.1956
 170   2.0000      -0.298591        -8.1251
 171   2.0000      -0.284383        -7.7385
 172   2.0000      -0.278870        -7.5884
 173   2.0000      -0.263815        -7.1788
 174   2.0000      -0.234423        -6.3790
 175   2.0000      -0.184339        -5.0161
 176   2.0000      -0.174379        -4.7451
 177   2.0000      -0.062583        -1.7030
 178   2.0000      -0.051054        -1.3893
 179   0.0000       0.034395         0.9359
 180   0.0000       0.059422         1.6170
 181   0.0000       0.087671         2.3857
 182   0.0000       0.097439         2.6514
 183   0.0000       0.103021         2.8033

MULLIKEN ATOMIC CHARGES
-----------------------
   0 C :    0.230588
   1 N :   -0.420559
   2 C :   -0.066196
   3 N :   -0.341928
   4 C :   -0.070790
   5 N :   -0.565712
   6 C :   -0.031388
   7 N :   -0.336794
   8 C :    0.227242
   9 N :   -0.565799
  10 C :    0.106153
  11 N :   -0.439151
  12 C :   -0.060534
  13 N :   -0.449363
  14 C :    0.225613
  15 N :   -0.441275
  16 C :    0.251731
  17 C :   -0.037125
  18 C :   -0.186738
  19 C :    0.234271
  20 C :    0.192258
  21 C :   -0.071344
  22 C :   -0.089246
  23 C :   -0.064010
  24 C :    0.215947
  25 C :    0.114603
  26 C :   -0.067428
  27 C :    0.243808
  28 C :   -0.041790
  29 C :   -0.196048
  30 C :    0.223487
  31 C :    0.190811
  32 C :   -0.065995
  33 C :   -0.099564
  34 C :   -0.051051
  35 C :    0.182823
  36 C :    0.119976
  37 C :   -0.069988
  38 C :    0.242528
  39 C :   -0.064215
  40 C :   -0.202256
  41 C :    0.217969
  42 C :    0.211121
  43 C :   -0.076287
  44 C :   -0.091210
  45 C :   -0.040501
  46 C :    0.187694
  47 C :    0.116435
  48 C :   -0.080318
  49 C :    0.211204
  50 C :   -0.064900
  51 C :   -0.188518
  52 H :    0.076854
  53 H :   -0.008375
  54 H :    0.063545
  55 H :    0.074977
  56 H :    0.079573
  57 H :    0.072515
  58 H :    0.070718
  59 H :   -0.025904
  60 H :    0.062014
  61 H :    0.176548
  62 H :    0.168514
  63 H :    0.053592
  64 H :   -0.031744
  65 H :    0.042321
  66 H :    0.055675
  67 H :    0.059144
  68 H :    0.056540
  69 H :    0.059108
  70 H :   -0.015828
  71 H :    0.047035
  72 H :    0.040280
  73 H :   -0.019218
  74 H :    0.031921
  75 H :    0.039101
  76 H :    0.048507
  77 H :    0.047849
  78 H :    0.047137
  79 H :   -0.012271
  80 H :    0.031899
  81 H :    0.051072
  82 H :   -0.022569
  83 H :    0.043140
  84 H :    0.050275
  85 H :    0.055337
  86 H :    0.056563
  87 H :    0.054945
  88 H :   -0.028867
  89 H :    0.039838
Sum of atomic charges:   -0.0000000

LOEWDIN ATOMIC CHARGES
----------------------
   0 C :    0.031247
   1 N :    0.180008
   2 C :   -0.099348
   3 N :    0.173090
   4 C :    0.099553
   5 N :   -0.146586
   6 C :   -0.009879
   7 N :    0.177769
   8 C :    0.028743
   9 N :   -0.138878
  10 C :    0.037871
  11 N :    0.140698
  12 C :   -0.097850
  13 N :    0.117669
  14 C :   -0.058830
  15 N :    0.135792
  16 C :   -0.022421
  17 C :   -0.012896
  18 C :   -0.117421
  19 C :   -0.089900
  20 C :   -0.014392
  21 C :   -0.099907
  22 C :    0.036527
  23 C :   -0.031319
  24 C :    0.006719
  25 C :    0.029557
  26 C :   -0.094512
  27 C :   -0.061209
  28 C :   -0.015800
  29 C :   -0.117934
  30 C :   -0.061752
  31 C :   -0.022803
  32 C :   -0.102215
  33 C :    0.000604
  34 C :   -0.026133
  35 C :   -0.029892
  36 C :    0.024096
  37 C :   -0.108936
  38 C :   -0.032116
  39 C :   -0.032778
  40 C :   -0.113002
  41 C :   -0.092155
  42 C :    0.000203
  43 C :   -0.111939
  44 C :    0.029028
  45 C :   -0.015334
  46 C :   -0.020120
  47 C :    0.028477
  48 C :   -0.112170
  49 C :   -0.112914
  50 C :   -0.031763
  51 C :   -0.107761
  52 H :    0.039825
  53 H :    0.007055
  54 H :    0.053753
  55 H :    0.039107
  56 H :    0.037068
  57 H :    0.037999
  58 H :    0.037868
  59 H :    0.000214
  60 H :    0.053050
  61 H :    0.062390
  62 H :    0.058122
  63 H :    0.029190
  64 H :   -0.004726
  65 H :    0.042559
  66 H :    0.030169
  67 H :    0.026805
  68 H :    0.031277
  69 H :    0.031351
  70 H :    0.002011
  71 H :    0.045519
  72 H :    0.023297
  73 H :    0.001771
  74 H :    0.038741
  75 H :    0.022423
  76 H :    0.021195
  77 H :    0.026740
  78 H :    0.026447
  79 H :    0.005274
  80 H :    0.038018
  81 H :    0.028229
  82 H :   -0.001190
  83 H :    0.044191
  84 H :    0.027301
  85 H :    0.024793
  86 H :    0.030460
  87 H :    0.030314
  88 H :   -0.004480
  89 H :    0.041081

  Mayer bond orders larger than 0.100000
B(  0-C ,  1-N ) :   1.1830 B(  0-C , 17-C ) :   1.5494 B(  0-C , 52-H ) :   0.9675
B(  1-N ,  8-C ) :   1.1770 B(  1-N , 10-C ) :   0.9341 B(  2-C , 12-C ) :   1.5688
B(  2-C , 16-C ) :   1.2866 B(  2-C , 53-H ) :   0.9789 B(  3-N , 14-C ) :   1.1808
B(  3-N , 16-C ) :   1.2022 B(  3-N , 61-H ) :   0.8958 B(  4-C ,  6-C ) :   1.3387
B(  4-C , 17-C ) :   1.3360 B(  4-C , 18-C ) :   1.0995 B(  5-N , 19-C ) :   1.3735
B(  5-N , 27-C ) :   1.4418 B(  6-C ,  8-C ) :   1.5472 B(  6-C , 54-H ) :   0.9707
B(  7-N , 30-C ) :   1.1872 B(  7-N , 38-C ) :   1.2123 B(  7-N , 62-H ) :   0.9009
B(  8-C , 55-H ) :   0.9682 B(  9-N , 41-C ) :   1.4313 B(  9-N , 49-C ) :   1.3954
B( 10-C , 56-H ) :   0.9765 B( 10-C , 57-H ) :   0.9808 B( 10-C , 58-H ) :   0.9822
B( 11-N , 20-C ) :   1.1040 B( 11-N , 24-C ) :   1.1335 B( 11-N , 25-C ) :   0.9608
B( 12-C , 14-C ) :   1.2864 B( 12-C , 59-H ) :   0.9771 B( 13-N , 31-C ) :   1.0890
B( 13-N , 35-C ) :   1.0805 B( 13-N , 36-C ) :   0.9781 B( 14-C , 18-C ) :   1.2458
B( 15-N , 42-C ) :   1.1251 B( 15-N , 46-C ) :   1.0951 B( 15-N , 47-C ) :   0.9651
B( 16-C , 51-C ) :   1.2336 B( 17-C , 60-H ) :   0.9713 B( 18-C , 19-C ) :   1.2934
B( 19-C , 21-C ) :   1.1721 B( 20-C , 28-C ) :   1.6268 B( 20-C , 63-H ) :   0.9707
B( 21-C , 26-C ) :   1.6742 B( 21-C , 64-H ) :   0.9719 B( 22-C , 23-C ) :   1.2622
B( 22-C , 28-C ) :   1.2795 B( 22-C , 29-C ) :   1.2524 B( 23-C , 24-C ) :   1.6304
B( 23-C , 65-H ) :   0.9720 B( 24-C , 66-H ) :   0.9690 B( 25-C , 67-H ) :   0.9763
B( 25-C , 68-H ) :   0.9833 B( 25-C , 69-H ) :   0.9819 B( 26-C , 27-C ) :   1.1799
B( 26-C , 70-H ) :   0.9752 B( 27-C , 29-C ) :   1.2394 B( 28-C , 71-H ) :   0.9710
B( 29-C , 30-C ) :   1.1797 B( 30-C , 32-C ) :   1.3461 B( 31-C , 39-C ) :   1.6744
B( 31-C , 72-H ) :   0.9707 B( 32-C , 37-C ) :   1.5129 B( 32-C , 73-H ) :   0.9772
B( 33-C , 34-C ) :   1.2401 B( 33-C , 39-C ) :   1.2333 B( 33-C , 40-C ) :   1.3369
B( 34-C , 35-C ) :   1.6728 B( 34-C , 74-H ) :   0.9709 B( 35-C , 75-H ) :   0.9707
B( 36-C , 76-H ) :   0.9757 B( 36-C , 77-H ) :   0.9825 B( 36-C , 78-H ) :   0.9837
B( 37-C , 38-C ) :   1.3422 B( 37-C , 79-H ) :   0.9789 B( 38-C , 40-C ) :   1.1819
B( 39-C , 80-H ) :   0.9720 B( 40-C , 41-C ) :   1.1794 B( 41-C , 43-C ) :   1.2454
B( 42-C , 50-C ) :   1.6393 B( 42-C , 81-H ) :   0.9696 B( 43-C , 48-C ) :   1.6058
B( 43-C , 82-H ) :   0.9753 B( 44-C , 45-C ) :   1.2801 B( 44-C , 50-C ) :   1.2534
B( 44-C , 51-C ) :   1.2471 B( 45-C , 46-C ) :   1.6316 B( 45-C , 83-H ) :   0.9704
B( 46-C , 84-H ) :   0.9707 B( 47-C , 85-H ) :   0.9760 B( 47-C , 86-H ) :   0.9826
B( 47-C , 87-H ) :   0.9829 B( 48-C , 49-C ) :   1.2406 B( 48-C , 88-H ) :   0.9728
B( 49-C , 51-C ) :   1.2001 B( 50-C , 89-H ) :   0.9720

MP2 TOTAL ENERGY:    -2130.885328903 Eh
FINAL SINGLE POINT ENERGY     -2130.885328902798

DIPOLE MOMENT
-------------
                                X             Y             Z
Electronic contribution:     -3.58703       4.02501      -0.14848
Nuclear contribution   :     -0.03615       0.15865       0.19583
                        -----------------------------------------
Total Dipole Moment    :     -3.62319       4.18367       0.04736
                        -----------------------------------------
Magnitude (a.u.)       :      5.53469
Magnitude (Debye)      :     14.06806

Rotational constants in cm-1:     0.001498     0.001473     0.000763
Rotational constants in MHz :    44.911987    44.145776    22.863852

                             ****ORCA TERMINATED NORMALLY****
TOTAL RUN TIME: 0 days 1 hours 13 minutes 21 seconds 411 msec
