                         Program Version 5.0.4 -  RELEASE  -
|  1> ! PAL2
|  2> ! mp2 cc-pvdz TightSCF  NoKeepInts
|  3>
|  4> %scf
|  5>   MaxCore 2000
|  6> end
|  7> %mp2
|  8>   MaxCore 2000
|  9> end
| 10> * xyz 0 1
| 11>    C       -4.31400         5.59800         1.17800
| 12>    C        1.47400         4.04100         0.05700
| 13>    C       -2.80200         4.09300         0.04900
| 14>    C       -2.89200         4.92800        -1.07500
| 15>    C       -3.67900         6.06100        -1.03700
| 16>    C       -5.18400         7.62200         0.09900
| 17>    C        0.13200         4.30700         0.06100
| 18>    C       -0.56900         3.05600         0.04700
| 19>    C        1.64900         2.61800         0.02300
| 20>    C       -3.53500         4.45700         1.18900
| 21>    N       -4.37900         6.38100         0.07700
| 22>    N        0.38800         2.06700         0.02500
| 23>    N       -2.01000         0.39500        -0.07500
| 24>    N       -0.38800        -2.07400        -0.02700
| 25>    N        2.01000        -0.40100         0.06500
| 26>    C       -1.96000         2.86100         0.02400
| 27>    C       -2.62300         1.61500        -0.01800
| 28>    C       -5.57300        -4.32900         1.06600
| 29>    C       -4.07300         1.47100         0.05600
| 30>    C       -4.10600        -2.75600        -0.02600
| 31>    C       -4.99500        -2.75700        -1.11100
| 32>    C       -6.13200        -3.54200        -1.07600
| 33>    C       -7.65100        -5.11300         0.04000
| 34>    C       -4.32400         0.14100         0.03700
| 35>    C       -3.02500        -0.52000        -0.04800
| 36>    C       -4.42200        -3.56600         1.07500
| 37>    N       -6.40700        -4.31300         0.00100
| 38>    C       -2.86700        -1.92200        -0.04000
| 39>    C       -1.65000        -2.62400        -0.02700
| 40>    C        3.56800        -6.14200        -1.04000
| 41>    C       -1.47600        -4.04900        -0.03400
| 42>    C        2.80300        -4.09900        -0.00800
| 43>    C        3.65700        -4.38400         1.06900
| 44>    C        4.42700        -5.53000         1.05900
| 45>    C        5.24500        -7.58800         0.01400
| 46>    C       -0.13400        -4.31500        -0.02200
| 47>    C        0.56800        -3.06400        -0.02700
| 48>    C        2.77500        -5.01200        -1.07400
| 49>    N        4.37600        -6.39100         0.01700
| 50>    C        1.95900        -2.86900        -0.00900
| 51>    C        2.62100        -1.62200         0.00900
| 52>    C        5.54300         4.33900        -1.13000
| 53>    C        4.07000        -1.47900        -0.09400
| 54>    C        4.10400         2.75100        -0.02100
| 55>    C        5.02700         2.72900         1.03600
| 56>    C        6.16600         3.50900         0.97800
| 57>    C        7.61900         5.15300        -0.11500
| 58>    C        4.32100        -0.14800        -0.09200
| 59>    C        3.02500         0.51400         0.01500
| 60>    C        4.38700         3.58200        -1.11500
| 61>    C        2.86600         1.91600         0.01300
| 62>    N        6.41300         4.29600        -0.09500
| 63>    H       -4.90500         5.91000         2.03000
| 64>    H        2.27400         4.76600         0.08100
| 65>    H       -2.34200         4.70500        -1.98200
| 66>    H       -3.77300         6.73900        -1.87500
| 67>    H       -4.54200         8.45700         0.38900
| 68>    H       -5.59400         7.79200        -0.89600
| 69>    H       -5.99200         7.50300         0.82100
| 70>    H       -0.33200         5.28200         0.06900
| 71>    H       -3.51800         3.84600         2.08400
| 72>    H        0.18200         1.07200         0.00500
| 73>    H       -0.18300        -1.08000        -0.02100
| 74>    H       -5.86400        -4.96200         1.89500
| 75>    H       -4.79400         2.27200         0.13900
| 76>    H       -4.80000        -2.16000        -1.99400
| 77>    H       -6.84100        -3.58200        -1.89300
| 78>    H       -8.42800        -4.53600         0.54600
| 79>    H       -7.95600        -5.33700        -0.98100
| 80>    H       -7.45600        -6.03700         0.58400
| 81>    H       -5.28700        -0.34400         0.10000
| 82>    H       -3.78000        -3.60100         1.94700
| 83>    H        3.58700        -6.86800        -1.84300
| 84>    H       -2.27600        -4.77400        -0.05000
| 85>    H        3.71400        -3.72400         1.92600
| 86>    H        5.09200        -5.79500         1.87100
| 87>    H        6.20500        -7.32900        -0.43900
| 88>    H        5.39300        -7.91700         1.04200
| 89>    H        4.75900        -8.37300        -0.56400
| 90>    H        0.32900        -5.29000        -0.00800
| 91>    H        2.14600        -4.84200        -1.94000
| 92>    H        5.80800         4.98600        -1.95600
| 93>    H        4.78800        -2.28100        -0.18500
| 94>    H        4.86000         2.11400         1.91200
| 95>    H        6.90100         3.53100         1.77200
| 96>    H        7.38300         6.10900         0.35600
| 97>    H        8.41400         4.65200         0.43500
| 98>    H        7.92100         5.31000        -1.15000
| 99>    H        5.28300         0.33600        -0.17900
|100>    H        3.72000         3.63200        -1.96700
|101> *
|102>
|103>                          ****END OF INPUT****

CARTESIAN COORDINATES (ANGSTROEM)
---------------------------------
  C     -4.314000    5.598000    1.178000
  C      1.474000    4.041000    0.057000
  C     -2.802000    4.093000    0.049000
  C     -2.892000    4.928000   -1.075000
  C     -3.679000    6.061000   -1.037000
  C     -5.184000    7.622000    0.099000
  C      0.132000    4.307000    0.061000
  C     -0.569000    3.056000    0.047000
  C      1.649000    2.618000    0.023000
  C     -3.535000    4.457000    1.189000
  N     -4.379000    6.381000    0.077000
  N      0.388000    2.067000    0.025000
  N     -2.010000    0.395000   -0.075000
  N     -0.388000   -2.074000   -0.027000
  N      2.010000   -0.401000    0.065000
  C     -1.960000    2.861000    0.024000
  C     -2.623000    1.615000   -0.018000
  C     -5.573000   -4.329000    1.066000
  C     -4.073000    1.471000    0.056000
  C     -4.106000   -2.756000   -0.026000
  C     -4.995000   -2.757000   -1.111000
  C     -6.132000   -3.542000   -1.076000
  C     -7.651000   -5.113000    0.040000
  C     -4.324000    0.141000    0.037000
  C     -3.025000   -0.520000   -0.048000
  C     -4.422000   -3.566000    1.075000
  N     -6.407000   -4.313000    0.001000
  C     -2.867000   -1.922000   -0.040000
  C     -1.650000   -2.624000   -0.027000
  C      3.568000   -6.142000   -1.040000
  C     -1.476000   -4.049000   -0.034000
  C      2.803000   -4.099000   -0.008000
  C      3.657000   -4.384000    1.069000
  C      4.427000   -5.530000    1.059000
  C      5.245000   -7.588000    0.014000
  C     -0.134000   -4.315000   -0.022000
  C      0.568000   -3.064000   -0.027000
  C      2.775000   -5.012000   -1.074000
  N      4.376000   -6.391000    0.017000
  C      1.959000   -2.869000   -0.009000
  C      2.621000   -1.622000    0.009000
  C      5.543000    4.339000   -1.130000
  C      4.070000   -1.479000   -0.094000
  C      4.104000    2.751000   -0.021000
  C      5.027000    2.729000    1.036000
  C      6.166000    3.509000    0.978000
  C      7.619000    5.153000   -0.115000
  C      4.321000   -0.148000   -0.092000
  C      3.025000    0.514000    0.015000
  C      4.387000    3.582000   -1.115000
  C      2.866000    1.916000    0.013000
  N      6.413000    4.296000   -0.095000
  H     -4.905000    5.910000    2.030000
  H      2.274000    4.766000    0.081000
  H     -2.342000    4.705000   -1.982000
  H     -3.773000    6.739000   -1.875000
  H     -4.542000    8.457000    0.389000
  H     -5.594000    7.792000   -0.896000
  H     -5.992000    7.503000    0.821000
  H     -0.332000    5.282000    0.069000
  H     -3.518000    3.846000    2.084000
  H      0.182000    1.072000    0.005000
  H     -0.183000   -1.080000   -0.021000
  H     -5.864000   -4.962000    1.895000
  H     -4.794000    2.272000    0.139000
  H     -4.800000   -2.160000   -1.994000
  H     -6.841000   -3.582000   -1.893000
  H     -8.428000   -4.536000    0.546000
  H     -7.956000   -5.337000   -0.981000
  H     -7.456000   -6.037000    0.584000
  H     -5.287000   -0.344000    0.100000
  H     -3.780000   -3.601000    1.947000
  H      3.587000   -6.868000   -1.843000
  H     -2.276000   -4.774000   -0.050000
  H      3.714000   -3.724000    1.926000
  H      5.092000   -5.795000    1.871000
  H      6.205000   -7.329000   -0.439000
  H      5.393000   -7.917000    1.042000
  H      4.759000   -8.373000   -0.564000
  H      0.329000   -5.290000   -0.008000
  H      2.146000   -4.842000   -1.940000
  H      5.808000    4.986000   -1.956000
  H      4.788000   -2.281000   -0.185000
  H      4.860000    2.114000    1.912000
  H      6.901000    3.531000    1.772000
  H      7.383000    6.109000    0.356000
  H      8.414000    4.652000    0.435000
  H      7.921000    5.310000   -1.150000
  H      5.283000    0.336000   -0.179000
  H      3.720000    3.632000   -1.967000

 Total Charge           Charge          ....    0
 Multiplicity           Mult            ....    1
 Number of Electrons    NEL             ....  358
 Basis Dimension        Dim             ....  918

ORBITAL ENERGIES
----------------

  NO   OCC          E(Eh)            E(eV)
   0   2.0000     -15.671288      -426.4374
   1   2.0000     -15.637119      -425.5076
   2   2.0000     -15.624728      -425.1705
   3   2.0000     -15.603920      -424.6043
   4   2.0000     -15.518358      -422.2760
   5   2.0000     -15.510970      -422.0749
   6   2.0000     -15.447562      -420.3495
   7   2.0000     -15.434670      -419.9987
   8   2.0000     -11.321888      -308.0842
   9   2.0000     -11.320634      -308.0501
  10   2.0000     -11.319661      -308.0236
  11   2.0000     -11.301363      -307.5257
  12   2.0000     -11.295015      -307.3530
  13   2.0000     -11.293387      -307.3087
  14   2.0000     -11.290153      -307.2207
  15   2.0000     -11.284558      -307.0684
  16   2.0000     -11.280557      -306.9596
  17   2.0000     -11.279202      -306.9227
  18   2.0000     -11.271244      -306.7062
  19   2.0000     -11.266155      -306.5677
  20   2.0000     -11.263180      -306.4867
  21   2.0000     -11.256446      -306.3035
  22   2.0000     -11.255720      -306.2837
  23   2.0000     -11.240396      -305.8667
  24   2.0000     -11.232592      -305.6544
  25   2.0000     -11.231737      -305.6311
  26   2.0000     -11.228959      -305.5555
  27   2.0000     -11.223487      -305.4066
  28   2.0000     -11.223230      -305.3996
  29   2.0000     -11.210041      -305.0407
  30   2.0000     -11.208408      -304.9963
  31   2.0000     -11.207589      -304.9740
  32   2.0000     -11.202207      -304.8275
  33   2.0000     -11.202031      -304.8228
  34   2.0000     -11.189008      -304.4684
  35   2.0000     -11.188694      -304.4599
  36   2.0000     -11.183070      -304.3068
  37   2.0000     -11.182438      -304.2896
  38   2.0000     -11.181032      -304.2514
  39   2.0000     -11.168096      -303.8993
  40   2.0000     -11.165085      -303.8174
  41   2.0000     -11.163703      -303.7798
  42   2.0000     -11.158601      -303.6410
  43   2.0000     -11.157158      -303.6017
  44   2.0000     -11.156954      -303.5962
  45   2.0000     -11.156112      -303.5732
  46   2.0000     -11.152724      -303.4811
  47   2.0000     -11.152604      -303.4778
  48   2.0000     -11.148945      -303.3782
  49   2.0000     -11.143264      -303.2236
  50   2.0000     -11.128725      -302.8280
  51   2.0000     -11.125792      -302.7482
  52   2.0000      -1.352150       -36.7939
  53   2.0000      -1.323911       -36.0255
  54   2.0000      -1.312954       -35.7273
  55   2.0000      -1.295434       -35.2505
  56   2.0000      -1.218619       -33.1603
  57   2.0000      -1.207667       -32.8623
  58   2.0000      -1.168063       -31.7846
  59   2.0000      -1.147176       -31.2162
  60   2.0000      -1.135588       -30.9009
  61   2.0000      -1.111732       -30.2518
  62   2.0000      -1.102402       -29.9979
  63   2.0000      -1.086675       -29.5699
  64   2.0000      -1.074160       -29.2294
  65   2.0000      -1.047750       -28.5107
  66   2.0000      -1.037636       -28.2355
  67   2.0000      -1.034171       -28.1412
  68   2.0000      -1.021343       -27.7922
  69   2.0000      -1.013397       -27.5759
  70   2.0000      -1.006062       -27.3763
  71   2.0000      -0.990797       -26.9609
  72   2.0000      -0.983754       -26.7693
  73   2.0000      -0.975626       -26.5481
  74   2.0000      -0.970423       -26.4066
  75   2.0000      -0.959752       -26.1162
  76   2.0000      -0.950521       -25.8650
  77   2.0000      -0.946657       -25.7598
  78   2.0000      -0.929507       -25.2932
  79   2.0000      -0.920179       -25.0393
  80   2.0000      -0.901598       -24.5337
  81   2.0000      -0.888629       -24.1808
  82   2.0000      -0.875020       -23.8105
  83   2.0000      -0.866952       -23.5910
  84   2.0000      -0.864586       -23.5266
  85   2.0000      -0.853441       -23.2233
  86   2.0000      -0.847253       -23.0549
  87   2.0000      -0.833652       -22.6848
  88   2.0000      -0.822453       -22.3801
  89   2.0000      -0.796695       -21.6792
  90   2.0000      -0.793853       -21.6018
  91   2.0000      -0.746866       -20.3233
  92   2.0000      -0.734080       -19.9753
  93   2.0000      -0.726997       -19.7826
  94   2.0000      -0.722205       -19.6522
  95   2.0000      -0.716280       -19.4910
  96   2.0000      -0.710413       -19.3313
  97   2.0000      -0.705431       -19.1958
  98   2.0000      -0.701637       -19.0925
  99   2.0000      -0.694271       -18.8921
 100   2.0000      -0.692936       -18.8557
 101   2.0000      -0.682690       -18.5769
 102   2.0000      -0.678666       -18.4674
 103   2.0000      -0.677506       -18.4359
 104   2.0000      -0.672026       -18.2868
 105   2.0000      -0.668790       -18.1987
 106   2.0000      -0.665717       -18.1151
 107   2.0000      -0.657469       -17.8906
 108   2.0000      -0.655321       -17.8322
 109   2.0000      -0.653514       -17.7830
 110   2.0000      -0.649239       -17.6667
 111   2.0000      -0.646754       -17.5991
 112   2.0000      -0.640878       -17.4392
 113   2.0000      -0.638842       -17.3838
 114   2.0000      -0.634713       -17.2714
 115   2.0000      -0.631473       -17.1833
 116   2.0000      -0.622611       -16.9421
 117   2.0000      -0.615934       -16.7604
 118   2.0000      -0.614038       -16.7088
 119   2.0000      -0.609394       -16.5825
 120   2.0000      -0.605404       -16.4739
 121   2.0000      -0.604820       -16.4580
 122   2.0000      -0.596898       -16.2424
 123   2.0000      -0.590615       -16.0714
 124   2.0000      -0.589999       -16.0547
 125   2.0000      -0.583377       -15.8745
 126   2.0000      -0.575806       -15.6685
 127   2.0000      -0.572937       -15.5904
 128   2.0000      -0.565541       -15.3891
 129   2.0000      -0.561817       -15.2878
 130   2.0000      -0.557573       -15.1723
 131   2.0000      -0.547828       -14.9072
 132   2.0000      -0.539364       -14.6769
 133   2.0000      -0.539297       -14.6750
 134   2.0000      -0.534464       -14.5435
 135   2.0000      -0.531749       -14.4696
 136   2.0000      -0.522372       -14.2145
 137   2.0000      -0.519897       -14.1471
 138   2.0000      -0.515839       -14.0367
 139   2.0000      -0.513085       -13.9618
 140   2.0000      -0.510642       -13.8953
 141   2.0000      -0.507329       -13.8051
 142   2.0000      -0.503024       -13.6880
 143   2.0000      -0.499580       -13.5943
 144   2.0000      -0.496921       -13.5219
 145   2.0000      -0.495762       -13.4904
 146   2.0000      -0.493508       -13.4290
 147   2.0000      -0.487707       -13.2712
 148   2.0000      -0.483830       -13.1657
 149   2.0000      -0.465354       -12.6629
 150   2.0000      -0.462375       -12.5819
 151   2.0000      -0.454710       -12.3733
 152   2.0000      -0.449107       -12.2208
 153   2.0000      -0.442572       -12.0430
 154   2.0000      -0.440416       -11.9843
 155   2.0000      -0.439274       -11.9533
 156   2.0000      -0.429185       -11.6787
 157   2.0000      -0.422604       -11.4996
 158   2.0000      -0.398891       -10.8544
 159   2.0000      -0.382879       -10.4187
 160   2.0000      -0.380542       -10.3551
 161   2.0000      -0.373650       -10.1675
 162   2.0000      -0.363370        -9.8878
 163   2.0000      -0.358391        -9.7523
 164   2.0000      -0.349792        -9.5183
 165   2.0000      -0.338838        -9.2203
 166   2.0000      -0.336358        -9.1528
 167   2.0000      -0.335791        -9.1373
 168   2.0000      -0.320597        -8.7239
 169   2.0000      -0.299626        -8.1532
 170   2.0000      -0.296961        -8.0807
 171   2.0000      -0.286038        -7.7835
 172   2.0000      -0.283578        -7.7165
 173   2.0000      -0.260701        -7.0940
 174   2.0000      -0.239409        -6.5146
 175   2.0000      -0.185670        -5.0523
 176   2.0000      -0.175516        -4.7760
 177   2.0000      -0.063070        -1.7162
 178   2.0000      -0.051724        -1.4075
 179   0.0000       0.033444         0.9101
 180   0.0000       0.064592         1.7576
 181   0.0000       0.092137         2.5072
 182   0.0000       0.096220         2.6183
 183   0.0000       0.113185         3.0799

MULLIKEN ATOMIC CHARGES
-----------------------
   0 C :    0.222410
   1 N :   -0.428759
   2 C :   -0.066321
   3 N :   -0.340385
   4 C :   -0.073514
   5 N :   -0.564975
   6 C :   -0.039627
   7 N :   -0.337015
   8 C :    0.218694
   9 N :   -0.565060
  10 C :    0.109111
  11 N :   -0.437963
  12 C :   -0.062890
  13 N :   -0.446415
  14 C :    0.230885
  15 N :   -0.441007
  16 C :    0.246232
  17 C :   -0.045963
  18 C :   -0.196154
  19 C :    0.237191
  20 C :    0.198799
  21 C :   -0.074359
  22 C :   -0.086733
  23 C :   -0.058670
  24 C :    0.213992
  25 C :    0.113989
  26 C :   -0.069384
  27 C :    0.237174
  28 C :   -0.044978
  29 C :   -0.192490
  30 C :    0.227134
  31 C :    0.196972
  32 C :   -0.066367
  33 C :   -0.094090
  34 C :   -0.050753
  35 C :    0.189382
  36 C :    0.118150
  37 C :   -0.068960
  38 C :    0.240803
  39 C :   -0.063326
  40 C :   -0.198109
  41 C :    0.218911
  42 C :    0.208845
  43 C :   -0.075229
  44 C :   -0.089888
  45 C :   -0.044273
  46 C :    0.193138
  47 C :    0.116091
  48 C :   -0.078651
  49 C :    0.216260
  50 C :   -0.060833
  51 C :   -0.189226
  52 H :    0.069210
  53 H :   -0.010523
  54 H :    0.056154
  55 H :    0.067046
  56 H :    0.072226
  57 H :    0.066688
  58 H :    0.065583
  59 H :   -0.021778
  60 H :    0.056814
  61 H :    0.175264
  62 H :    0.170005
  63 H :    0.055528
  64 H :   -0.027185
  65 H :    0.044930
  66 H :    0.057323
  67 H :    0.061156
  68 H :    0.057689
  69 H :    0.059642
  70 H :   -0.019197
  71 H :    0.048213
  72 H :    0.045320
  73 H :   -0.018171
  74 H :    0.036570
  75 H :    0.044236
  76 H :    0.052706
  77 H :    0.051050
  78 H :    0.050294
  79 H :   -0.012716
  80 H :    0.036611
  81 H :    0.051968
  82 H :   -0.022777
  83 H :    0.043373
  84 H :    0.051432
  85 H :    0.056738
  86 H :    0.056593
  87 H :    0.055571
  88 H :   -0.026721
  89 H :    0.041340
Sum of atomic charges:   -0.0000000

LOEWDIN ATOMIC CHARGES
----------------------
   0 C :    0.018816
   1 N :    0.164223
   2 C :   -0.100695
   3 N :    0.174967
   4 C :    0.075435
   5 N :   -0.144057
   6 C :   -0.014073
   7 N :    0.177900
   8 C :    0.016441
   9 N :   -0.139076
  10 C :    0.034328
  11 N :    0.143551
  12 C :   -0.099108
  13 N :    0.125156
  14 C :   -0.054840
  15 N :    0.136971
  16 C :   -0.029822
  17 C :   -0.016062
  18 C :   -0.113789
  19 C :   -0.088150
  20 C :   -0.007824
  21 C :   -0.101315
  22 C :    0.041764
  23 C :   -0.027019
  24 C :    0.005806
  25 C :    0.030183
  26 C :   -0.097557
  27 C :   -0.072558
  28 C :   -0.017031
  29 C :   -0.114853
  30 C :   -0.057000
  31 C :   -0.015328
  32 C :   -0.101933
  33 C :    0.012924
  34 C :   -0.024127
  35 C :   -0.021986
  36 C :    0.025838
  37 C :   -0.106495
  38 C :   -0.035096
  39 C :   -0.030407
  40 C :   -0.111669
  41 C :   -0.092643
  42 C :   -0.001349
  43 C :   -0.109317
  44 C :    0.031508
  45 C :   -0.017460
  46 C :   -0.014894
  47 C :    0.028797
  48 C :   -0.109831
  49 C :   -0.105183
  50 C :   -0.028871
  51 C :   -0.108490
  52 H :    0.036230
  53 H :    0.006003
  54 H :    0.049966
  55 H :    0.035516
  56 H :    0.033336
  57 H :    0.035193
  58 H :    0.035440
  59 H :    0.001512
  60 H :    0.050008
  61 H :    0.061762
  62 H :    0.058951
  63 H :    0.030252
  64 H :   -0.003281
  65 H :    0.043962
  66 H :    0.030769
  67 H :    0.027787
  68 H :    0.031815
  69 H :    0.031653
  70 H :    0.000401
  71 H :    0.045854
  72 H :    0.025606
  73 H :    0.002254
  74 H :    0.040678
  75 H :    0.024790
  76 H :    0.023340
  77 H :    0.028233
  78 H :    0.027918
  79 H :    0.005008
  80 H :    0.040021
  81 H :    0.028512
  82 H :   -0.001365
  83 H :    0.044093
  84 H :    0.028002
  85 H :    0.025461
  86 H :    0.030513
  87 H :    0.030615
  88 H :   -0.003449
  89 H :    0.041949

  Mayer bond orders larger than 0.100000
B(  0-C ,  1-N ) :   1.1568 B(  0-C , 17-C ) :   1.5784 B(  0-C , 52-H ) :   0.9684
B(  1-N ,  8-C ) :   1.1511 B(  1-N , 10-C ) :   0.9447 B(  2-C , 12-C ) :   1.5555
B(  2-C , 16-C ) :   1.3010 B(  2-C , 53-H ) :   0.9786 B(  3-N , 14-C ) :   1.1870
B(  3-N , 16-C ) :   1.2014 B(  3-N , 61-H ) :   0.8967 B(  4-C ,  6-C ) :   1.3094
B(  4-C , 17-C ) :   1.3142 B(  4-C , 18-C ) :   1.1567 B(  5-N , 19-C ) :   1.3891
B(  5-N , 27-C ) :   1.4289 B(  6-C ,  8-C ) :   1.5836 B(  6-C , 54-H ) :   0.9712
B(  7-N , 30-C ) :   1.1894 B(  7-N , 38-C ) :   1.2091 B(  7-N , 62-H ) :   0.9000
B(  8-C , 55-H ) :   0.9690 B(  9-N , 41-C ) :   1.4236 B(  9-N , 49-C ) :   1.4021
B( 10-C , 56-H ) :   0.9763 B( 10-C , 57-H ) :   0.9812 B( 10-C , 58-H ) :   0.9827
B( 11-N , 20-C ) :   1.1133 B( 11-N , 24-C ) :   1.1325 B( 11-N , 25-C ) :   0.9588
B( 12-C , 14-C ) :   1.3010 B( 12-C , 59-H ) :   0.9772 B( 13-N , 31-C ) :   1.0996
B( 13-N , 35-C ) :   1.0914 B( 13-N , 36-C ) :   0.9724 B( 14-C , 18-C ) :   1.2288
B( 15-N , 42-C ) :   1.1225 B( 15-N , 46-C ) :   1.1018 B( 15-N , 47-C ) :   0.9640
B( 16-C , 51-C ) :   1.2200 B( 17-C , 60-H ) :   0.9712 B( 18-C , 19-C ) :   1.2663
B( 19-C , 21-C ) :   1.1844 B( 20-C , 28-C ) :   1.6231 B( 20-C , 63-H ) :   0.9705
B( 21-C , 26-C ) :   1.6641 B( 21-C , 64-H ) :   0.9724 B( 22-C , 23-C ) :   1.2715
B( 22-C , 28-C ) :   1.2799 B( 22-C , 29-C ) :   1.2419 B( 23-C , 24-C ) :   1.6238
B( 23-C , 65-H ) :   0.9716 B( 24-C , 66-H ) :   0.9689 B( 25-C , 67-H ) :   0.9763
B( 25-C , 68-H ) :   0.9831 B( 25-C , 69-H ) :   0.9820 B( 26-C , 27-C ) :   1.1892
B( 26-C , 70-H ) :   0.9745 B( 27-C , 29-C ) :   1.2380 B( 28-C , 71-H ) :   0.9711
B( 29-C , 30-C ) :   1.1893 B( 30-C , 32-C ) :   1.3358 B( 31-C , 39-C ) :   1.6606
B( 31-C , 72-H ) :   0.9704 B( 32-C , 37-C ) :   1.5227 B( 32-C , 73-H ) :   0.9773
B( 33-C , 34-C ) :   1.2511 B( 33-C , 39-C ) :   1.2441 B( 33-C , 40-C ) :   1.3083
B( 34-C , 35-C ) :   1.6584 B( 34-C , 74-H ) :   0.9708 B( 35-C , 75-H ) :   0.9704
B( 36-C , 76-H ) :   0.9759 B( 36-C , 77-H ) :   0.9824 B( 36-C , 78-H ) :   0.9835
B( 37-C , 38-C ) :   1.3339 B( 37-C , 79-H ) :   0.9786 B( 38-C , 40-C ) :   1.1897
B( 39-C , 80-H ) :   0.9719 B( 40-C , 41-C ) :   1.1922 B( 41-C , 43-C ) :   1.2351
B( 42-C , 50-C ) :   1.6371 B( 42-C , 81-H ) :   0.9696 B( 43-C , 48-C ) :   1.6162
B( 43-C , 82-H ) :   0.9748 B( 44-C , 45-C ) :   1.2774 B( 44-C , 50-C ) :   1.2581
B( 44-C , 51-C ) :   1.2506 B( 45-C , 46-C ) :   1.6316 B( 45-C , 83-H ) :   0.9706
B( 46-C , 84-H ) :   0.9705 B( 47-C , 85-H ) :   0.9760 B( 47-C , 86-H ) :   0.9826
B( 47-C , 87-H ) :   0.9828 B( 48-C , 49-C ) :   1.2316 B( 48-C , 88-H ) :   0.9732
B( 49-C , 51-C ) :   1.2070 B( 50-C , 89-H ) :   0.9718

MP2 TOTAL ENERGY:    -2130.898555045 Eh
FINAL SINGLE POINT ENERGY     -2130.898555044867

DIPOLE MOMENT
-------------
                                X             Y             Z
Electronic contribution:     -2.64713       2.28354      -0.09171
Nuclear contribution   :      0.07015       0.23329       0.10889
                        -----------------------------------------
Total Dipole Moment    :     -2.57698       2.51683       0.01718
                        -----------------------------------------
Magnitude (a.u.)       :      3.60216
Magnitude (Debye)      :      9.15596

Rotational constants in cm-1:     0.001498     0.001473     0.000762
Rotational constants in MHz :    44.914563    44.162176    22.858404

                             ****ORCA TERMINATED NORMALLY****
TOTAL RUN TIME: 0 days 1 hours 21 minutes 2 seconds 721 msec
