                         Program Version 5.0.4 -  RELEASE  -
|  1> ! PAL2
|  2> ! mp2 cc-pvdz TightSCF  NoKeepInts
|  3>
|  4> %scf
|  5>   MaxCore 2000
|  6> end
|  7> %mp2
|  8>   MaxCore 2000
|  9> end
| 10> * xyz 0 1
| 11>    C       -3.92100         5.86500         1.24600
| 12>    C        1.47400         4.04100         0.05700
| 13>    C       -2.80200         4.09300         0.04900
| 14>    C       -3.29800         4.65100        -1.13900
| 15>    C       -4.08000         5.78800        -1.09700
| 16>    C       -5.19300         7.61600         0.09100
| 17>    C        0.13200         4.30700         0.06100
| 18>    C       -0.56900         3.05600         0.04700
| 19>    C        1.64900         2.61800         0.02300
| 20>    C       -3.13100         4.73200         1.25500
| 21>    N       -4.38400         6.37700         0.08300
| 22>    N        0.38800         2.06700         0.02500
| 23>    N       -2.01000         0.39500        -0.07500
| 24>    N       -0.38800        -2.07400        -0.02700
| 25>    N        2.01000        -0.40100         0.06500
| 26>    C       -1.96000         2.86100         0.02400
| 27>    C       -2.62300         1.61500        -0.01800
| 28>    C       -5.57300        -4.32900         1.06600
| 29>    C       -4.07300         1.47100         0.05600
| 30>    C       -4.10600        -2.75600        -0.02600
| 31>    C       -4.99500        -2.75700        -1.11100
| 32>    C       -6.13200        -3.54200        -1.07600
| 33>    C       -7.65100        -5.11300         0.04000
| 34>    C       -4.32400         0.14100         0.03700
| 35>    C       -3.02500        -0.52000        -0.04800
| 36>    C       -4.42200        -3.56600         1.07500
| 37>    N       -6.40700        -4.31300         0.00100
| 38>    C       -2.86700        -1.92200        -0.04000
| 39>    C       -1.65000        -2.62400        -0.02700
| 40>    C        3.56800        -6.14200        -1.04000
| 41>    C       -1.47600        -4.04900        -0.03400
| 42>    C        2.80300        -4.09900        -0.00800
| 43>    C        3.65700        -4.38400         1.06900
| 44>    C        4.42700        -5.53000         1.05900
| 45>    C        5.24500        -7.58800         0.01400
| 46>    C       -0.13400        -4.31500        -0.02200
| 47>    C        0.56800        -3.06400        -0.02700
| 48>    C        2.77500        -5.01200        -1.07400
| 49>    N        4.37600        -6.39100         0.01700
| 50>    C        1.95900        -2.86900        -0.00900
| 51>    C        2.62100        -1.62200         0.00900
| 52>    C        5.54300         4.33900        -1.13000
| 53>    C        4.07000        -1.47900        -0.09400
| 54>    C        4.10400         2.75100        -0.02100
| 55>    C        5.02700         2.72900         1.03600
| 56>    C        6.16600         3.50900         0.97800
| 57>    C        7.61900         5.15300        -0.11500
| 58>    C        4.32100        -0.14800        -0.09200
| 59>    C        3.02500         0.51400         0.01500
| 60>    C        4.38700         3.58200        -1.11500
| 61>    C        2.86600         1.91600         0.01300
| 62>    N        6.41300         4.29600        -0.09500
| 63>    H       -4.21000         6.38300         2.15200
| 64>    H        2.27400         4.76600         0.08100
| 65>    H       -3.07100         4.21000        -2.10200
| 66>    H       -4.47800         6.26000        -1.98700
| 67>    H       -4.53000         8.47400        -0.04600
| 68>    H       -5.91800         7.56800        -0.72100
| 69>    H       -5.70900         7.69200         1.04800
| 70>    H       -0.33200         5.28200         0.06900
| 71>    H       -2.79000         4.34100         2.20600
| 72>    H        0.18200         1.07200         0.00500
| 73>    H       -0.18300        -1.08000        -0.02100
| 74>    H       -5.86400        -4.96200         1.89500
| 75>    H       -4.79400         2.27200         0.13900
| 76>    H       -4.80000        -2.16000        -1.99400
| 77>    H       -6.84100        -3.58200        -1.89300
| 78>    H       -8.42800        -4.53600         0.54600
| 79>    H       -7.95600        -5.33700        -0.98100
| 80>    H       -7.45600        -6.03700         0.58400
| 81>    H       -5.28700        -0.34400         0.10000
| 82>    H       -3.78000        -3.60100         1.94700
| 83>    H        3.58700        -6.86800        -1.84300
| 84>    H       -2.27600        -4.77400        -0.05000
| 85>    H        3.71400        -3.72400         1.92600
| 86>    H        5.09200        -5.79500         1.87100
| 87>    H        6.20500        -7.32900        -0.43900
| 88>    H        5.39300        -7.91700         1.04200
| 89>    H        4.75900        -8.37300        -0.56400
| 90>    H        0.32900        -5.29000        -0.00800
| 91>    H        2.14600        -4.84200        -1.94000
| 92>    H        5.80800         4.98600        -1.95600
| 93>    H        4.78800        -2.28100        -0.18500
| 94>    H        4.86000         2.11400         1.91200
| 95>    H        6.90100         3.53100         1.77200
| 96>    H        7.38300         6.10900         0.35600
| 97>    H        8.41400         4.65200         0.43500
| 98>    H        7.92100         5.31000        -1.15000
| 99>    H        5.28300         0.33600        -0.17900
|100>    H        3.72000         3.63200        -1.96700
|101> *
|102>
|103>                          ****END OF INPUT****

CARTESIAN COORDINATES (ANGSTROEM)
---------------------------------
  C     -3.921000    5.865000    1.246000
  C      1.474000    4.041000    0.057000
  C     -2.802000    4.093000    0.049000
  C     -3.298000    4.651000   -1.139000
  C     -4.080000    5.788000   -1.097000
  C     -5.193000    7.616000    0.091000
  C      0.132000    4.307000    0.061000
  C     -0.569000    3.056000    0.047000
  C      1.649000    2.618000    0.023000
  C     -3.131000    4.732000    1.255000
  N     -4.384000    6.377000    0.083000
  N      0.388000    2.067000    0.025000
  N     -2.010000    0.395000   -0.075000
  N     -0.388000   -2.074000   -0.027000
  N      2.010000   -0.401000    0.065000
  C     -1.960000    2.861000    0.024000
  C     -2.623000    1.615000   -0.018000
  C     -5.573000   -4.329000    1.066000
  C     -4.073000    1.471000    0.056000
  C     -4.106000   -2.756000   -0.026000
  C     -4.995000   -2.757000   -1.111000
  C     -6.132000   -3.542000   -1.076000
  C     -7.651000   -5.113000    0.040000
  C     -4.324000    0.141000    0.037000
  C     -3.025000   -0.520000   -0.048000
  C     -4.422000   -3.566000    1.075000
  N     -6.407000   -4.313000    0.001000
  C     -2.867000   -1.922000   -0.040000
  C     -1.650000   -2.624000   -0.027000
  C      3.568000   -6.142000   -1.040000
  C     -1.476000   -4.049000   -0.034000
  C      2.803000   -4.099000   -0.008000
  C      3.657000   -4.384000    1.069000
  C      4.427000   -5.530000    1.059000
  C      5.245000   -7.588000    0.014000
  C     -0.134000   -4.315000   -0.022000
  C      0.568000   -3.064000   -0.027000
  C      2.775000   -5.012000   -1.074000
  N      4.376000   -6.391000    0.017000
  C      1.959000   -2.869000   -0.009000
  C      2.621000   -1.622000    0.009000
  C      5.543000    4.339000   -1.130000
  C      4.070000   -1.479000   -0.094000
  C      4.104000    2.751000   -0.021000
  C      5.027000    2.729000    1.036000
  C      6.166000    3.509000    0.978000
  C      7.619000    5.153000   -0.115000
  C      4.321000   -0.148000   -0.092000
  C      3.025000    0.514000    0.015000
  C      4.387000    3.582000   -1.115000
  C      2.866000    1.916000    0.013000
  N      6.413000    4.296000   -0.095000
  H     -4.210000    6.383000    2.152000
  H      2.274000    4.766000    0.081000
  H     -3.071000    4.210000   -2.102000
  H     -4.478000    6.260000   -1.987000
  H     -4.530000    8.474000   -0.046000
  H     -5.918000    7.568000   -0.721000
  H     -5.709000    7.692000    1.048000
  H     -0.332000    5.282000    0.069000
  H     -2.790000    4.341000    2.206000
  H      0.182000    1.072000    0.005000
  H     -0.183000   -1.080000   -0.021000
  H     -5.864000   -4.962000    1.895000
  H     -4.794000    2.272000    0.139000
  H     -4.800000   -2.160000   -1.994000
  H     -6.841000   -3.582000   -1.893000
  H     -8.428000   -4.536000    0.546000
  H     -7.956000   -5.337000   -0.981000
  H     -7.456000   -6.037000    0.584000
  H     -5.287000   -0.344000    0.100000
  H     -3.780000   -3.601000    1.947000
  H      3.587000   -6.868000   -1.843000
  H     -2.276000   -4.774000   -0.050000
  H      3.714000   -3.724000    1.926000
  H      5.092000   -5.795000    1.871000
  H      6.205000   -7.329000   -0.439000
  H      5.393000   -7.917000    1.042000
  H      4.759000   -8.373000   -0.564000
  H      0.329000   -5.290000   -0.008000
  H      2.146000   -4.842000   -1.940000
  H      5.808000    4.986000   -1.956000
  H      4.788000   -2.281000   -0.185000
  H      4.860000    2.114000    1.912000
  H      6.901000    3.531000    1.772000
  H      7.383000    6.109000    0.356000
  H      8.414000    4.652000    0.435000
  H      7.921000    5.310000   -1.150000
  H      5.283000    0.336000   -0.179000
  H      3.720000    3.632000   -1.967000

 Total Charge           Charge          ....    0
 Multiplicity           Mult            ....    1
 Number of Electrons    NEL             ....  358
 Basis Dimension        Dim             ....  918

ORBITAL ENERGIES
----------------

  NO   OCC          E(Eh)            E(eV)
   0   2.0000     -15.713606      -427.5890
   1   2.0000     -15.629571      -425.3023
   2   2.0000     -15.619467      -425.0273
   3   2.0000     -15.579854      -423.9494
   4   2.0000     -15.520085      -422.3230
   5   2.0000     -15.504928      -421.9105
   6   2.0000     -15.450810      -420.4379
   7   2.0000     -15.427598      -419.8063
   8   2.0000     -11.352525      -308.9179
   9   2.0000     -11.352253      -308.9105
  10   2.0000     -11.346647      -308.7579
  11   2.0000     -11.308060      -307.7080
  12   2.0000     -11.297004      -307.4071
  13   2.0000     -11.291277      -307.2513
  14   2.0000     -11.290134      -307.2202
  15   2.0000     -11.282856      -307.0221
  16   2.0000     -11.282626      -307.0159
  17   2.0000     -11.281903      -306.9962
  18   2.0000     -11.281586      -306.9876
  19   2.0000     -11.272381      -306.7371
  20   2.0000     -11.265249      -306.5430
  21   2.0000     -11.245913      -306.0168
  22   2.0000     -11.242214      -305.9162
  23   2.0000     -11.233275      -305.6729
  24   2.0000     -11.227510      -305.5161
  25   2.0000     -11.226632      -305.4922
  26   2.0000     -11.223723      -305.4130
  27   2.0000     -11.219490      -305.2978
  28   2.0000     -11.219213      -305.2903
  29   2.0000     -11.209764      -305.0332
  30   2.0000     -11.208298      -304.9933
  31   2.0000     -11.193609      -304.5936
  32   2.0000     -11.192418      -304.5612
  33   2.0000     -11.191701      -304.5417
  34   2.0000     -11.190684      -304.5140
  35   2.0000     -11.189919      -304.4932
  36   2.0000     -11.186288      -304.3944
  37   2.0000     -11.181040      -304.2516
  38   2.0000     -11.180910      -304.2480
  39   2.0000     -11.176105      -304.1173
  40   2.0000     -11.168278      -303.9043
  41   2.0000     -11.165185      -303.8201
  42   2.0000     -11.164227      -303.7941
  43   2.0000     -11.160711      -303.6984
  44   2.0000     -11.160471      -303.6919
  45   2.0000     -11.145840      -303.2937
  46   2.0000     -11.145190      -303.2760
  47   2.0000     -11.141858      -303.1854
  48   2.0000     -11.139138      -303.1114
  49   2.0000     -11.132455      -302.9295
  50   2.0000     -11.117756      -302.5295
  51   2.0000     -11.112468      -302.3856
  52   2.0000      -1.386554       -37.7301
  53   2.0000      -1.317631       -35.8546
  54   2.0000      -1.308336       -35.6016
  55   2.0000      -1.274674       -34.6857
  56   2.0000      -1.223451       -33.2918
  57   2.0000      -1.201094       -32.6834
  58   2.0000      -1.176426       -32.0122
  59   2.0000      -1.161666       -31.6105
  60   2.0000      -1.137847       -30.9624
  61   2.0000      -1.106763       -30.1166
  62   2.0000      -1.104910       -30.0661
  63   2.0000      -1.097962       -29.8771
  64   2.0000      -1.068472       -29.0746
  65   2.0000      -1.054124       -28.6842
  66   2.0000      -1.042013       -28.3546
  67   2.0000      -1.033213       -28.1151
  68   2.0000      -1.014613       -27.6090
  69   2.0000      -1.004204       -27.3258
  70   2.0000      -1.001693       -27.2574
  71   2.0000      -0.993590       -27.0369
  72   2.0000      -0.984821       -26.7984
  73   2.0000      -0.977306       -26.5939
  74   2.0000      -0.963888       -26.2287
  75   2.0000      -0.961979       -26.1768
  76   2.0000      -0.951039       -25.8791
  77   2.0000      -0.941007       -25.6061
  78   2.0000      -0.930878       -25.3305
  79   2.0000      -0.920602       -25.0509
  80   2.0000      -0.913208       -24.8497
  81   2.0000      -0.890023       -24.2187
  82   2.0000      -0.885194       -24.0874
  83   2.0000      -0.868990       -23.6464
  84   2.0000      -0.860656       -23.4197
  85   2.0000      -0.847203       -23.0536
  86   2.0000      -0.830165       -22.5899
  87   2.0000      -0.827804       -22.5257
  88   2.0000      -0.820759       -22.3340
  89   2.0000      -0.794535       -21.6204
  90   2.0000      -0.786521       -21.4023
  91   2.0000      -0.769231       -20.9318
  92   2.0000      -0.735869       -20.0240
  93   2.0000      -0.733461       -19.9585
  94   2.0000      -0.728267       -19.8171
  95   2.0000      -0.722716       -19.6661
  96   2.0000      -0.716387       -19.4939
  97   2.0000      -0.708166       -19.2702
  98   2.0000      -0.705380       -19.1944
  99   2.0000      -0.703323       -19.1384
 100   2.0000      -0.695696       -18.9309
 101   2.0000      -0.688648       -18.7391
 102   2.0000      -0.684210       -18.6183
 103   2.0000      -0.674766       -18.3613
 104   2.0000      -0.673081       -18.3155
 105   2.0000      -0.667666       -18.1681
 106   2.0000      -0.667073       -18.1520
 107   2.0000      -0.662743       -18.0341
 108   2.0000      -0.652389       -17.7524
 109   2.0000      -0.649690       -17.6790
 110   2.0000      -0.648400       -17.6439
 111   2.0000      -0.642632       -17.4869
 112   2.0000      -0.640404       -17.4263
 113   2.0000      -0.635402       -17.2902
 114   2.0000      -0.630948       -17.1690
 115   2.0000      -0.630131       -17.1467
 116   2.0000      -0.626677       -17.0527
 117   2.0000      -0.616749       -16.7826
 118   2.0000      -0.611363       -16.6360
 119   2.0000      -0.609792       -16.5933
 120   2.0000      -0.608975       -16.5711
 121   2.0000      -0.601328       -16.3630
 122   2.0000      -0.589742       -16.0477
 123   2.0000      -0.589031       -16.0283
 124   2.0000      -0.584720       -15.9110
 125   2.0000      -0.578713       -15.7476
 126   2.0000      -0.575414       -15.6578
 127   2.0000      -0.572251       -15.5717
 128   2.0000      -0.571332       -15.5467
 129   2.0000      -0.566962       -15.4278
 130   2.0000      -0.556423       -15.1410
 131   2.0000      -0.545073       -14.8322
 132   2.0000      -0.541552       -14.7364
 133   2.0000      -0.539243       -14.6736
 134   2.0000      -0.533660       -14.5216
 135   2.0000      -0.529717       -14.4143
 136   2.0000      -0.518829       -14.1180
 137   2.0000      -0.515928       -14.0391
 138   2.0000      -0.513268       -13.9667
 139   2.0000      -0.512774       -13.9533
 140   2.0000      -0.510034       -13.8787
 141   2.0000      -0.502989       -13.6870
 142   2.0000      -0.501535       -13.6475
 143   2.0000      -0.498438       -13.5632
 144   2.0000      -0.495208       -13.4753
 145   2.0000      -0.493471       -13.4280
 146   2.0000      -0.489284       -13.3141
 147   2.0000      -0.474455       -12.9106
 148   2.0000      -0.471863       -12.8400
 149   2.0000      -0.465569       -12.6688
 150   2.0000      -0.462152       -12.5758
 151   2.0000      -0.460311       -12.5257
 152   2.0000      -0.451661       -12.2903
 153   2.0000      -0.441051       -12.0016
 154   2.0000      -0.433646       -11.8001
 155   2.0000      -0.431920       -11.7531
 156   2.0000      -0.418924       -11.3995
 157   2.0000      -0.415158       -11.2970
 158   2.0000      -0.412289       -11.2190
 159   2.0000      -0.406313       -11.0563
 160   2.0000      -0.381856       -10.3908
 161   2.0000      -0.369815       -10.0632
 162   2.0000      -0.353927        -9.6308
 163   2.0000      -0.352477        -9.5914
 164   2.0000      -0.346225        -9.4213
 165   2.0000      -0.340942        -9.2775
 166   2.0000      -0.338442        -9.2095
 167   2.0000      -0.319212        -8.6862
 168   2.0000      -0.312757        -8.5106
 169   2.0000      -0.303775        -8.2661
 170   2.0000      -0.298165        -8.1135
 171   2.0000      -0.282820        -7.6959
 172   2.0000      -0.276383        -7.5208
 173   2.0000      -0.265865        -7.2345
 174   2.0000      -0.229985        -6.2582
 175   2.0000      -0.183264        -4.9869
 176   2.0000      -0.173375        -4.7178
 177   2.0000      -0.062417        -1.6984
 178   2.0000      -0.050904        -1.3852
 179   0.0000       0.035489         0.9657
 180   0.0000       0.055818         1.5189
 181   0.0000       0.077623         2.1122
 182   0.0000       0.098401         2.6776
 183   0.0000       0.102178         2.7804

MULLIKEN ATOMIC CHARGES
-----------------------
   0 C :    0.234714
   1 N :   -0.412812
   2 C :   -0.066781
   3 N :   -0.344031
   4 C :   -0.070985
   5 N :   -0.565750
   6 C :   -0.027430
   7 N :   -0.336906
   8 C :    0.233703
   9 N :   -0.566179
  10 C :    0.103282
  11 N :   -0.439911
  12 C :   -0.058186
  13 N :   -0.451267
  14 C :    0.219098
  15 N :   -0.441664
  16 C :    0.256928
  17 C :   -0.028533
  18 C :   -0.173905
  19 C :    0.228304
  20 C :    0.187386
  21 C :   -0.066522
  22 C :   -0.091457
  23 C :   -0.068051
  24 C :    0.217414
  25 C :    0.115023
  26 C :   -0.065880
  27 C :    0.248243
  28 C :   -0.039412
  29 C :   -0.197052
  30 C :    0.220412
  31 C :    0.187456
  32 C :   -0.064331
  33 C :   -0.103097
  34 C :   -0.050318
  35 C :    0.177643
  36 C :    0.121198
  37 C :   -0.070660
  38 C :    0.244887
  39 C :   -0.065608
  40 C :   -0.204658
  41 C :    0.215819
  42 C :    0.212285
  43 C :   -0.077564
  44 C :   -0.092256
  45 C :   -0.037939
  46 C :    0.183590
  47 C :    0.116789
  48 C :   -0.082576
  49 C :    0.207071
  50 C :   -0.067819
  51 C :   -0.188874
  52 H :    0.082409
  53 H :   -0.006865
  54 H :    0.066711
  55 H :    0.081136
  56 H :    0.085360
  57 H :    0.076404
  58 H :    0.075103
  59 H :   -0.029627
  60 H :    0.067587
  61 H :    0.177223
  62 H :    0.167680
  63 H :    0.052334
  64 H :   -0.034970
  65 H :    0.040069
  66 H :    0.054471
  67 H :    0.057826
  68 H :    0.055686
  69 H :    0.058768
  70 H :   -0.013095
  71 H :    0.046369
  72 H :    0.036899
  73 H :   -0.019318
  74 H :    0.028874
  75 H :    0.035546
  76 H :    0.045722
  77 H :    0.045700
  78 H :    0.044931
  79 H :   -0.011584
  80 H :    0.028595
  81 H :    0.050181
  82 H :   -0.023174
  83 H :    0.042606
  84 H :    0.049073
  85 H :    0.054023
  86 H :    0.056330
  87 H :    0.054348
  88 H :   -0.030945
  89 H :    0.038781
Sum of atomic charges:   -0.0000000

LOEWDIN ATOMIC CHARGES
----------------------
   0 C :    0.038326
   1 N :    0.193222
   2 C :   -0.098589
   3 N :    0.170772
   4 C :    0.118848
   5 N :   -0.148020
   6 C :   -0.010674
   7 N :    0.177400
   8 C :    0.038724
   9 N :   -0.138391
  10 C :    0.040189
  11 N :    0.138778
  12 C :   -0.096313
  13 N :    0.112695
  14 C :   -0.062274
  15 N :    0.134467
  16 C :   -0.016285
  17 C :   -0.010238
  18 C :   -0.121096
  19 C :   -0.089711
  20 C :   -0.019273
  21 C :   -0.098851
  22 C :    0.032258
  23 C :   -0.034602
  24 C :    0.007375
  25 C :    0.029135
  26 C :   -0.092015
  27 C :   -0.053644
  28 C :   -0.014777
  29 C :   -0.118087
  30 C :   -0.065820
  31 C :   -0.027145
  32 C :   -0.100438
  33 C :   -0.007512
  34 C :   -0.026898
  35 C :   -0.035914
  36 C :    0.022920
  37 C :   -0.110306
  38 C :   -0.028443
  39 C :   -0.034852
  40 C :   -0.113580
  41 C :   -0.094077
  42 C :    0.000813
  43 C :   -0.114692
  44 C :    0.026910
  45 C :   -0.014068
  46 C :   -0.024152
  47 C :    0.028129
  48 C :   -0.115540
  49 C :   -0.118469
  50 C :   -0.033876
  51 C :   -0.108357
  52 H :    0.042192
  53 H :    0.007781
  54 H :    0.055619
  55 H :    0.042192
  56 H :    0.040338
  57 H :    0.039728
  58 H :    0.039912
  59 H :   -0.000806
  60 H :    0.055939
  61 H :    0.062659
  62 H :    0.057644
  63 H :    0.028478
  64 H :   -0.005348
  65 H :    0.041382
  66 H :    0.029731
  67 H :    0.026155
  68 H :    0.030879
  69 H :    0.031156
  70 H :    0.003317
  71 H :    0.045343
  72 H :    0.021782
  73 H :    0.001750
  74 H :    0.037531
  75 H :    0.020764
  76 H :    0.019769
  77 H :    0.025739
  78 H :    0.025426
  79 H :    0.005640
  80 H :    0.036578
  81 H :    0.027906
  82 H :   -0.001416
  83 H :    0.044107
  84 H :    0.026637
  85 H :    0.024166
  86 H :    0.030323
  87 H :    0.030031
  88 H :   -0.005474
  89 H :    0.040469

  Mayer bond orders larger than 0.100000
B(  0-C ,  1-N ) :   1.2033 B(  0-C , 17-C ) :   1.5187 B(  0-C , 52-H ) :   0.9667
B(  1-N ,  8-C ) :   1.2023 B(  1-N , 10-C ) :   0.9263 B(  2-C , 12-C ) :   1.5795
B(  2-C , 16-C ) :   1.2734 B(  2-C , 53-H ) :   0.9793 B(  3-N , 14-C ) :   1.1753
B(  3-N , 16-C ) :   1.2020 B(  3-N , 61-H ) :   0.8953 B(  4-C ,  6-C ) :   1.3558
B(  4-C , 17-C ) :   1.3587 B(  4-C , 18-C ) :   1.0574 B(  5-N , 19-C ) :   1.3655
B(  5-N , 27-C ) :   1.4478 B(  6-C ,  8-C ) :   1.5194 B(  6-C , 54-H ) :   0.9707
B(  7-N , 30-C ) :   1.1837 B(  7-N , 38-C ) :   1.2156 B(  7-N , 62-H ) :   0.9014
B(  8-C , 55-H ) :   0.9677 B(  9-N , 41-C ) :   1.4340 B(  9-N , 49-C ) :   1.3938
B( 10-C , 56-H ) :   0.9766 B( 10-C , 57-H ) :   0.9808 B( 10-C , 58-H ) :   0.9815
B( 11-N , 20-C ) :   1.0972 B( 11-N , 24-C ) :   1.1344 B( 11-N , 25-C ) :   0.9623
B( 12-C , 14-C ) :   1.2741 B( 12-C , 59-H ) :   0.9769 B( 13-N , 31-C ) :   1.0831
B( 13-N , 35-C ) :   1.0725 B( 13-N , 36-C ) :   0.9820 B( 14-C , 18-C ) :   1.2624
B( 15-N , 42-C ) :   1.1262 B( 15-N , 46-C ) :   1.0899 B( 15-N , 47-C ) :   0.9663
B( 16-C , 51-C ) :   1.2475 B( 17-C , 60-H ) :   0.9708 B( 18-C , 19-C ) :   1.3091
B( 19-C , 21-C ) :   1.1639 B( 20-C , 28-C ) :   1.6289 B( 20-C , 63-H ) :   0.9709
B( 21-C , 26-C ) :   1.6812 B( 21-C , 64-H ) :   0.9719 B( 22-C , 23-C ) :   1.2558
B( 22-C , 28-C ) :   1.2799 B( 22-C , 29-C ) :   1.2560 B( 23-C , 24-C ) :   1.6346
B( 23-C , 65-H ) :   0.9722 B( 24-C , 66-H ) :   0.9690 B( 25-C , 67-H ) :   0.9762
B( 25-C , 68-H ) :   0.9834 B( 25-C , 69-H ) :   0.9819 B( 26-C , 27-C ) :   1.1729
B( 26-C , 70-H ) :   0.9757 B( 27-C , 29-C ) :   1.2416 B( 28-C , 71-H ) :   0.9709
B( 29-C , 30-C ) :   1.1768 B( 30-C , 32-C ) :   1.3495 B( 31-C , 39-C ) :   1.6838
B( 31-C , 72-H ) :   0.9708 B( 32-C , 37-C ) :   1.5104 B( 32-C , 73-H ) :   0.9771
B( 33-C , 34-C ) :   1.2334 B( 33-C , 39-C ) :   1.2255 B( 33-C , 40-C ) :   1.3558
B( 34-C , 35-C ) :   1.6823 B( 34-C , 74-H ) :   0.9709 B( 35-C , 75-H ) :   0.9709
B( 36-C , 76-H ) :   0.9755 B( 36-C , 77-H ) :   0.9826 B( 36-C , 78-H ) :   0.9838
B( 37-C , 38-C ) :   1.3434 B( 37-C , 79-H ) :   0.9793 B( 38-C , 40-C ) :   1.1795
B( 39-C , 80-H ) :   0.9721 B( 40-C , 41-C ) :   1.1689 B( 41-C , 43-C ) :   1.2564
B( 42-C , 50-C ) :   1.6418 B( 42-C , 81-H ) :   0.9696 B( 43-C , 48-C ) :   1.5947
B( 43-C , 82-H ) :   0.9756 B( 44-C , 45-C ) :   1.2808 B( 44-C , 50-C ) :   1.2495
B( 44-C , 51-C ) :   1.2475 B( 45-C , 46-C ) :   1.6328 B( 45-C , 83-H ) :   0.9702
B( 46-C , 84-H ) :   0.9709 B( 47-C , 85-H ) :   0.9760 B( 47-C , 86-H ) :   0.9826
B( 47-C , 87-H ) :   0.9830 B( 48-C , 49-C ) :   1.2507 B( 48-C , 88-H ) :   0.9726
B( 49-C , 51-C ) :   1.1891 B( 50-C , 89-H ) :   0.9722

MP2 TOTAL ENERGY:    -2130.874003255 Eh
FINAL SINGLE POINT ENERGY     -2130.874003254986

DIPOLE MOMENT
-------------
                                X             Y             Z
Electronic contribution:     -4.49836       5.09193      -0.06019
Nuclear contribution   :      0.05040       0.22381       0.08465
                        -----------------------------------------
Total Dipole Moment    :     -4.44795       5.31574       0.02447
                        -----------------------------------------
Magnitude (a.u.)       :      6.93123
Magnitude (Debye)      :     17.61779

Rotational constants in cm-1:     0.001498     0.001472     0.000763
Rotational constants in MHz :    44.917147    44.124756    22.868098

                             ****ORCA TERMINATED NORMALLY****
TOTAL RUN TIME: 0 days 1 hours 19 minutes 42 seconds 278 msec
