                         Program Version 5.0.4 -  RELEASE  -
|  1> ! PAL2
|  2> ! mp2 cc-pvdz TightSCF  NoKeepInts
|  3>
|  4> %scf
|  5>   MaxCore 2000
|  6> end
|  7> %mp2
|  8>   MaxCore 2000
|  9> end
| 10> * xyz 0 1
| 11>    C       -4.88900         5.21800         0.49700
| 12>    C        1.47400         4.04100         0.05700
| 13>    C       -2.80200         4.09300         0.04900
| 14>    C       -2.28800         5.32600        -0.38100
| 15>    C       -3.08300         6.45500        -0.35600
| 16>    C       -5.17800         7.62600         0.12500
| 17>    C        0.13200         4.30700         0.06100
| 18>    C       -0.56900         3.05600         0.04700
| 19>    C        1.64900         2.61800         0.02300
| 20>    C       -4.13200         4.06300         0.49600
| 21>    N       -4.36400         6.39100         0.07500
| 22>    N        0.38800         2.06700         0.02500
| 23>    N       -2.01000         0.39500        -0.07500
| 24>    N       -0.38800        -2.07400        -0.02700
| 25>    N        2.01000        -0.40100         0.06500
| 26>    C       -1.96000         2.86100         0.02400
| 27>    C       -2.62300         1.61500        -0.01800
| 28>    C       -5.57300        -4.32900         1.06600
| 29>    C       -4.07300         1.47100         0.05600
| 30>    C       -4.10600        -2.75600        -0.02600
| 31>    C       -4.99500        -2.75700        -1.11100
| 32>    C       -6.13200        -3.54200        -1.07600
| 33>    C       -7.65100        -5.11300         0.04000
| 34>    C       -4.32400         0.14100         0.03700
| 35>    C       -3.02500        -0.52000        -0.04800
| 36>    C       -4.42200        -3.56600         1.07500
| 37>    N       -6.40700        -4.31300         0.00100
| 38>    C       -2.86700        -1.92200        -0.04000
| 39>    C       -1.65000        -2.62400        -0.02700
| 40>    C        3.56800        -6.14200        -1.04000
| 41>    C       -1.47600        -4.04900        -0.03400
| 42>    C        2.80300        -4.09900        -0.00800
| 43>    C        3.65700        -4.38400         1.06900
| 44>    C        4.42700        -5.53000         1.05900
| 45>    C        5.24500        -7.58800         0.01400
| 46>    C       -0.13400        -4.31500        -0.02200
| 47>    C        0.56800        -3.06400        -0.02700
| 48>    C        2.77500        -5.01200        -1.07400
| 49>    N        4.37600        -6.39100         0.01700
| 50>    C        1.95900        -2.86900        -0.00900
| 51>    C        2.62100        -1.62200         0.00900
| 52>    C        5.54300         4.33900        -1.13000
| 53>    C        4.07000        -1.47900        -0.09400
| 54>    C        4.10400         2.75100        -0.02100
| 55>    C        5.02700         2.72900         1.03600
| 56>    C        6.16600         3.50900         0.97800
| 57>    C        7.61900         5.15300        -0.11500
| 58>    C        4.32100        -0.14800        -0.09200
| 59>    C        3.02500         0.51400         0.01500
| 60>    C        4.38700         3.58200        -1.11500
| 61>    C        2.86600         1.91600         0.01300
| 62>    N        6.41300         4.29600        -0.09500
| 63>    H       -5.92300         5.23900         0.82100
| 64>    H        2.27400         4.76600         0.08100
| 65>    H       -1.26600         5.41600        -0.72800
| 66>    H       -2.72900         7.42900        -0.66900
| 67>    H       -4.99400         8.13500         1.07400
| 68>    H       -4.89100         8.26900        -0.70700
| 69>    H       -6.23000         7.35600         0.04300
| 70>    H       -0.33200         5.28200         0.06900
| 71>    H       -4.59100         3.13800         0.82700
| 72>    H        0.18200         1.07200         0.00500
| 73>    H       -0.18300        -1.08000        -0.02100
| 74>    H       -5.86400        -4.96200         1.89500
| 75>    H       -4.79400         2.27200         0.13900
| 76>    H       -4.80000        -2.16000        -1.99400
| 77>    H       -6.84100        -3.58200        -1.89300
| 78>    H       -8.42800        -4.53600         0.54600
| 79>    H       -7.95600        -5.33700        -0.98100
| 80>    H       -7.45600        -6.03700         0.58400
| 81>    H       -5.28700        -0.34400         0.10000
| 82>    H       -3.78000        -3.60100         1.94700
| 83>    H        3.58700        -6.86800        -1.84300
| 84>    H       -2.27600        -4.77400        -0.05000
| 85>    H        3.71400        -3.72400         1.92600
| 86>    H        5.09200        -5.79500         1.87100
| 87>    H        6.20500        -7.32900        -0.43900
| 88>    H        5.39300        -7.91700         1.04200
| 89>    H        4.75900        -8.37300        -0.56400
| 90>    H        0.32900        -5.29000        -0.00800
| 91>    H        2.14600        -4.84200        -1.94000
| 92>    H        5.80800         4.98600        -1.95600
| 93>    H        4.78800        -2.28100        -0.18500
| 94>    H        4.86000         2.11400         1.91200
| 95>    H        6.90100         3.53100         1.77200
| 96>    H        7.38300         6.10900         0.35600
| 97>    H        8.41400         4.65200         0.43500
| 98>    H        7.92100         5.31000        -1.15000
| 99>    H        5.28300         0.33600        -0.17900
|100>    H        3.72000         3.63200        -1.96700
|101> *
|102>
|103>                          ****END OF INPUT****

CARTESIAN COORDINATES (ANGSTROEM)
---------------------------------
  C     -4.889000    5.218000    0.497000
  C      1.474000    4.041000    0.057000
  C     -2.802000    4.093000    0.049000
  C     -2.288000    5.326000   -0.381000
  C     -3.083000    6.455000   -0.356000
  C     -5.178000    7.626000    0.125000
  C      0.132000    4.307000    0.061000
  C     -0.569000    3.056000    0.047000
  C      1.649000    2.618000    0.023000
  C     -4.132000    4.063000    0.496000
  N     -4.364000    6.391000    0.075000
  N      0.388000    2.067000    0.025000
  N     -2.010000    0.395000   -0.075000
  N     -0.388000   -2.074000   -0.027000
  N      2.010000   -0.401000    0.065000
  C     -1.960000    2.861000    0.024000
  C     -2.623000    1.615000   -0.018000
  C     -5.573000   -4.329000    1.066000
  C     -4.073000    1.471000    0.056000
  C     -4.106000   -2.756000   -0.026000
  C     -4.995000   -2.757000   -1.111000
  C     -6.132000   -3.542000   -1.076000
  C     -7.651000   -5.113000    0.040000
  C     -4.324000    0.141000    0.037000
  C     -3.025000   -0.520000   -0.048000
  C     -4.422000   -3.566000    1.075000
  N     -6.407000   -4.313000    0.001000
  C     -2.867000   -1.922000   -0.040000
  C     -1.650000   -2.624000   -0.027000
  C      3.568000   -6.142000   -1.040000
  C     -1.476000   -4.049000   -0.034000
  C      2.803000   -4.099000   -0.008000
  C      3.657000   -4.384000    1.069000
  C      4.427000   -5.530000    1.059000
  C      5.245000   -7.588000    0.014000
  C     -0.134000   -4.315000   -0.022000
  C      0.568000   -3.064000   -0.027000
  C      2.775000   -5.012000   -1.074000
  N      4.376000   -6.391000    0.017000
  C      1.959000   -2.869000   -0.009000
  C      2.621000   -1.622000    0.009000
  C      5.543000    4.339000   -1.130000
  C      4.070000   -1.479000   -0.094000
  C      4.104000    2.751000   -0.021000
  C      5.027000    2.729000    1.036000
  C      6.166000    3.509000    0.978000
  C      7.619000    5.153000   -0.115000
  C      4.321000   -0.148000   -0.092000
  C      3.025000    0.514000    0.015000
  C      4.387000    3.582000   -1.115000
  C      2.866000    1.916000    0.013000
  N      6.413000    4.296000   -0.095000
  H     -5.923000    5.239000    0.821000
  H      2.274000    4.766000    0.081000
  H     -1.266000    5.416000   -0.728000
  H     -2.729000    7.429000   -0.669000
  H     -4.994000    8.135000    1.074000
  H     -4.891000    8.269000   -0.707000
  H     -6.230000    7.356000    0.043000
  H     -0.332000    5.282000    0.069000
  H     -4.591000    3.138000    0.827000
  H      0.182000    1.072000    0.005000
  H     -0.183000   -1.080000   -0.021000
  H     -5.864000   -4.962000    1.895000
  H     -4.794000    2.272000    0.139000
  H     -4.800000   -2.160000   -1.994000
  H     -6.841000   -3.582000   -1.893000
  H     -8.428000   -4.536000    0.546000
  H     -7.956000   -5.337000   -0.981000
  H     -7.456000   -6.037000    0.584000
  H     -5.287000   -0.344000    0.100000
  H     -3.780000   -3.601000    1.947000
  H      3.587000   -6.868000   -1.843000
  H     -2.276000   -4.774000   -0.050000
  H      3.714000   -3.724000    1.926000
  H      5.092000   -5.795000    1.871000
  H      6.205000   -7.329000   -0.439000
  H      5.393000   -7.917000    1.042000
  H      4.759000   -8.373000   -0.564000
  H      0.329000   -5.290000   -0.008000
  H      2.146000   -4.842000   -1.940000
  H      5.808000    4.986000   -1.956000
  H      4.788000   -2.281000   -0.185000
  H      4.860000    2.114000    1.912000
  H      6.901000    3.531000    1.772000
  H      7.383000    6.109000    0.356000
  H      8.414000    4.652000    0.435000
  H      7.921000    5.310000   -1.150000
  H      5.283000    0.336000   -0.179000
  H      3.720000    3.632000   -1.967000

 Total Charge           Charge          ....    0
 Multiplicity           Mult            ....    1
 Number of Electrons    NEL             ....  358
 Basis Dimension        Dim             ....  918

ORBITAL ENERGIES
----------------

  NO   OCC          E(Eh)            E(eV)
   0   2.0000     -15.677268      -426.6001
   1   2.0000     -15.634007      -425.4230
   2   2.0000     -15.631538      -425.3558
   3   2.0000     -15.589418      -424.2096
   4   2.0000     -15.524938      -422.4550
   5   2.0000     -15.515923      -422.2097
   6   2.0000     -15.453367      -420.5075
   7   2.0000     -15.440321      -420.1525
   8   2.0000     -11.327376      -308.2336
   9   2.0000     -11.326374      -308.2063
  10   2.0000     -11.326191      -308.2013
  11   2.0000     -11.299344      -307.4708
  12   2.0000     -11.298173      -307.4389
  13   2.0000     -11.292917      -307.2959
  14   2.0000     -11.290790      -307.2380
  15   2.0000     -11.286688      -307.1264
  16   2.0000     -11.286474      -307.1206
  17   2.0000     -11.279685      -306.9358
  18   2.0000     -11.271459      -306.7120
  19   2.0000     -11.261619      -306.4442
  20   2.0000     -11.260638      -306.4175
  21   2.0000     -11.253242      -306.2163
  22   2.0000     -11.252423      -306.1940
  23   2.0000     -11.237723      -305.7940
  24   2.0000     -11.236321      -305.7558
  25   2.0000     -11.231192      -305.6163
  26   2.0000     -11.230393      -305.5945
  27   2.0000     -11.229541      -305.5713
  28   2.0000     -11.229416      -305.5680
  29   2.0000     -11.210513      -305.0536
  30   2.0000     -11.209193      -305.0176
  31   2.0000     -11.196760      -304.6793
  32   2.0000     -11.190648      -304.5130
  33   2.0000     -11.190478      -304.5084
  34   2.0000     -11.188696      -304.4599
  35   2.0000     -11.187495      -304.4272
  36   2.0000     -11.186216      -304.3924
  37   2.0000     -11.185478      -304.3723
  38   2.0000     -11.181603      -304.2669
  39   2.0000     -11.173844      -304.0558
  40   2.0000     -11.172213      -304.0114
  41   2.0000     -11.170573      -303.9667
  42   2.0000     -11.167891      -303.8938
  43   2.0000     -11.160869      -303.7027
  44   2.0000     -11.160416      -303.6904
  45   2.0000     -11.157489      -303.6107
  46   2.0000     -11.155844      -303.5659
  47   2.0000     -11.155067      -303.5448
  48   2.0000     -11.147393      -303.3360
  49   2.0000     -11.136970      -303.0524
  50   2.0000     -11.130443      -302.8748
  51   2.0000     -11.118844      -302.5591
  52   2.0000      -1.358237       -36.9595
  53   2.0000      -1.321247       -35.9530
  54   2.0000      -1.319365       -35.9018
  55   2.0000      -1.282673       -34.9033
  56   2.0000      -1.225805       -33.3558
  57   2.0000      -1.210426       -32.9374
  58   2.0000      -1.172748       -31.9121
  59   2.0000      -1.151074       -31.3223
  60   2.0000      -1.141875       -31.0720
  61   2.0000      -1.110281       -30.2123
  62   2.0000      -1.108728       -30.1700
  63   2.0000      -1.080090       -29.3907
  64   2.0000      -1.078930       -29.3592
  65   2.0000      -1.045424       -28.4474
  66   2.0000      -1.044052       -28.4101
  67   2.0000      -1.039935       -28.2981
  68   2.0000      -1.014743       -27.6126
  69   2.0000      -1.013151       -27.5692
  70   2.0000      -1.009329       -27.4652
  71   2.0000      -0.993168       -27.0255
  72   2.0000      -0.986228       -26.8366
  73   2.0000      -0.980923       -26.6923
  74   2.0000      -0.972511       -26.4634
  75   2.0000      -0.961547       -26.1650
  76   2.0000      -0.954020       -25.9602
  77   2.0000      -0.945976       -25.7413
  78   2.0000      -0.935630       -25.4598
  79   2.0000      -0.918135       -24.9837
  80   2.0000      -0.908710       -24.7273
  81   2.0000      -0.895272       -24.3616
  82   2.0000      -0.875494       -23.8234
  83   2.0000      -0.872065       -23.7301
  84   2.0000      -0.869887       -23.6708
  85   2.0000      -0.858081       -23.3496
  86   2.0000      -0.841726       -22.9045
  87   2.0000      -0.835700       -22.7405
  88   2.0000      -0.825557       -22.4645
  89   2.0000      -0.797225       -21.6936
  90   2.0000      -0.790272       -21.5044
  91   2.0000      -0.753472       -20.5030
  92   2.0000      -0.749146       -20.3853
  93   2.0000      -0.733237       -19.9524
  94   2.0000      -0.725536       -19.7428
  95   2.0000      -0.722504       -19.6603
  96   2.0000      -0.717274       -19.5180
  97   2.0000      -0.714253       -19.4358
  98   2.0000      -0.709755       -19.3134
  99   2.0000      -0.697549       -18.9813
 100   2.0000      -0.696431       -18.9509
 101   2.0000      -0.687418       -18.7056
 102   2.0000      -0.683553       -18.6004
 103   2.0000      -0.682657       -18.5760
 104   2.0000      -0.678483       -18.4625
 105   2.0000      -0.673949       -18.3391
 106   2.0000      -0.671164       -18.2633
 107   2.0000      -0.660382       -17.9699
 108   2.0000      -0.657331       -17.8869
 109   2.0000      -0.653036       -17.7700
 110   2.0000      -0.651469       -17.7274
 111   2.0000      -0.644468       -17.5369
 112   2.0000      -0.644187       -17.5292
 113   2.0000      -0.638221       -17.3669
 114   2.0000      -0.637424       -17.3452
 115   2.0000      -0.628004       -17.0889
 116   2.0000      -0.622810       -16.9475
 117   2.0000      -0.621034       -16.8992
 118   2.0000      -0.612896       -16.6777
 119   2.0000      -0.612323       -16.6622
 120   2.0000      -0.611280       -16.6338
 121   2.0000      -0.609713       -16.5911
 122   2.0000      -0.600711       -16.3462
 123   2.0000      -0.587004       -15.9732
 124   2.0000      -0.581668       -15.8280
 125   2.0000      -0.580579       -15.7984
 126   2.0000      -0.579782       -15.7767
 127   2.0000      -0.571906       -15.5624
 128   2.0000      -0.568756       -15.4766
 129   2.0000      -0.559530       -15.2256
 130   2.0000      -0.552414       -15.0320
 131   2.0000      -0.547524       -14.8989
 132   2.0000      -0.542086       -14.7509
 133   2.0000      -0.541959       -14.7474
 134   2.0000      -0.538461       -14.6523
 135   2.0000      -0.535857       -14.5814
 136   2.0000      -0.530036       -14.4230
 137   2.0000      -0.521010       -14.1774
 138   2.0000      -0.516898       -14.0655
 139   2.0000      -0.514509       -14.0005
 140   2.0000      -0.512115       -13.9353
 141   2.0000      -0.510752       -13.8983
 142   2.0000      -0.509137       -13.8543
 143   2.0000      -0.504048       -13.7158
 144   2.0000      -0.502361       -13.6699
 145   2.0000      -0.496557       -13.5120
 146   2.0000      -0.490824       -13.3560
 147   2.0000      -0.482586       -13.1318
 148   2.0000      -0.478613       -13.0237
 149   2.0000      -0.467023       -12.7084
 150   2.0000      -0.466384       -12.6910
 151   2.0000      -0.457034       -12.4365
 152   2.0000      -0.451137       -12.2761
 153   2.0000      -0.444863       -12.1053
 154   2.0000      -0.440054       -11.9745
 155   2.0000      -0.427963       -11.6455
 156   2.0000      -0.418608       -11.3909
 157   2.0000      -0.407699       -11.0940
 158   2.0000      -0.398394       -10.8409
 159   2.0000      -0.388232       -10.5643
 160   2.0000      -0.386013       -10.5039
 161   2.0000      -0.378416       -10.2972
 162   2.0000      -0.370176       -10.0730
 163   2.0000      -0.356665        -9.7053
 164   2.0000      -0.355672        -9.6783
 165   2.0000      -0.341369        -9.2891
 166   2.0000      -0.337637        -9.1876
 167   2.0000      -0.325179        -8.8486
 168   2.0000      -0.322591        -8.7781
 169   2.0000      -0.304849        -8.2954
 170   2.0000      -0.299541        -8.1509
 171   2.0000      -0.285567        -7.7707
 172   2.0000      -0.280222        -7.6252
 173   2.0000      -0.263390        -7.1672
 174   2.0000      -0.241818        -6.5802
 175   2.0000      -0.189952        -5.1689
 176   2.0000      -0.180581        -4.9139
 177   2.0000      -0.077776        -2.1164
 178   2.0000      -0.059070        -1.6074
 179   0.0000       0.028356         0.7716
 180   0.0000       0.065712         1.7881
 181   0.0000       0.090711         2.4684
 182   0.0000       0.107864         2.9351
 183   0.0000       0.112749         3.0681

MULLIKEN ATOMIC CHARGES
-----------------------
   0 C :    0.209925
   1 N :   -0.455870
   2 C :   -0.070104
   3 N :   -0.339075
   4 C :   -0.050849
   5 N :   -0.566172
   6 C :   -0.118180
   7 N :   -0.340570
   8 C :    0.210472
   9 N :   -0.562254
  10 C :    0.119140
  11 N :   -0.438432
  12 C :   -0.073977
  13 N :   -0.429973
  14 C :    0.227405
  15 N :   -0.441001
  16 C :    0.229290
  17 C :   -0.113640
  18 C :   -0.188385
  19 C :    0.220728
  20 C :    0.213260
  21 C :   -0.082192
  22 C :   -0.091071
  23 C :   -0.039804
  24 C :    0.194021
  25 C :    0.114601
  26 C :   -0.086528
  27 C :    0.213960
  28 C :   -0.061416
  29 C :   -0.180828
  30 C :    0.245711
  31 C :    0.229246
  32 C :   -0.061892
  33 C :   -0.061381
  34 C :   -0.051078
  35 C :    0.227139
  36 C :    0.108545
  37 C :   -0.064379
  38 C :    0.231431
  39 C :   -0.057862
  40 C :   -0.181673
  41 C :    0.225746
  42 C :    0.197588
  43 C :   -0.072359
  44 C :   -0.089446
  45 C :   -0.061025
  46 C :    0.211248
  47 C :    0.115370
  48 C :   -0.067190
  49 C :    0.238470
  50 C :   -0.046724
  51 C :   -0.192567
  52 H :    0.038224
  53 H :   -0.017274
  54 H :    0.047257
  55 H :    0.036446
  56 H :    0.049533
  57 H :    0.047254
  58 H :    0.047795
  59 H :   -0.001497
  60 H :    0.049680
  61 H :    0.171219
  62 H :    0.175386
  63 H :    0.055198
  64 H :   -0.014281
  65 H :    0.047289
  66 H :    0.055705
  67 H :    0.062329
  68 H :    0.057241
  69 H :    0.056376
  70 H :   -0.030188
  71 H :    0.044717
  72 H :    0.070632
  73 H :   -0.008163
  74 H :    0.059768
  75 H :    0.070043
  76 H :    0.074327
  77 H :    0.067538
  78 H :    0.066836
  79 H :   -0.016468
  80 H :    0.060667
  81 H :    0.054239
  82 H :   -0.024782
  83 H :    0.042032
  84 H :    0.054202
  85 H :    0.060865
  86 H :    0.055597
  87 H :    0.057158
  88 H :   -0.014666
  89 H :    0.046364
Sum of atomic charges:   -0.0000000

LOEWDIN ATOMIC CHARGES
----------------------
   0 C :   -0.021145
   1 N :    0.118582
   2 C :   -0.101597
   3 N :    0.183205
   4 C :   -0.010817
   5 N :   -0.133514
   6 C :   -0.041864
   7 N :    0.175395
   8 C :   -0.021239
   9 N :   -0.140509
  10 C :    0.023683
  11 N :    0.141893
  12 C :   -0.116301
  13 N :    0.165020
  14 C :   -0.023199
  15 N :    0.138764
  16 C :   -0.059641
  17 C :   -0.036710
  18 C :   -0.106341
  19 C :   -0.078408
  20 C :    0.004380
  21 C :   -0.119986
  22 C :    0.036823
  23 C :   -0.014646
  24 C :   -0.012291
  25 C :    0.029800
  26 C :   -0.108513
  27 C :   -0.116036
  28 C :   -0.027485
  29 C :   -0.100072
  30 C :   -0.030299
  31 C :    0.023222
  32 C :   -0.094598
  33 C :    0.079820
  34 C :   -0.015330
  35 C :    0.021686
  36 C :    0.034968
  37 C :   -0.094373
  38 C :   -0.051754
  39 C :   -0.017941
  40 C :   -0.108383
  41 C :   -0.091389
  42 C :   -0.010253
  43 C :   -0.099394
  44 C :    0.033476
  45 C :   -0.027863
  46 C :    0.001646
  47 C :    0.029501
  48 C :   -0.095145
  49 C :   -0.070165
  50 C :   -0.019078
  51 C :   -0.108734
  52 H :    0.023371
  53 H :    0.002785
  54 H :    0.032382
  55 H :    0.022748
  56 H :    0.021882
  57 H :    0.026163
  58 H :    0.027175
  59 H :    0.011086
  60 H :    0.028864
  61 H :    0.060115
  62 H :    0.061810
  63 H :    0.030680
  64 H :    0.003688
  65 H :    0.045952
  66 H :    0.029282
  67 H :    0.028177
  68 H :    0.031629
  69 H :    0.030295
  70 H :   -0.004732
  71 H :    0.043444
  72 H :    0.037392
  73 H :    0.007051
  74 H :    0.050415
  75 H :    0.037046
  76 H :    0.034494
  77 H :    0.035970
  78 H :    0.035654
  79 H :    0.003024
  80 H :    0.050464
  81 H :    0.029030
  82 H :   -0.002692
  83 H :    0.042577
  84 H :    0.029881
  85 H :    0.027378
  86 H :    0.030204
  87 H :    0.031380
  88 H :    0.002300
  89 H :    0.044786

  Mayer bond orders larger than 0.100000
B(  0-C ,  1-N ) :   1.0912 B(  0-C , 17-C ) :   1.7124 B(  0-C , 52-H ) :   0.9650
B(  1-N ,  8-C ) :   1.0935 B(  1-N , 10-C ) :   0.9773 B(  2-C , 12-C ) :   1.4990
B(  2-C , 16-C ) :   1.3632 B(  2-C , 53-H ) :   0.9740 B(  3-N , 14-C ) :   1.2199
B(  3-N , 16-C ) :   1.1859 B(  3-N , 61-H ) :   0.8989 B(  4-C ,  6-C ) :   1.2138
B(  4-C , 17-C ) :   1.2117 B(  4-C , 18-C ) :   1.4538 B(  5-N , 19-C ) :   1.4549
B(  5-N , 27-C ) :   1.3755 B(  6-C ,  8-C ) :   1.7078 B(  6-C , 54-H ) :   0.9381
B(  7-N , 30-C ) :   1.1957 B(  7-N , 38-C ) :   1.1902 B(  7-N , 62-H ) :   0.8968
B(  8-C , 55-H ) :   0.9660 B(  9-N , 41-C ) :   1.3946 B(  9-N , 49-C ) :   1.4251
B( 10-C , 56-H ) :   0.9773 B( 10-C , 57-H ) :   0.9822 B( 10-C , 58-H ) :   0.9843
B( 11-N , 20-C ) :   1.1307 B( 11-N , 24-C ) :   1.1073 B( 11-N , 25-C ) :   0.9602
B( 12-C , 14-C ) :   1.3568 B( 12-C , 59-H ) :   0.9632 B( 13-N , 31-C ) :   1.1595
B( 13-N , 35-C ) :   1.1579 B( 13-N , 36-C ) :   0.9423 B( 14-C , 18-C ) :   1.1251
B( 15-N , 42-C ) :   1.1080 B( 15-N , 46-C ) :   1.1237 B( 15-N , 47-C ) :   0.9613
B( 16-C , 51-C ) :   1.1696 B( 17-C , 60-H ) :   0.9282 B( 18-C , 19-C ) :   1.1269
B( 19-C , 21-C ) :   1.2494 B( 20-C , 28-C ) :   1.6287 B( 20-C , 63-H ) :   0.9703
B( 21-C , 26-C ) :   1.5941 B( 21-C , 64-H ) :   0.9511 B( 22-C , 23-C ) :   1.2890
B( 22-C , 28-C ) :   1.2640 B( 22-C , 29-C ) :   1.2248 B( 23-C , 24-C ) :   1.6203
B( 23-C , 65-H ) :   0.9703 B( 24-C , 66-H ) :   0.9695 B( 25-C , 67-H ) :   0.9760
B( 25-C , 68-H ) :   0.9828 B( 25-C , 69-H ) :   0.9823 B( 26-C , 27-C ) :   1.2512
B( 26-C , 70-H ) :   0.9694 B( 27-C , 29-C ) :   1.2092 B( 28-C , 71-H ) :   0.9720
B( 29-C , 30-C ) :   1.2442 B( 30-C , 32-C ) :   1.2809 B( 31-C , 39-C ) :   1.5900
B( 31-C , 72-H ) :   0.9682 B( 32-C , 37-C ) :   1.5778 B( 32-C , 73-H ) :   0.9786
B( 33-C , 34-C ) :   1.3055 B( 33-C , 39-C ) :   1.3022 B( 33-C , 40-C ) :   1.1797
B( 34-C , 35-C ) :   1.5875 B( 34-C , 74-H ) :   0.9697 B( 35-C , 75-H ) :   0.9682
B( 36-C , 76-H ) :   0.9767 B( 36-C , 77-H ) :   0.9816 B( 36-C , 78-H ) :   0.9824
B( 37-C , 38-C ) :   1.2865 B( 37-C , 79-H ) :   0.9765 B( 38-C , 40-C ) :   1.2324
B( 39-C , 80-H ) :   0.9706 B( 40-C , 41-C ) :   1.2494 B( 41-C , 43-C ) :   1.1856
B( 42-C , 50-C ) :   1.6332 B( 42-C , 81-H ) :   0.9697 B( 43-C , 48-C ) :   1.6671
B( 43-C , 82-H ) :   0.9722 B( 44-C , 45-C ) :   1.2639 B( 44-C , 50-C ) :   1.2721
B( 44-C , 51-C ) :   1.2606 B( 45-C , 46-C ) :   1.6346 B( 45-C , 83-H ) :   0.9718
B( 46-C , 84-H ) :   0.9700 B( 47-C , 85-H ) :   0.9762 B( 47-C , 86-H ) :   0.9829
B( 47-C , 87-H ) :   0.9824 B( 48-C , 49-C ) :   1.1891 B( 48-C , 88-H ) :   0.9748
B( 49-C , 51-C ) :   1.2428 B( 50-C , 89-H ) :   0.9709

MP2 TOTAL ENERGY:    -2130.846347156 Eh
FINAL SINGLE POINT ENERGY     -2130.846347156141

DIPOLE MOMENT
-------------
                                X             Y             Z
Electronic contribution:      2.57704      -4.17536      -0.17562
Nuclear contribution   :      0.07489       0.23864       0.17297
                        -----------------------------------------
Total Dipole Moment    :      2.65194      -3.93672      -0.00265
                        -----------------------------------------
Magnitude (a.u.)       :      4.74664
Magnitude (Debye)      :     12.06499

Rotational constants in cm-1:     0.001501     0.001479     0.000760
Rotational constants in MHz :    44.994959    44.335943    22.791654

                             ****ORCA TERMINATED NORMALLY****
TOTAL RUN TIME: 0 days 1 hours 14 minutes 15 seconds 201 msec
