                         Program Version 5.0.4 -  RELEASE  -
|  1> ! PAL2
|  2> ! mp2 cc-pvdz TightSCF  NoKeepInts
|  3>
|  4> %scf
|  5>   MaxCore 2000
|  6> end
|  7> %mp2
|  8>   MaxCore 2000
|  9> end
| 10> * xyz 0 1
| 11>    C       -4.47700         5.52900        -0.92900
| 12>    C        1.47400         4.04100         0.05700
| 13>    C       -2.80200         4.09300         0.04900
| 14>    C       -2.69800         5.01600         1.10100
| 15>    C       -3.48100         6.15300         1.10600
| 16>    C       -5.20400         7.60700         0.15300
| 17>    C        0.13200         4.30700         0.06100
| 18>    C       -0.56900         3.05600         0.04700
| 19>    C        1.64900         2.61800         0.02300
| 20>    C       -3.71900         4.37500        -0.97500
| 21>    N       -4.35200         6.39900         0.09900
| 22>    N        0.38800         2.06700         0.02500
| 23>    N       -2.01000         0.39500        -0.07500
| 24>    N       -0.38800        -2.07400        -0.02700
| 25>    N        2.01000        -0.40100         0.06500
| 26>    C       -1.96000         2.86100         0.02400
| 27>    C       -2.62300         1.61500        -0.01800
| 28>    C       -5.57300        -4.32900         1.06600
| 29>    C       -4.07300         1.47100         0.05600
| 30>    C       -4.10600        -2.75600        -0.02600
| 31>    C       -4.99500        -2.75700        -1.11100
| 32>    C       -6.13200        -3.54200        -1.07600
| 33>    C       -7.65100        -5.11300         0.04000
| 34>    C       -4.32400         0.14100         0.03700
| 35>    C       -3.02500        -0.52000        -0.04800
| 36>    C       -4.42200        -3.56600         1.07500
| 37>    N       -6.40700        -4.31300         0.00100
| 38>    C       -2.86700        -1.92200        -0.04000
| 39>    C       -1.65000        -2.62400        -0.02700
| 40>    C        3.56800        -6.14200        -1.04000
| 41>    C       -1.47600        -4.04900        -0.03400
| 42>    C        2.80300        -4.09900        -0.00800
| 43>    C        3.65700        -4.38400         1.06900
| 44>    C        4.42700        -5.53000         1.05900
| 45>    C        5.24500        -7.58800         0.01400
| 46>    C       -0.13400        -4.31500        -0.02200
| 47>    C        0.56800        -3.06400        -0.02700
| 48>    C        2.77500        -5.01200        -1.07400
| 49>    N        4.37600        -6.39100         0.01700
| 50>    C        1.95900        -2.86900        -0.00900
| 51>    C        2.62100        -1.62200         0.00900
| 52>    C        5.54300         4.33900        -1.13000
| 53>    C        4.07000        -1.47900        -0.09400
| 54>    C        4.10400         2.75100        -0.02100
| 55>    C        5.02700         2.72900         1.03600
| 56>    C        6.16600         3.50900         0.97800
| 57>    C        7.61900         5.15300        -0.11500
| 58>    C        4.32100        -0.14800        -0.09200
| 59>    C        3.02500         0.51400         0.01500
| 60>    C        4.38700         3.58200        -1.11500
| 61>    C        2.86600         1.91600         0.01300
| 62>    N        6.41300         4.29600        -0.09500
| 63>    H       -5.18700         5.79300        -1.70300
| 64>    H        2.27400         4.76600         0.08100
| 65>    H       -2.01500         4.85000         1.92500
| 66>    H       -3.44300         6.88800         1.89900
| 67>    H       -6.10100         7.38500         0.73500
| 68>    H       -4.64100         8.41300         0.62400
| 69>    H       -5.47800         7.88900        -0.86400
| 70>    H       -0.33200         5.28200         0.06900
| 71>    H       -3.83500         3.70800        -1.82200
| 72>    H        0.18200         1.07200         0.00500
| 73>    H       -0.18300        -1.08000        -0.02100
| 74>    H       -5.86400        -4.96200         1.89500
| 75>    H       -4.79400         2.27200         0.13900
| 76>    H       -4.80000        -2.16000        -1.99400
| 77>    H       -6.84100        -3.58200        -1.89300
| 78>    H       -8.42800        -4.53600         0.54600
| 79>    H       -7.95600        -5.33700        -0.98100
| 80>    H       -7.45600        -6.03700         0.58400
| 81>    H       -5.28700        -0.34400         0.10000
| 82>    H       -3.78000        -3.60100         1.94700
| 83>    H        3.58700        -6.86800        -1.84300
| 84>    H       -2.27600        -4.77400        -0.05000
| 85>    H        3.71400        -3.72400         1.92600
| 86>    H        5.09200        -5.79500         1.87100
| 87>    H        6.20500        -7.32900        -0.43900
| 88>    H        5.39300        -7.91700         1.04200
| 89>    H        4.75900        -8.37300        -0.56400
| 90>    H        0.32900        -5.29000        -0.00800
| 91>    H        2.14600        -4.84200        -1.94000
| 92>    H        5.80800         4.98600        -1.95600
| 93>    H        4.78800        -2.28100        -0.18500
| 94>    H        4.86000         2.11400         1.91200
| 95>    H        6.90100         3.53100         1.77200
| 96>    H        7.38300         6.10900         0.35600
| 97>    H        8.41400         4.65200         0.43500
| 98>    H        7.92100         5.31000        -1.15000
| 99>    H        5.28300         0.33600        -0.17900
|100>    H        3.72000         3.63200        -1.96700
|101> *
|102>
|103>                          ****END OF INPUT****

CARTESIAN COORDINATES (ANGSTROEM)
---------------------------------
  C     -4.477000    5.529000   -0.929000
  C      1.474000    4.041000    0.057000
  C     -2.802000    4.093000    0.049000
  C     -2.698000    5.016000    1.101000
  C     -3.481000    6.153000    1.106000
  C     -5.204000    7.607000    0.153000
  C      0.132000    4.307000    0.061000
  C     -0.569000    3.056000    0.047000
  C      1.649000    2.618000    0.023000
  C     -3.719000    4.375000   -0.975000
  N     -4.352000    6.399000    0.099000
  N      0.388000    2.067000    0.025000
  N     -2.010000    0.395000   -0.075000
  N     -0.388000   -2.074000   -0.027000
  N      2.010000   -0.401000    0.065000
  C     -1.960000    2.861000    0.024000
  C     -2.623000    1.615000   -0.018000
  C     -5.573000   -4.329000    1.066000
  C     -4.073000    1.471000    0.056000
  C     -4.106000   -2.756000   -0.026000
  C     -4.995000   -2.757000   -1.111000
  C     -6.132000   -3.542000   -1.076000
  C     -7.651000   -5.113000    0.040000
  C     -4.324000    0.141000    0.037000
  C     -3.025000   -0.520000   -0.048000
  C     -4.422000   -3.566000    1.075000
  N     -6.407000   -4.313000    0.001000
  C     -2.867000   -1.922000   -0.040000
  C     -1.650000   -2.624000   -0.027000
  C      3.568000   -6.142000   -1.040000
  C     -1.476000   -4.049000   -0.034000
  C      2.803000   -4.099000   -0.008000
  C      3.657000   -4.384000    1.069000
  C      4.427000   -5.530000    1.059000
  C      5.245000   -7.588000    0.014000
  C     -0.134000   -4.315000   -0.022000
  C      0.568000   -3.064000   -0.027000
  C      2.775000   -5.012000   -1.074000
  N      4.376000   -6.391000    0.017000
  C      1.959000   -2.869000   -0.009000
  C      2.621000   -1.622000    0.009000
  C      5.543000    4.339000   -1.130000
  C      4.070000   -1.479000   -0.094000
  C      4.104000    2.751000   -0.021000
  C      5.027000    2.729000    1.036000
  C      6.166000    3.509000    0.978000
  C      7.619000    5.153000   -0.115000
  C      4.321000   -0.148000   -0.092000
  C      3.025000    0.514000    0.015000
  C      4.387000    3.582000   -1.115000
  C      2.866000    1.916000    0.013000
  N      6.413000    4.296000   -0.095000
  H     -5.187000    5.793000   -1.703000
  H      2.274000    4.766000    0.081000
  H     -2.015000    4.850000    1.925000
  H     -3.443000    6.888000    1.899000
  H     -6.101000    7.385000    0.735000
  H     -4.641000    8.413000    0.624000
  H     -5.478000    7.889000   -0.864000
  H     -0.332000    5.282000    0.069000
  H     -3.835000    3.708000   -1.822000
  H      0.182000    1.072000    0.005000
  H     -0.183000   -1.080000   -0.021000
  H     -5.864000   -4.962000    1.895000
  H     -4.794000    2.272000    0.139000
  H     -4.800000   -2.160000   -1.994000
  H     -6.841000   -3.582000   -1.893000
  H     -8.428000   -4.536000    0.546000
  H     -7.956000   -5.337000   -0.981000
  H     -7.456000   -6.037000    0.584000
  H     -5.287000   -0.344000    0.100000
  H     -3.780000   -3.601000    1.947000
  H      3.587000   -6.868000   -1.843000
  H     -2.276000   -4.774000   -0.050000
  H      3.714000   -3.724000    1.926000
  H      5.092000   -5.795000    1.871000
  H      6.205000   -7.329000   -0.439000
  H      5.393000   -7.917000    1.042000
  H      4.759000   -8.373000   -0.564000
  H      0.329000   -5.290000   -0.008000
  H      2.146000   -4.842000   -1.940000
  H      5.808000    4.986000   -1.956000
  H      4.788000   -2.281000   -0.185000
  H      4.860000    2.114000    1.912000
  H      6.901000    3.531000    1.772000
  H      7.383000    6.109000    0.356000
  H      8.414000    4.652000    0.435000
  H      7.921000    5.310000   -1.150000
  H      5.283000    0.336000   -0.179000
  H      3.720000    3.632000   -1.967000

 Total Charge           Charge          ....    0
 Multiplicity           Mult            ....    1
 Number of Electrons    NEL             ....  358
 Basis Dimension        Dim             ....  918

ORBITAL ENERGIES
----------------

  NO   OCC          E(Eh)            E(eV)
   0   2.0000     -15.640003      -425.5861
   1   2.0000     -15.639666      -425.5769
   2   2.0000     -15.628409      -425.2706
   3   2.0000     -15.623679      -425.1419
   4   2.0000     -15.518948      -422.2920
   5   2.0000     -15.515554      -422.1997
   6   2.0000     -15.444257      -420.2596
   7   2.0000     -15.443829      -420.2479
   8   2.0000     -11.303004      -307.5704
   9   2.0000     -11.302972      -307.5695
  10   2.0000     -11.296418      -307.3911
  11   2.0000     -11.295802      -307.3744
  12   2.0000     -11.295372      -307.3627
  13   2.0000     -11.294464      -307.3380
  14   2.0000     -11.293673      -307.3165
  15   2.0000     -11.293448      -307.3103
  16   2.0000     -11.285567      -307.0959
  17   2.0000     -11.285186      -307.0855
  18   2.0000     -11.282706      -307.0180
  19   2.0000     -11.281946      -306.9974
  20   2.0000     -11.244026      -305.9655
  21   2.0000     -11.243336      -305.9467
  22   2.0000     -11.235006      -305.7201
  23   2.0000     -11.234726      -305.7124
  24   2.0000     -11.234361      -305.7025
  25   2.0000     -11.233854      -305.6887
  26   2.0000     -11.232760      -305.6590
  27   2.0000     -11.229869      -305.5803
  28   2.0000     -11.226354      -305.4846
  29   2.0000     -11.226237      -305.4814
  30   2.0000     -11.223289      -305.4012
  31   2.0000     -11.222750      -305.3866
  32   2.0000     -11.200749      -304.7879
  33   2.0000     -11.200265      -304.7747
  34   2.0000     -11.194058      -304.6058
  35   2.0000     -11.193700      -304.5961
  36   2.0000     -11.172488      -304.0189
  37   2.0000     -11.172239      -304.0121
  38   2.0000     -11.171088      -303.9808
  39   2.0000     -11.170841      -303.9740
  40   2.0000     -11.170491      -303.9645
  41   2.0000     -11.170070      -303.9531
  42   2.0000     -11.166572      -303.8579
  43   2.0000     -11.166242      -303.8489
  44   2.0000     -11.160472      -303.6919
  45   2.0000     -11.159063      -303.6536
  46   2.0000     -11.152630      -303.4785
  47   2.0000     -11.151187      -303.4392
  48   2.0000     -11.142873      -303.2130
  49   2.0000     -11.142203      -303.1948
  50   2.0000     -11.140837      -303.1576
  51   2.0000     -11.139811      -303.1297
  52   2.0000      -1.326325       -36.0911
  53   2.0000      -1.326112       -36.0853
  54   2.0000      -1.316305       -35.8185
  55   2.0000      -1.312732       -35.7213
  56   2.0000      -1.217861       -33.1397
  57   2.0000      -1.212514       -32.9942
  58   2.0000      -1.161386       -31.6029
  59   2.0000      -1.156945       -31.4821
  60   2.0000      -1.115688       -30.3594
  61   2.0000      -1.113165       -30.2908
  62   2.0000      -1.105412       -30.0798
  63   2.0000      -1.102391       -29.9976
  64   2.0000      -1.050123       -28.5753
  65   2.0000      -1.050098       -28.5746
  66   2.0000      -1.040877       -28.3237
  67   2.0000      -1.037998       -28.2454
  68   2.0000      -1.026602       -27.9353
  69   2.0000      -1.009775       -27.4774
  70   2.0000      -1.009221       -27.4623
  71   2.0000      -0.998077       -27.1591
  72   2.0000      -0.982089       -26.7240
  73   2.0000      -0.975787       -26.5525
  74   2.0000      -0.968792       -26.3622
  75   2.0000      -0.960277       -26.1305
  76   2.0000      -0.952481       -25.9183
  77   2.0000      -0.942119       -25.6363
  78   2.0000      -0.940645       -25.5963
  79   2.0000      -0.923375       -25.1263
  80   2.0000      -0.892807       -24.2945
  81   2.0000      -0.877846       -23.8874
  82   2.0000      -0.875871       -23.8337
  83   2.0000      -0.868417       -23.6308
  84   2.0000      -0.865298       -23.5459
  85   2.0000      -0.857043       -23.3213
  86   2.0000      -0.847112       -23.0511
  87   2.0000      -0.844969       -22.9928
  88   2.0000      -0.821745       -22.3608
  89   2.0000      -0.798489       -21.7280
  90   2.0000      -0.797769       -21.7084
  91   2.0000      -0.739224       -20.1153
  92   2.0000      -0.728974       -19.8364
  93   2.0000      -0.728845       -19.8329
  94   2.0000      -0.720625       -19.6092
  95   2.0000      -0.720106       -19.5951
  96   2.0000      -0.712055       -19.3760
  97   2.0000      -0.709654       -19.3107
  98   2.0000      -0.698397       -19.0043
  99   2.0000      -0.692395       -18.8410
 100   2.0000      -0.683769       -18.6063
 101   2.0000      -0.680186       -18.5088
 102   2.0000      -0.679340       -18.4858
 103   2.0000      -0.673390       -18.3239
 104   2.0000      -0.667772       -18.1710
 105   2.0000      -0.667503       -18.1637
 106   2.0000      -0.663260       -18.0482
 107   2.0000      -0.658367       -17.9151
 108   2.0000      -0.658187       -17.9102
 109   2.0000      -0.653861       -17.7925
 110   2.0000      -0.652992       -17.7688
 111   2.0000      -0.650643       -17.7049
 112   2.0000      -0.647674       -17.6241
 113   2.0000      -0.645517       -17.5654
 114   2.0000      -0.634670       -17.2702
 115   2.0000      -0.622937       -16.9510
 116   2.0000      -0.616892       -16.7865
 117   2.0000      -0.616737       -16.7823
 118   2.0000      -0.610297       -16.6070
 119   2.0000      -0.608506       -16.5583
 120   2.0000      -0.608077       -16.5466
 121   2.0000      -0.605399       -16.4737
 122   2.0000      -0.603316       -16.4171
 123   2.0000      -0.593889       -16.1605
 124   2.0000      -0.585804       -15.9405
 125   2.0000      -0.585241       -15.9252
 126   2.0000      -0.578111       -15.7312
 127   2.0000      -0.575086       -15.6489
 128   2.0000      -0.570923       -15.5356
 129   2.0000      -0.561786       -15.2870
 130   2.0000      -0.553764       -15.0687
 131   2.0000      -0.542504       -14.7623
 132   2.0000      -0.540932       -14.7195
 133   2.0000      -0.535078       -14.5602
 134   2.0000      -0.533761       -14.5244
 135   2.0000      -0.531136       -14.4530
 136   2.0000      -0.523966       -14.2578
 137   2.0000      -0.523516       -14.2456
 138   2.0000      -0.517093       -14.0708
 139   2.0000      -0.516459       -14.0536
 140   2.0000      -0.509149       -13.8546
 141   2.0000      -0.506076       -13.7710
 142   2.0000      -0.504094       -13.7171
 143   2.0000      -0.503602       -13.7037
 144   2.0000      -0.499012       -13.5788
 145   2.0000      -0.497814       -13.5462
 146   2.0000      -0.496553       -13.5119
 147   2.0000      -0.493362       -13.4251
 148   2.0000      -0.491028       -13.3616
 149   2.0000      -0.468819       -12.7572
 150   2.0000      -0.460144       -12.5211
 151   2.0000      -0.450980       -12.2718
 152   2.0000      -0.448174       -12.1954
 153   2.0000      -0.445913       -12.1339
 154   2.0000      -0.444989       -12.1088
 155   2.0000      -0.439566       -11.9612
 156   2.0000      -0.434946       -11.8355
 157   2.0000      -0.432068       -11.7572
 158   2.0000      -0.390536       -10.6270
 159   2.0000      -0.381037       -10.3686
 160   2.0000      -0.380040       -10.3414
 161   2.0000      -0.373082       -10.1521
 162   2.0000      -0.360524        -9.8104
 163   2.0000      -0.360312        -9.8046
 164   2.0000      -0.352570        -9.5939
 165   2.0000      -0.350025        -9.5247
 166   2.0000      -0.337301        -9.1784
 167   2.0000      -0.332051        -9.0356
 168   2.0000      -0.329303        -8.9608
 169   2.0000      -0.300238        -8.1699
 170   2.0000      -0.295390        -8.0380
 171   2.0000      -0.289091        -7.8666
 172   2.0000      -0.287353        -7.8193
 173   2.0000      -0.254640        -6.9291
 174   2.0000      -0.248000        -6.7484
 175   2.0000      -0.187955        -5.1145
 176   2.0000      -0.177781        -4.8377
 177   2.0000      -0.066199        -1.8014
 178   2.0000      -0.054624        -1.4864
 179   0.0000       0.031004         0.8437
 180   0.0000       0.070605         1.9213
 181   0.0000       0.093090         2.5331
 182   0.0000       0.096924         2.6374
 183   0.0000       0.133552         3.6341

MULLIKEN ATOMIC CHARGES
-----------------------
   0 C :    0.206183
   1 N :   -0.443587
   2 C :   -0.065126
   3 N :   -0.337820
   4 C :   -0.074676
   5 N :   -0.562130
   6 C :   -0.065692
   7 N :   -0.338419
   8 C :    0.204265
   9 N :   -0.563029
  10 C :    0.114864
  11 N :   -0.437163
  12 C :   -0.069435
  13 N :   -0.438693
  14 C :    0.234692
  15 N :   -0.440811
  16 C :    0.235023
  17 C :   -0.066306
  18 C :   -0.193866
  19 C :    0.225139
  20 C :    0.209094
  21 C :   -0.076165
  22 C :   -0.085786
  23 C :   -0.048273
  24 C :    0.205724
  25 C :    0.113673
  26 C :   -0.073369
  27 C :    0.221969
  28 C :   -0.052795
  29 C :   -0.184791
  30 C :    0.236429
  31 C :    0.213279
  32 C :   -0.064457
  33 C :   -0.079173
  34 C :   -0.049681
  35 C :    0.206254
  36 C :    0.113523
  37 C :   -0.066305
  38 C :    0.236925
  39 C :   -0.061469
  40 C :   -0.188200
  41 C :    0.220516
  42 C :    0.202559
  43 C :   -0.073787
  44 C :   -0.089182
  45 C :   -0.053593
  46 C :    0.203741
  47 C :    0.115649
  48 C :   -0.074330
  49 C :    0.226908
  50 C :   -0.052293
  51 C :   -0.190701
  52 H :    0.052560
  53 H :   -0.014352
  54 H :    0.046253
  55 H :    0.051291
  56 H :    0.058341
  57 H :    0.055690
  58 H :    0.054953
  59 H :   -0.011707
  60 H :    0.044244
  61 H :    0.172547
  62 H :    0.173198
  63 H :    0.057218
  64 H :   -0.019145
  65 H :    0.046689
  66 H :    0.057887
  67 H :    0.063399
  68 H :    0.058346
  69 H :    0.059046
  70 H :   -0.024923
  71 H :    0.048338
  72 H :    0.057836
  73 H :   -0.013532
  74 H :    0.048041
  75 H :    0.056861
  76 H :    0.063250
  77 H :    0.059079
  78 H :    0.058245
  79 H :   -0.013882
  80 H :    0.048316
  81 H :    0.053551
  82 H :   -0.024089
  83 H :    0.042641
  84 H :    0.052978
  85 H :    0.058966
  86 H :    0.056090
  87 H :    0.056658
  88 H :   -0.021387
  89 H :    0.045203
Sum of atomic charges:   -0.0000000

LOEWDIN ATOMIC CHARGES
----------------------
   0 C :   -0.006326
   1 N :    0.134373
   2 C :   -0.100744
   3 N :    0.178479
   4 C :    0.029275
   5 N :   -0.137019
   6 C :   -0.024779
   7 N :    0.177117
   8 C :   -0.007713
   9 N :   -0.138997
  10 C :    0.027900
  11 N :    0.145388
  12 C :   -0.102020
  13 N :    0.144278
  14 C :   -0.043752
  15 N :    0.138319
  16 C :   -0.047209
  17 C :   -0.026550
  18 C :   -0.107346
  19 C :   -0.087270
  20 C :    0.001740
  21 C :   -0.105150
  22 C :    0.044154
  23 C :   -0.019851
  24 C :   -0.001108
  25 C :    0.030595
  26 C :   -0.104344
  27 C :   -0.096755
  28 C :   -0.021172
  29 C :   -0.106059
  30 C :   -0.044586
  31 C :    0.004061
  32 C :   -0.098034
  33 C :    0.044787
  34 C :   -0.018979
  35 C :   -0.001964
  36 C :    0.030247
  37 C :   -0.100026
  38 C :   -0.041879
  39 C :   -0.024722
  40 C :   -0.108676
  41 C :   -0.094593
  42 C :   -0.006114
  43 C :   -0.104667
  44 C :    0.033657
  45 C :   -0.023158
  46 C :   -0.005098
  47 C :    0.029225
  48 C :   -0.104444
  49 C :   -0.087623
  50 C :   -0.022698
  51 C :   -0.109153
  52 H :    0.028641
  53 H :    0.004180
  54 H :    0.043315
  55 H :    0.028580
  56 H :    0.026094
  57 H :    0.029978
  58 H :    0.030672
  59 H :    0.004796
  60 H :    0.042991
  61 H :    0.060459
  62 H :    0.060659
  63 H :    0.031368
  64 H :   -0.000254
  65 H :    0.045307
  66 H :    0.030655
  67 H :    0.028804
  68 H :    0.032134
  69 H :    0.031477
  70 H :   -0.002385
  71 H :    0.045480
  72 H :    0.031420
  73 H :    0.004459
  74 H :    0.045529
  75 H :    0.030686
  76 H :    0.028752
  77 H :    0.031990
  78 H :    0.031634
  79 H :    0.004344
  80 H :    0.045025
  81 H :    0.028931
  82 H :   -0.002170
  83 H :    0.043267
  84 H :    0.029068
  85 H :    0.026508
  86 H :    0.030361
  87 H :    0.031135
  88 H :   -0.000901
  89 H :    0.043992

  Mayer bond orders larger than 0.100000
B(  0-C ,  1-N ) :   1.1127 B(  0-C , 17-C ) :   1.6451 B(  0-C , 52-H ) :   0.9692
B(  1-N ,  8-C ) :   1.1085 B(  1-N , 10-C ) :   0.9646 B(  2-C , 12-C ) :   1.5338
B(  2-C , 16-C ) :   1.3257 B(  2-C , 53-H ) :   0.9777 B(  3-N , 14-C ) :   1.2044
B(  3-N , 16-C ) :   1.1949 B(  3-N , 61-H ) :   0.8986 B(  4-C ,  6-C ) :   1.2556
B(  4-C , 17-C ) :   1.2583 B(  4-C , 18-C ) :   1.2899 B(  5-N , 19-C ) :   1.4233
B(  5-N , 27-C ) :   1.4025 B(  6-C ,  8-C ) :   1.6477 B(  6-C , 54-H ) :   0.9707
B(  7-N , 30-C ) :   1.1923 B(  7-N , 38-C ) :   1.2009 B(  7-N , 62-H ) :   0.8981
B(  8-C , 55-H ) :   0.9702 B(  9-N , 41-C ) :   1.4056 B(  9-N , 49-C ) :   1.4184
B( 10-C , 56-H ) :   0.9763 B( 10-C , 57-H ) :   0.9825 B( 10-C , 58-H ) :   0.9831
B( 11-N , 20-C ) :   1.1265 B( 11-N , 24-C ) :   1.1232 B( 11-N , 25-C ) :   0.9576
B( 12-C , 14-C ) :   1.3277 B( 12-C , 59-H ) :   0.9770 B( 13-N , 31-C ) :   1.1283
B( 13-N , 35-C ) :   1.1207 B( 13-N , 36-C ) :   0.9579 B( 14-C , 18-C ) :   1.1894
B( 15-N , 42-C ) :   1.1146 B( 15-N , 46-C ) :   1.1150 B( 15-N , 47-C ) :   0.9624
B( 16-C , 51-C ) :   1.1983 B( 17-C , 60-H ) :   0.9705 B( 18-C , 19-C ) :   1.2037
B( 19-C , 21-C ) :   1.2167 B( 20-C , 28-C ) :   1.6219 B( 20-C , 63-H ) :   0.9702
B( 21-C , 26-C ) :   1.6384 B( 21-C , 64-H ) :   0.9733 B( 22-C , 23-C ) :   1.2851
B( 22-C , 28-C ) :   1.2753 B( 22-C , 29-C ) :   1.2261 B( 23-C , 24-C ) :   1.6168
B( 23-C , 65-H ) :   0.9709 B( 24-C , 66-H ) :   0.9691 B( 25-C , 67-H ) :   0.9762
B( 25-C , 68-H ) :   0.9829 B( 25-C , 69-H ) :   0.9821 B( 26-C , 27-C ) :   1.2130
B( 26-C , 70-H ) :   0.9730 B( 27-C , 29-C ) :   1.2268 B( 28-C , 71-H ) :   0.9714
B( 29-C , 30-C ) :   1.2171 B( 30-C , 32-C ) :   1.3069 B( 31-C , 39-C ) :   1.6263
B( 31-C , 72-H ) :   0.9695 B( 32-C , 37-C ) :   1.5515 B( 32-C , 73-H ) :   0.9778
B( 33-C , 34-C ) :   1.2789 B( 33-C , 39-C ) :   1.2713 B( 33-C , 40-C ) :   1.2411
B( 34-C , 35-C ) :   1.6231 B( 34-C , 74-H ) :   0.9703 B( 35-C , 75-H ) :   0.9695
B( 36-C , 76-H ) :   0.9763 B( 36-C , 77-H ) :   0.9820 B( 36-C , 78-H ) :   0.9830
B( 37-C , 38-C ) :   1.3086 B( 37-C , 79-H ) :   0.9777 B( 38-C , 40-C ) :   1.2123
B( 39-C , 80-H ) :   0.9714 B( 40-C , 41-C ) :   1.2206 B( 41-C , 43-C ) :   1.2131
B( 42-C , 50-C ) :   1.6341 B( 42-C , 81-H ) :   0.9696 B( 43-C , 48-C ) :   1.6382
B( 43-C , 82-H ) :   0.9735 B( 44-C , 45-C ) :   1.2694 B( 44-C , 50-C ) :   1.2670
B( 44-C , 51-C ) :   1.2575 B( 45-C , 46-C ) :   1.6333 B( 45-C , 83-H ) :   0.9712
B( 46-C , 84-H ) :   0.9702 B( 47-C , 85-H ) :   0.9761 B( 47-C , 86-H ) :   0.9828
B( 47-C , 87-H ) :   0.9826 B( 48-C , 49-C ) :   1.2133 B( 48-C , 88-H ) :   0.9739
B( 49-C , 51-C ) :   1.2183 B( 50-C , 89-H ) :   0.9713

MP2 TOTAL ENERGY:    -2130.915292621 Eh
FINAL SINGLE POINT ENERGY     -2130.915292620847

DIPOLE MOMENT
-------------
                                X             Y             Z
Electronic contribution:     -0.03777      -1.18185      -0.20533
Nuclear contribution   :      0.00453       0.18827       0.22578
                        -----------------------------------------
Total Dipole Moment    :     -0.03323      -0.99358       0.02045
                        -----------------------------------------
Magnitude (a.u.)       :      0.99434
Magnitude (Debye)      :      2.52742

Rotational constants in cm-1:     0.001498     0.001475     0.000762
Rotational constants in MHz :    44.916540    44.205748    22.846715

                             ****ORCA TERMINATED NORMALLY****
TOTAL RUN TIME: 0 days 1 hours 17 minutes 13 seconds 139 msec
