                         Program Version 5.0.4 -  RELEASE  -
|  1> ! PAL2
|  2> ! mp2 cc-pvdz TightSCF  NoKeepInts
|  3>
|  4> %scf
|  5>   MaxCore 2000
|  6> end
|  7> %mp2
|  8>   MaxCore 2000
|  9> end
| 10> * xyz 0 1
| 11>    C       -3.22200         6.35200         0.78700
| 12>    C        1.47400         4.04100         0.05700
| 13>    C       -2.80200         4.09300         0.04900
| 14>    C       -4.01700         4.15100        -0.65200
| 15>    C       -4.78500         5.29700        -0.61400
| 16>    C       -5.21500         7.60100         0.09000
| 17>    C        0.13200         4.30700         0.06100
| 18>    C       -0.56900         3.05600         0.04700
| 19>    C        1.64900         2.61800         0.02300
| 20>    C       -2.41500         5.23100         0.77400
| 21>    N       -4.38700         6.37500         0.10100
| 22>    N        0.38800         2.06700         0.02500
| 23>    N       -2.01000         0.39500        -0.07500
| 24>    N       -0.38800        -2.07400        -0.02700
| 25>    N        2.01000        -0.40100         0.06500
| 26>    C       -1.96000         2.86100         0.02400
| 27>    C       -2.62300         1.61500        -0.01800
| 28>    C       -5.57300        -4.32900         1.06600
| 29>    C       -4.07300         1.47100         0.05600
| 30>    C       -4.10600        -2.75600        -0.02600
| 31>    C       -4.99500        -2.75700        -1.11100
| 32>    C       -6.13200        -3.54200        -1.07600
| 33>    C       -7.65100        -5.11300         0.04000
| 34>    C       -4.32400         0.14100         0.03700
| 35>    C       -3.02500        -0.52000        -0.04800
| 36>    C       -4.42200        -3.56600         1.07500
| 37>    N       -6.40700        -4.31300         0.00100
| 38>    C       -2.86700        -1.92200        -0.04000
| 39>    C       -1.65000        -2.62400        -0.02700
| 40>    C        3.56800        -6.14200        -1.04000
| 41>    C       -1.47600        -4.04900        -0.03400
| 42>    C        2.80300        -4.09900        -0.00800
| 43>    C        3.65700        -4.38400         1.06900
| 44>    C        4.42700        -5.53000         1.05900
| 45>    C        5.24500        -7.58800         0.01400
| 46>    C       -0.13400        -4.31500        -0.02200
| 47>    C        0.56800        -3.06400        -0.02700
| 48>    C        2.77500        -5.01200        -1.07400
| 49>    N        4.37600        -6.39100         0.01700
| 50>    C        1.95900        -2.86900        -0.00900
| 51>    C        2.62100        -1.62200         0.00900
| 52>    C        5.54300         4.33900        -1.13000
| 53>    C        4.07000        -1.47900        -0.09400
| 54>    C        4.10400         2.75100        -0.02100
| 55>    C        5.02700         2.72900         1.03600
| 56>    C        6.16600         3.50900         0.97800
| 57>    C        7.61900         5.15300        -0.11500
| 58>    C        4.32100        -0.14800        -0.09200
| 59>    C        3.02500         0.51400         0.01500
| 60>    C        4.38700         3.58200        -1.11500
| 61>    C        2.86600         1.91600         0.01300
| 62>    N        6.41300         4.29600        -0.09500
| 63>    H       -2.96900         7.24700         1.34200
| 64>    H        2.27400         4.76600         0.08100
| 65>    H       -4.36400         3.30800        -1.23800
| 66>    H       -5.72400         5.39100        -1.14500
| 67>    H       -4.94400         8.20600        -0.77700
| 68>    H       -6.26500         7.31500         0.03500
| 69>    H       -5.02800         8.15800         1.00800
| 70>    H       -0.33200         5.28200         0.06900
| 71>    H       -1.49500         5.24300         1.34800
| 72>    H        0.18200         1.07200         0.00500
| 73>    H       -0.18300        -1.08000        -0.02100
| 74>    H       -5.86400        -4.96200         1.89500
| 75>    H       -4.79400         2.27200         0.13900
| 76>    H       -4.80000        -2.16000        -1.99400
| 77>    H       -6.84100        -3.58200        -1.89300
| 78>    H       -8.42800        -4.53600         0.54600
| 79>    H       -7.95600        -5.33700        -0.98100
| 80>    H       -7.45600        -6.03700         0.58400
| 81>    H       -5.28700        -0.34400         0.10000
| 82>    H       -3.78000        -3.60100         1.94700
| 83>    H        3.58700        -6.86800        -1.84300
| 84>    H       -2.27600        -4.77400        -0.05000
| 85>    H        3.71400        -3.72400         1.92600
| 86>    H        5.09200        -5.79500         1.87100
| 87>    H        6.20500        -7.32900        -0.43900
| 88>    H        5.39300        -7.91700         1.04200
| 89>    H        4.75900        -8.37300        -0.56400
| 90>    H        0.32900        -5.29000        -0.00800
| 91>    H        2.14600        -4.84200        -1.94000
| 92>    H        5.80800         4.98600        -1.95600
| 93>    H        4.78800        -2.28100        -0.18500
| 94>    H        4.86000         2.11400         1.91200
| 95>    H        6.90100         3.53100         1.77200
| 96>    H        7.38300         6.10900         0.35600
| 97>    H        8.41400         4.65200         0.43500
| 98>    H        7.92100         5.31000        -1.15000
| 99>    H        5.28300         0.33600        -0.17900
|100>    H        3.72000         3.63200        -1.96700
|101> *
|102>
|103>                          ****END OF INPUT****

CARTESIAN COORDINATES (ANGSTROEM)
---------------------------------
  C     -3.222000    6.352000    0.787000
  C      1.474000    4.041000    0.057000
  C     -2.802000    4.093000    0.049000
  C     -4.017000    4.151000   -0.652000
  C     -4.785000    5.297000   -0.614000
  C     -5.215000    7.601000    0.090000
  C      0.132000    4.307000    0.061000
  C     -0.569000    3.056000    0.047000
  C      1.649000    2.618000    0.023000
  C     -2.415000    5.231000    0.774000
  N     -4.387000    6.375000    0.101000
  N      0.388000    2.067000    0.025000
  N     -2.010000    0.395000   -0.075000
  N     -0.388000   -2.074000   -0.027000
  N      2.010000   -0.401000    0.065000
  C     -1.960000    2.861000    0.024000
  C     -2.623000    1.615000   -0.018000
  C     -5.573000   -4.329000    1.066000
  C     -4.073000    1.471000    0.056000
  C     -4.106000   -2.756000   -0.026000
  C     -4.995000   -2.757000   -1.111000
  C     -6.132000   -3.542000   -1.076000
  C     -7.651000   -5.113000    0.040000
  C     -4.324000    0.141000    0.037000
  C     -3.025000   -0.520000   -0.048000
  C     -4.422000   -3.566000    1.075000
  N     -6.407000   -4.313000    0.001000
  C     -2.867000   -1.922000   -0.040000
  C     -1.650000   -2.624000   -0.027000
  C      3.568000   -6.142000   -1.040000
  C     -1.476000   -4.049000   -0.034000
  C      2.803000   -4.099000   -0.008000
  C      3.657000   -4.384000    1.069000
  C      4.427000   -5.530000    1.059000
  C      5.245000   -7.588000    0.014000
  C     -0.134000   -4.315000   -0.022000
  C      0.568000   -3.064000   -0.027000
  C      2.775000   -5.012000   -1.074000
  N      4.376000   -6.391000    0.017000
  C      1.959000   -2.869000   -0.009000
  C      2.621000   -1.622000    0.009000
  C      5.543000    4.339000   -1.130000
  C      4.070000   -1.479000   -0.094000
  C      4.104000    2.751000   -0.021000
  C      5.027000    2.729000    1.036000
  C      6.166000    3.509000    0.978000
  C      7.619000    5.153000   -0.115000
  C      4.321000   -0.148000   -0.092000
  C      3.025000    0.514000    0.015000
  C      4.387000    3.582000   -1.115000
  C      2.866000    1.916000    0.013000
  N      6.413000    4.296000   -0.095000
  H     -2.969000    7.247000    1.342000
  H      2.274000    4.766000    0.081000
  H     -4.364000    3.308000   -1.238000
  H     -5.724000    5.391000   -1.145000
  H     -4.944000    8.206000   -0.777000
  H     -6.265000    7.315000    0.035000
  H     -5.028000    8.158000    1.008000
  H     -0.332000    5.282000    0.069000
  H     -1.495000    5.243000    1.348000
  H      0.182000    1.072000    0.005000
  H     -0.183000   -1.080000   -0.021000
  H     -5.864000   -4.962000    1.895000
  H     -4.794000    2.272000    0.139000
  H     -4.800000   -2.160000   -1.994000
  H     -6.841000   -3.582000   -1.893000
  H     -8.428000   -4.536000    0.546000
  H     -7.956000   -5.337000   -0.981000
  H     -7.456000   -6.037000    0.584000
  H     -5.287000   -0.344000    0.100000
  H     -3.780000   -3.601000    1.947000
  H      3.587000   -6.868000   -1.843000
  H     -2.276000   -4.774000   -0.050000
  H      3.714000   -3.724000    1.926000
  H      5.092000   -5.795000    1.871000
  H      6.205000   -7.329000   -0.439000
  H      5.393000   -7.917000    1.042000
  H      4.759000   -8.373000   -0.564000
  H      0.329000   -5.290000   -0.008000
  H      2.146000   -4.842000   -1.940000
  H      5.808000    4.986000   -1.956000
  H      4.788000   -2.281000   -0.185000
  H      4.860000    2.114000    1.912000
  H      6.901000    3.531000    1.772000
  H      7.383000    6.109000    0.356000
  H      8.414000    4.652000    0.435000
  H      7.921000    5.310000   -1.150000
  H      5.283000    0.336000   -0.179000
  H      3.720000    3.632000   -1.967000

 Total Charge           Charge          ....    0
 Multiplicity           Mult            ....    1
 Number of Electrons    NEL             ....  358
 Basis Dimension        Dim             ....  918

ORBITAL ENERGIES
----------------

  NO   OCC          E(Eh)            E(eV)
   0   2.0000     -15.669622      -426.3921
   1   2.0000     -15.637695      -425.5233
   2   2.0000     -15.628709      -425.2788
   3   2.0000     -15.592610      -424.2965
   4   2.0000     -15.524735      -422.4495
   5   2.0000     -15.515837      -422.2074
   6   2.0000     -15.451094      -420.4456
   7   2.0000     -15.443183      -420.2304
   8   2.0000     -11.321652      -308.0778
   9   2.0000     -11.321450      -308.0723
  10   2.0000     -11.319276      -308.0131
  11   2.0000     -11.301647      -307.5334
  12   2.0000     -11.296315      -307.3884
  13   2.0000     -11.295548      -307.3675
  14   2.0000     -11.290503      -307.2302
  15   2.0000     -11.287942      -307.1605
  16   2.0000     -11.284293      -307.0612
  17   2.0000     -11.274396      -306.7919
  18   2.0000     -11.272513      -306.7407
  19   2.0000     -11.258692      -306.3646
  20   2.0000     -11.256257      -306.2983
  21   2.0000     -11.255945      -306.2898
  22   2.0000     -11.255321      -306.2729
  23   2.0000     -11.241328      -305.8921
  24   2.0000     -11.233962      -305.6916
  25   2.0000     -11.233483      -305.6786
  26   2.0000     -11.233397      -305.6763
  27   2.0000     -11.227322      -305.5110
  28   2.0000     -11.227032      -305.5031
  29   2.0000     -11.209842      -305.0353
  30   2.0000     -11.208461      -304.9977
  31   2.0000     -11.202755      -304.8425
  32   2.0000     -11.196908      -304.6834
  33   2.0000     -11.196567      -304.6741
  34   2.0000     -11.189641      -304.4856
  35   2.0000     -11.189281      -304.4758
  36   2.0000     -11.187036      -304.4147
  37   2.0000     -11.183256      -304.3119
  38   2.0000     -11.182338      -304.2869
  39   2.0000     -11.174524      -304.0743
  40   2.0000     -11.171927      -304.0036
  41   2.0000     -11.168414      -303.9080
  42   2.0000     -11.167835      -303.8922
  43   2.0000     -11.162705      -303.7526
  44   2.0000     -11.161324      -303.7151
  45   2.0000     -11.159453      -303.6641
  46   2.0000     -11.156439      -303.5821
  47   2.0000     -11.151733      -303.4541
  48   2.0000     -11.147941      -303.3509
  49   2.0000     -11.141736      -303.1821
  50   2.0000     -11.134840      -302.9944
  51   2.0000     -11.127491      -302.7944
  52   2.0000      -1.351729       -36.7824
  53   2.0000      -1.324446       -36.0400
  54   2.0000      -1.316868       -35.8338
  55   2.0000      -1.286832       -35.0165
  56   2.0000      -1.225228       -33.3402
  57   2.0000      -1.210351       -32.9353
  58   2.0000      -1.169523       -31.8243
  59   2.0000      -1.153829       -31.3973
  60   2.0000      -1.136350       -30.9217
  61   2.0000      -1.112916       -30.2840
  62   2.0000      -1.106597       -30.1120
  63   2.0000      -1.082408       -29.4538
  64   2.0000      -1.074050       -29.2264
  65   2.0000      -1.048501       -28.5312
  66   2.0000      -1.041630       -28.3442
  67   2.0000      -1.036447       -28.2032
  68   2.0000      -1.015138       -27.6233
  69   2.0000      -1.014470       -27.6051
  70   2.0000      -1.009457       -27.4687
  71   2.0000      -0.992866       -27.0173
  72   2.0000      -0.987335       -26.8668
  73   2.0000      -0.978833       -26.6354
  74   2.0000      -0.972122       -26.4528
  75   2.0000      -0.959695       -26.1146
  76   2.0000      -0.951889       -25.9022
  77   2.0000      -0.946926       -25.7672
  78   2.0000      -0.935668       -25.4608
  79   2.0000      -0.920103       -25.0373
  80   2.0000      -0.903569       -24.5874
  81   2.0000      -0.892543       -24.2873
  82   2.0000      -0.875718       -23.8295
  83   2.0000      -0.871308       -23.7095
  84   2.0000      -0.866852       -23.5882
  85   2.0000      -0.855529       -23.2801
  86   2.0000      -0.840768       -22.8785
  87   2.0000      -0.837413       -22.7872
  88   2.0000      -0.822917       -22.3927
  89   2.0000      -0.798371       -21.7248
  90   2.0000      -0.792794       -21.5730
  91   2.0000      -0.747957       -20.3530
  92   2.0000      -0.739153       -20.1134
  93   2.0000      -0.732830       -19.9413
  94   2.0000      -0.723982       -19.7006
  95   2.0000      -0.720229       -19.5984
  96   2.0000      -0.714689       -19.4477
  97   2.0000      -0.708125       -19.2691
  98   2.0000      -0.703980       -19.1563
  99   2.0000      -0.696363       -18.9490
 100   2.0000      -0.695648       -18.9295
 101   2.0000      -0.682836       -18.5809
 102   2.0000      -0.679697       -18.4955
 103   2.0000      -0.677585       -18.4380
 104   2.0000      -0.675294       -18.3757
 105   2.0000      -0.671130       -18.2624
 106   2.0000      -0.667016       -18.1504
 107   2.0000      -0.662215       -18.0198
 108   2.0000      -0.655831       -17.8461
 109   2.0000      -0.653574       -17.7847
 110   2.0000      -0.649108       -17.6631
 111   2.0000      -0.643482       -17.5100
 112   2.0000      -0.641857       -17.4658
 113   2.0000      -0.638716       -17.3804
 114   2.0000      -0.636726       -17.3262
 115   2.0000      -0.626719       -17.0539
 116   2.0000      -0.624663       -16.9979
 117   2.0000      -0.616202       -16.7677
 118   2.0000      -0.615145       -16.7390
 119   2.0000      -0.612891       -16.6776
 120   2.0000      -0.609004       -16.5718
 121   2.0000      -0.604968       -16.4620
 122   2.0000      -0.599784       -16.3209
 123   2.0000      -0.586784       -15.9672
 124   2.0000      -0.583826       -15.8867
 125   2.0000      -0.582307       -15.8454
 126   2.0000      -0.578803       -15.7500
 127   2.0000      -0.577822       -15.7233
 128   2.0000      -0.565061       -15.3761
 129   2.0000      -0.558515       -15.1980
 130   2.0000      -0.551813       -15.0156
 131   2.0000      -0.548086       -14.9142
 132   2.0000      -0.543193       -14.7810
 133   2.0000      -0.539446       -14.6791
 134   2.0000      -0.538619       -14.6566
 135   2.0000      -0.534202       -14.5364
 136   2.0000      -0.525653       -14.3037
 137   2.0000      -0.523886       -14.2557
 138   2.0000      -0.518113       -14.0986
 139   2.0000      -0.513055       -13.9609
 140   2.0000      -0.512254       -13.9392
 141   2.0000      -0.510190       -13.8830
 142   2.0000      -0.509893       -13.8749
 143   2.0000      -0.503159       -13.6917
 144   2.0000      -0.500691       -13.6245
 145   2.0000      -0.496658       -13.5147
 146   2.0000      -0.494203       -13.4479
 147   2.0000      -0.484708       -13.1896
 148   2.0000      -0.480852       -13.0846
 149   2.0000      -0.467480       -12.7208
 150   2.0000      -0.465185       -12.6583
 151   2.0000      -0.457068       -12.4375
 152   2.0000      -0.449384       -12.2284
 153   2.0000      -0.446428       -12.1479
 154   2.0000      -0.443245       -12.0613
 155   2.0000      -0.438992       -11.9456
 156   2.0000      -0.430378       -11.7112
 157   2.0000      -0.425496       -11.5783
 158   2.0000      -0.403447       -10.9783
 159   2.0000      -0.386361       -10.5134
 160   2.0000      -0.381001       -10.3676
 161   2.0000      -0.378533       -10.3004
 162   2.0000      -0.370879       -10.0921
 163   2.0000      -0.359217        -9.7748
 164   2.0000      -0.353565        -9.6210
 165   2.0000      -0.338866        -9.2210
 166   2.0000      -0.337580        -9.1860
 167   2.0000      -0.327870        -8.9218
 168   2.0000      -0.327194        -8.9034
 169   2.0000      -0.304030        -8.2731
 170   2.0000      -0.299587        -8.1522
 171   2.0000      -0.286285        -7.7902
 172   2.0000      -0.282976        -7.7002
 173   2.0000      -0.261027        -7.1029
 174   2.0000      -0.244445        -6.6517
 175   2.0000      -0.189800        -5.1647
 176   2.0000      -0.180097        -4.9007
 177   2.0000      -0.074316        -2.0222
 178   2.0000      -0.057923        -1.5762
 179   0.0000       0.028630         0.7791
 180   0.0000       0.066854         1.8192
 181   0.0000       0.091772         2.4972
 182   0.0000       0.107958         2.9377
 183   0.0000       0.112920         3.0727

MULLIKEN ATOMIC CHARGES
-----------------------
   0 C :    0.209802
   1 N :   -0.454388
   2 C :   -0.065371
   3 N :   -0.336440
   4 C :   -0.054741
   5 N :   -0.561011
   6 C :   -0.109846
   7 N :   -0.340090
   8 C :    0.203770
   9 N :   -0.562678
  10 C :    0.119143
  11 N :   -0.437731
  12 C :   -0.080695
  13 N :   -0.431808
  14 C :    0.225412
  15 N :   -0.441458
  16 C :    0.229903
  17 C :   -0.118794
  18 C :   -0.169736
  19 C :    0.211256
  20 C :    0.213671
  21 C :   -0.093058
  22 C :   -0.088709
  23 C :   -0.041638
  24 C :    0.197269
  25 C :    0.114104
  26 C :   -0.075327
  27 C :    0.212494
  28 C :   -0.059417
  29 C :   -0.180802
  30 C :    0.243563
  31 C :    0.226959
  32 C :   -0.061815
  33 C :   -0.065326
  34 C :   -0.049678
  35 C :    0.221702
  36 C :    0.109578
  37 C :   -0.064813
  38 C :    0.233576
  39 C :   -0.059503
  40 C :   -0.182206
  41 C :    0.223458
  42 C :    0.197767
  43 C :   -0.072911
  44 C :   -0.091039
  45 C :   -0.059881
  46 C :    0.208635
  47 C :    0.115710
  48 C :   -0.069020
  49 C :    0.235772
  50 C :   -0.047746
  51 C :   -0.193139
  52 H :    0.041466
  53 H :   -0.016318
  54 H :    0.052121
  55 H :    0.039580
  56 H :    0.049253
  57 H :    0.049065
  58 H :    0.047739
  59 H :    0.000733
  60 H :    0.050280
  61 H :    0.171123
  62 H :    0.175193
  63 H :    0.056601
  64 H :   -0.004649
  65 H :    0.046958
  66 H :    0.056746
  67 H :    0.063383
  68 H :    0.057861
  69 H :    0.057490
  70 H :   -0.027844
  71 H :    0.046467
  72 H :    0.068103
  73 H :   -0.009073
  74 H :    0.057462
  75 H :    0.067317
  76 H :    0.072128
  77 H :    0.065821
  78 H :    0.064978
  79 H :   -0.015432
  80 H :    0.058019
  81 H :    0.053633
  82 H :   -0.025039
  83 H :    0.041171
  84 H :    0.053079
  85 H :    0.059784
  86 H :    0.055148
  87 H :    0.056689
  88 H :   -0.015987
  89 H :    0.046220
Sum of atomic charges:   -0.0000000

LOEWDIN ATOMIC CHARGES
----------------------
   0 C :   -0.018768
   1 N :    0.116644
   2 C :   -0.101772
   3 N :    0.183030
   4 C :   -0.004743
   5 N :   -0.130806
   6 C :   -0.035699
   7 N :    0.175880
   8 C :   -0.024489
   9 N :   -0.140209
  10 C :    0.024212
  11 N :    0.143813
  12 C :   -0.109701
  13 N :    0.160723
  14 C :   -0.033636
  15 N :    0.137470
  16 C :   -0.056739
  17 C :   -0.043582
  18 C :   -0.100960
  19 C :   -0.084824
  20 C :    0.005287
  21 C :   -0.114825
  22 C :    0.039768
  23 C :   -0.015649
  24 C :   -0.009023
  25 C :    0.030265
  26 C :   -0.107480
  27 C :   -0.113560
  28 C :   -0.025531
  29 C :   -0.099608
  30 C :   -0.034333
  31 C :    0.020179
  32 C :   -0.094171
  33 C :    0.072500
  34 C :   -0.015359
  35 C :    0.015819
  36 C :    0.033997
  37 C :   -0.095611
  38 C :   -0.047929
  39 C :   -0.019872
  40 C :   -0.108073
  41 C :   -0.093961
  42 C :   -0.010346
  43 C :   -0.100898
  44 C :    0.031186
  45 C :   -0.027521
  46 C :   -0.001025
  47 C :    0.029174
  48 C :   -0.097783
  49 C :   -0.073403
  50 C :   -0.019936
  51 C :   -0.109840
  52 H :    0.024266
  53 H :    0.003218
  54 H :    0.041953
  55 H :    0.023907
  56 H :    0.021523
  57 H :    0.026918
  58 H :    0.027367
  59 H :    0.009737
  60 H :    0.040642
  61 H :    0.059989
  62 H :    0.061699
  63 H :    0.031289
  64 H :    0.005664
  65 H :    0.045745
  66 H :    0.029838
  67 H :    0.028712
  68 H :    0.031917
  69 H :    0.030811
  70 H :   -0.003752
  71 H :    0.044296
  72 H :    0.036243
  73 H :    0.006601
  74 H :    0.049513
  75 H :    0.035678
  76 H :    0.033341
  77 H :    0.035160
  78 H :    0.034790
  79 H :    0.003522
  80 H :    0.049246
  81 H :    0.028789
  82 H :   -0.002783
  83 H :    0.042274
  84 H :    0.029309
  85 H :    0.026851
  86 H :    0.029976
  87 H :    0.031159
  88 H :    0.001671
  89 H :    0.044642

  Mayer bond orders larger than 0.100000
B(  0-C ,  1-N ) :   1.0952 B(  0-C , 17-C ) :   1.6996 B(  0-C , 52-H ) :   0.9671
B(  1-N ,  8-C ) :   1.0846 B(  1-N , 10-C ) :   0.9770 B(  2-C , 12-C ) :   1.5129
B(  2-C , 16-C ) :   1.3507 B(  2-C , 53-H ) :   0.9762 B(  3-N , 14-C ) :   1.2167
B(  3-N , 16-C ) :   1.1923 B(  3-N , 61-H ) :   0.8994 B(  4-C ,  6-C ) :   1.2145
B(  4-C , 17-C ) :   1.2138 B(  4-C , 18-C ) :   1.4168 B(  5-N , 19-C ) :   1.4497
B(  5-N , 27-C ) :   1.3822 B(  6-C ,  8-C ) :   1.7035 B(  6-C , 54-H ) :   0.9616
B(  7-N , 30-C ) :   1.1938 B(  7-N , 38-C ) :   1.1936 B(  7-N , 62-H ) :   0.8969
B(  8-C , 55-H ) :   0.9686 B(  9-N , 41-C ) :   1.3943 B(  9-N , 49-C ) :   1.4268
B( 10-C , 56-H ) :   0.9767 B( 10-C , 57-H ) :   0.9831 B( 10-C , 58-H ) :   0.9835
B( 11-N , 20-C ) :   1.1315 B( 11-N , 24-C ) :   1.1121 B( 11-N , 25-C ) :   0.9587
B( 12-C , 14-C ) :   1.3525 B( 12-C , 59-H ) :   0.9747 B( 13-N , 31-C ) :   1.1541
B( 13-N , 35-C ) :   1.1485 B( 13-N , 36-C ) :   0.9455 B( 14-C , 18-C ) :   1.1386
B( 15-N , 42-C ) :   1.1076 B( 15-N , 46-C ) :   1.1202 B( 15-N , 47-C ) :   0.9624
B( 16-C , 51-C ) :   1.1754 B( 17-C , 60-H ) :   0.9619 B( 18-C , 19-C ) :   1.1424
B( 19-C , 21-C ) :   1.2393 B( 20-C , 28-C ) :   1.6252 B( 20-C , 63-H ) :   0.9702
B( 21-C , 26-C ) :   1.6182 B( 21-C , 64-H ) :   0.9716 B( 22-C , 23-C ) :   1.2905
B( 22-C , 28-C ) :   1.2683 B( 22-C , 29-C ) :   1.2205 B( 23-C , 24-C ) :   1.6171
B( 23-C , 65-H ) :   0.9705 B( 24-C , 66-H ) :   0.9694 B( 25-C , 67-H ) :   0.9760
B( 25-C , 68-H ) :   0.9828 B( 25-C , 69-H ) :   0.9822 B( 26-C , 27-C ) :   1.2339
B( 26-C , 70-H ) :   0.9709 B( 27-C , 29-C ) :   1.2164 B( 28-C , 71-H ) :   0.9718
B( 29-C , 30-C ) :   1.2390 B( 30-C , 32-C ) :   1.2852 B( 31-C , 39-C ) :   1.5978
B( 31-C , 72-H ) :   0.9684 B( 32-C , 37-C ) :   1.5742 B( 32-C , 73-H ) :   0.9784
B( 33-C , 34-C ) :   1.3014 B( 33-C , 39-C ) :   1.2948 B( 33-C , 40-C ) :   1.1906
B( 34-C , 35-C ) :   1.5943 B( 34-C , 74-H ) :   0.9698 B( 35-C , 75-H ) :   0.9685
B( 36-C , 76-H ) :   0.9766 B( 36-C , 77-H ) :   0.9817 B( 36-C , 78-H ) :   0.9825
B( 37-C , 38-C ) :   1.2890 B( 37-C , 79-H ) :   0.9769 B( 38-C , 40-C ) :   1.2296
B( 39-C , 80-H ) :   0.9708 B( 40-C , 41-C ) :   1.2435 B( 41-C , 43-C ) :   1.1930
B( 42-C , 50-C ) :   1.6358 B( 42-C , 81-H ) :   0.9697 B( 43-C , 48-C ) :   1.6588
B( 43-C , 82-H ) :   0.9724 B( 44-C , 45-C ) :   1.2629 B( 44-C , 50-C ) :   1.2690
B( 44-C , 51-C ) :   1.2644 B( 45-C , 46-C ) :   1.6367 B( 45-C , 83-H ) :   0.9717
B( 46-C , 84-H ) :   0.9701 B( 47-C , 85-H ) :   0.9762 B( 47-C , 86-H ) :   0.9829
B( 47-C , 87-H ) :   0.9825 B( 48-C , 49-C ) :   1.1962 B( 48-C , 88-H ) :   0.9747
B( 49-C , 51-C ) :   1.2340 B( 50-C , 89-H ) :   0.9710

MP2 TOTAL ENERGY:    -2130.904315797 Eh
FINAL SINGLE POINT ENERGY     -2130.904315796769

DIPOLE MOMENT
-------------
                                X             Y             Z
Electronic contribution:      1.92890      -3.74192      -0.06419
Nuclear contribution   :     -0.00130       0.18479       0.07354
                        -----------------------------------------
Total Dipole Moment    :      1.92760      -3.55713       0.00935
                        -----------------------------------------
Magnitude (a.u.)       :      4.04585
Magnitude (Debye)      :     10.28372

Rotational constants in cm-1:     0.001502     0.001476     0.000761
Rotational constants in MHz :    45.018306    44.238315    22.811213

                             ****ORCA TERMINATED NORMALLY****
TOTAL RUN TIME: 0 days 1 hours 4 minutes 16 seconds 579 msec
