                         Program Version 5.0.4 -  RELEASE  -
|  1> ! PAL2
|  2> ! mp2 cc-pvdz TightSCF  NoKeepInts
|  3>
|  4> %scf
|  5>   MaxCore 2000
|  6> end
|  7> %mp2
|  8>   MaxCore 2000
|  9> end
| 10> * xyz 0 1
| 11>    C       -4.42500         5.52300         1.11900
| 12>    C        1.47400         4.04100         0.05700
| 13>    C       -2.80200         4.09300         0.04900
| 14>    C       -2.77600         5.00600        -1.01700
| 15>    C       -3.56500         6.13800        -0.97900
| 16>    C       -5.18200         7.62300         0.10300
| 17>    C        0.13200         4.30700         0.06100
| 18>    C       -0.56900         3.05600         0.04700
| 19>    C        1.64900         2.61800         0.02300
| 20>    C       -3.65000         4.38000         1.13000
| 21>    N       -4.37700         6.38200         0.07600
| 22>    N        0.38800         2.06700         0.02500
| 23>    N       -2.01000         0.39500        -0.07500
| 24>    N       -0.38800        -2.07400        -0.02700
| 25>    N        2.01000        -0.40100         0.06500
| 26>    C       -1.96000         2.86100         0.02400
| 27>    C       -2.62300         1.61500        -0.01800
| 28>    C       -5.57300        -4.32900         1.06600
| 29>    C       -4.07300         1.47100         0.05600
| 30>    C       -4.10600        -2.75600        -0.02600
| 31>    C       -4.99500        -2.75700        -1.11100
| 32>    C       -6.13200        -3.54200        -1.07600
| 33>    C       -7.65100        -5.11300         0.04000
| 34>    C       -4.32400         0.14100         0.03700
| 35>    C       -3.02500        -0.52000        -0.04800
| 36>    C       -4.42200        -3.56600         1.07500
| 37>    N       -6.40700        -4.31300         0.00100
| 38>    C       -2.86700        -1.92200        -0.04000
| 39>    C       -1.65000        -2.62400        -0.02700
| 40>    C        3.56800        -6.14200        -1.04000
| 41>    C       -1.47600        -4.04900        -0.03400
| 42>    C        2.80300        -4.09900        -0.00800
| 43>    C        3.65700        -4.38400         1.06900
| 44>    C        4.42700        -5.53000         1.05900
| 45>    C        5.24500        -7.58800         0.01400
| 46>    C       -0.13400        -4.31500        -0.02200
| 47>    C        0.56800        -3.06400        -0.02700
| 48>    C        2.77500        -5.01200        -1.07400
| 49>    N        4.37600        -6.39100         0.01700
| 50>    C        1.95900        -2.86900        -0.00900
| 51>    C        2.62100        -1.62200         0.00900
| 52>    C        5.54300         4.33900        -1.13000
| 53>    C        4.07000        -1.47900        -0.09400
| 54>    C        4.10400         2.75100        -0.02100
| 55>    C        5.02700         2.72900         1.03600
| 56>    C        6.16600         3.50900         0.97800
| 57>    C        7.61900         5.15300        -0.11500
| 58>    C        4.32100        -0.14800        -0.09200
| 59>    C        3.02500         0.51400         0.01500
| 60>    C        4.38700         3.58200        -1.11500
| 61>    C        2.86600         1.91600         0.01300
| 62>    N        6.41300         4.29600        -0.09500
| 63>    H       -5.10200         5.77800         1.92500
| 64>    H        2.27400         4.76600         0.08100
| 65>    H       -2.13500         4.84500        -1.87500
| 66>    H       -3.57200         6.87500        -1.77200
| 67>    H       -4.57500         8.43200         0.51600
| 68>    H       -5.48700         7.86600        -0.91500
| 69>    H       -6.06000         7.45800         0.72600
| 70>    H       -0.33200         5.28200         0.06900
| 71>    H       -3.72500         3.70700         1.97600
| 72>    H        0.18200         1.07200         0.00500
| 73>    H       -0.18300        -1.08000        -0.02100
| 74>    H       -5.86400        -4.96200         1.89500
| 75>    H       -4.79400         2.27200         0.13900
| 76>    H       -4.80000        -2.16000        -1.99400
| 77>    H       -6.84100        -3.58200        -1.89300
| 78>    H       -8.42800        -4.53600         0.54600
| 79>    H       -7.95600        -5.33700        -0.98100
| 80>    H       -7.45600        -6.03700         0.58400
| 81>    H       -5.28700        -0.34400         0.10000
| 82>    H       -3.78000        -3.60100         1.94700
| 83>    H        3.58700        -6.86800        -1.84300
| 84>    H       -2.27600        -4.77400        -0.05000
| 85>    H        3.71400        -3.72400         1.92600
| 86>    H        5.09200        -5.79500         1.87100
| 87>    H        6.20500        -7.32900        -0.43900
| 88>    H        5.39300        -7.91700         1.04200
| 89>    H        4.75900        -8.37300        -0.56400
| 90>    H        0.32900        -5.29000        -0.00800
| 91>    H        2.14600        -4.84200        -1.94000
| 92>    H        5.80800         4.98600        -1.95600
| 93>    H        4.78800        -2.28100        -0.18500
| 94>    H        4.86000         2.11400         1.91200
| 95>    H        6.90100         3.53100         1.77200
| 96>    H        7.38300         6.10900         0.35600
| 97>    H        8.41400         4.65200         0.43500
| 98>    H        7.92100         5.31000        -1.15000
| 99>    H        5.28300         0.33600        -0.17900
|100>    H        3.72000         3.63200        -1.96700
|101> *
|102>
|103>                          ****END OF INPUT****

CARTESIAN COORDINATES (ANGSTROEM)
---------------------------------
  C     -4.425000    5.523000    1.119000
  C      1.474000    4.041000    0.057000
  C     -2.802000    4.093000    0.049000
  C     -2.776000    5.006000   -1.017000
  C     -3.565000    6.138000   -0.979000
  C     -5.182000    7.623000    0.103000
  C      0.132000    4.307000    0.061000
  C     -0.569000    3.056000    0.047000
  C      1.649000    2.618000    0.023000
  C     -3.650000    4.380000    1.130000
  N     -4.377000    6.382000    0.076000
  N      0.388000    2.067000    0.025000
  N     -2.010000    0.395000   -0.075000
  N     -0.388000   -2.074000   -0.027000
  N      2.010000   -0.401000    0.065000
  C     -1.960000    2.861000    0.024000
  C     -2.623000    1.615000   -0.018000
  C     -5.573000   -4.329000    1.066000
  C     -4.073000    1.471000    0.056000
  C     -4.106000   -2.756000   -0.026000
  C     -4.995000   -2.757000   -1.111000
  C     -6.132000   -3.542000   -1.076000
  C     -7.651000   -5.113000    0.040000
  C     -4.324000    0.141000    0.037000
  C     -3.025000   -0.520000   -0.048000
  C     -4.422000   -3.566000    1.075000
  N     -6.407000   -4.313000    0.001000
  C     -2.867000   -1.922000   -0.040000
  C     -1.650000   -2.624000   -0.027000
  C      3.568000   -6.142000   -1.040000
  C     -1.476000   -4.049000   -0.034000
  C      2.803000   -4.099000   -0.008000
  C      3.657000   -4.384000    1.069000
  C      4.427000   -5.530000    1.059000
  C      5.245000   -7.588000    0.014000
  C     -0.134000   -4.315000   -0.022000
  C      0.568000   -3.064000   -0.027000
  C      2.775000   -5.012000   -1.074000
  N      4.376000   -6.391000    0.017000
  C      1.959000   -2.869000   -0.009000
  C      2.621000   -1.622000    0.009000
  C      5.543000    4.339000   -1.130000
  C      4.070000   -1.479000   -0.094000
  C      4.104000    2.751000   -0.021000
  C      5.027000    2.729000    1.036000
  C      6.166000    3.509000    0.978000
  C      7.619000    5.153000   -0.115000
  C      4.321000   -0.148000   -0.092000
  C      3.025000    0.514000    0.015000
  C      4.387000    3.582000   -1.115000
  C      2.866000    1.916000    0.013000
  N      6.413000    4.296000   -0.095000
  H     -5.102000    5.778000    1.925000
  H      2.274000    4.766000    0.081000
  H     -2.135000    4.845000   -1.875000
  H     -3.572000    6.875000   -1.772000
  H     -4.575000    8.432000    0.516000
  H     -5.487000    7.866000   -0.915000
  H     -6.060000    7.458000    0.726000
  H     -0.332000    5.282000    0.069000
  H     -3.725000    3.707000    1.976000
  H      0.182000    1.072000    0.005000
  H     -0.183000   -1.080000   -0.021000
  H     -5.864000   -4.962000    1.895000
  H     -4.794000    2.272000    0.139000
  H     -4.800000   -2.160000   -1.994000
  H     -6.841000   -3.582000   -1.893000
  H     -8.428000   -4.536000    0.546000
  H     -7.956000   -5.337000   -0.981000
  H     -7.456000   -6.037000    0.584000
  H     -5.287000   -0.344000    0.100000
  H     -3.780000   -3.601000    1.947000
  H      3.587000   -6.868000   -1.843000
  H     -2.276000   -4.774000   -0.050000
  H      3.714000   -3.724000    1.926000
  H      5.092000   -5.795000    1.871000
  H      6.205000   -7.329000   -0.439000
  H      5.393000   -7.917000    1.042000
  H      4.759000   -8.373000   -0.564000
  H      0.329000   -5.290000   -0.008000
  H      2.146000   -4.842000   -1.940000
  H      5.808000    4.986000   -1.956000
  H      4.788000   -2.281000   -0.185000
  H      4.860000    2.114000    1.912000
  H      6.901000    3.531000    1.772000
  H      7.383000    6.109000    0.356000
  H      8.414000    4.652000    0.435000
  H      7.921000    5.310000   -1.150000
  H      5.283000    0.336000   -0.179000
  H      3.720000    3.632000   -1.967000

 Total Charge           Charge          ....    0
 Multiplicity           Mult            ....    1
 Number of Electrons    NEL             ....  358
 Basis Dimension        Dim             ....  918

ORBITAL ENERGIES
----------------

  NO   OCC          E(Eh)            E(eV)
   0   2.0000     -15.644641      -425.7123
   1   2.0000     -15.638977      -425.5582
   2   2.0000     -15.627773      -425.2533
   3   2.0000     -15.622791      -425.1178
   4   2.0000     -15.517053      -422.2405
   5   2.0000     -15.515243      -422.1912
   6   2.0000     -15.445392      -420.2905
   7   2.0000     -15.439841      -420.1394
   8   2.0000     -11.306004      -307.6520
   9   2.0000     -11.302380      -307.5534
  10   2.0000     -11.299569      -307.4769
  11   2.0000     -11.298549      -307.4492
  12   2.0000     -11.295332      -307.3616
  13   2.0000     -11.294758      -307.3460
  14   2.0000     -11.293317      -307.3068
  15   2.0000     -11.292446      -307.2831
  16   2.0000     -11.285819      -307.1027
  17   2.0000     -11.283538      -307.0407
  18   2.0000     -11.282057      -307.0004
  19   2.0000     -11.279442      -306.9292
  20   2.0000     -11.248148      -306.0777
  21   2.0000     -11.242164      -305.9148
  22   2.0000     -11.238345      -305.8109
  23   2.0000     -11.237253      -305.7812
  24   2.0000     -11.234006      -305.6928
  25   2.0000     -11.233199      -305.6709
  26   2.0000     -11.232050      -305.6396
  27   2.0000     -11.227961      -305.5284
  28   2.0000     -11.225873      -305.4715
  29   2.0000     -11.225651      -305.4655
  30   2.0000     -11.222424      -305.3777
  31   2.0000     -11.221571      -305.3545
  32   2.0000     -11.197819      -304.7081
  33   2.0000     -11.197563      -304.7012
  34   2.0000     -11.194839      -304.6271
  35   2.0000     -11.194725      -304.6240
  36   2.0000     -11.176208      -304.1201
  37   2.0000     -11.175533      -304.1017
  38   2.0000     -11.172892      -304.0299
  39   2.0000     -11.169983      -303.9507
  40   2.0000     -11.166032      -303.8432
  41   2.0000     -11.165260      -303.8222
  42   2.0000     -11.164861      -303.8113
  43   2.0000     -11.162947      -303.7592
  44   2.0000     -11.157749      -303.6178
  45   2.0000     -11.155080      -303.5452
  46   2.0000     -11.154446      -303.5279
  47   2.0000     -11.151472      -303.4470
  48   2.0000     -11.147792      -303.3468
  49   2.0000     -11.146327      -303.3070
  50   2.0000     -11.136547      -303.0408
  51   2.0000     -11.134982      -302.9983
  52   2.0000      -1.330415       -36.2024
  53   2.0000      -1.325436       -36.0669
  54   2.0000      -1.315670       -35.8012
  55   2.0000      -1.311657       -35.6920
  56   2.0000      -1.215772       -33.0828
  57   2.0000      -1.212484       -32.9934
  58   2.0000      -1.163367       -31.6568
  59   2.0000      -1.153621       -31.3916
  60   2.0000      -1.118338       -30.4315
  61   2.0000      -1.112391       -30.2697
  62   2.0000      -1.105573       -30.0842
  63   2.0000      -1.100307       -29.9409
  64   2.0000      -1.054173       -28.6855
  65   2.0000      -1.049176       -28.5495
  66   2.0000      -1.040251       -28.3067
  67   2.0000      -1.036581       -28.2068
  68   2.0000      -1.026625       -27.9359
  69   2.0000      -1.011289       -27.5186
  70   2.0000      -1.007224       -27.4080
  71   2.0000      -0.997698       -27.1487
  72   2.0000      -0.979578       -26.6557
  73   2.0000      -0.976366       -26.5683
  74   2.0000      -0.968230       -26.3469
  75   2.0000      -0.961895       -26.1745
  76   2.0000      -0.950920       -25.8758
  77   2.0000      -0.945862       -25.7382
  78   2.0000      -0.936360       -25.4797
  79   2.0000      -0.922990       -25.1158
  80   2.0000      -0.892143       -24.2764
  81   2.0000      -0.880290       -23.9539
  82   2.0000      -0.875798       -23.8317
  83   2.0000      -0.867647       -23.6099
  84   2.0000      -0.863744       -23.5037
  85   2.0000      -0.856862       -23.3164
  86   2.0000      -0.851509       -23.1708
  87   2.0000      -0.840825       -22.8800
  88   2.0000      -0.822089       -22.3702
  89   2.0000      -0.797701       -21.7066
  90   2.0000      -0.797456       -21.6999
  91   2.0000      -0.739136       -20.1129
  92   2.0000      -0.729315       -19.8457
  93   2.0000      -0.727403       -19.7936
  94   2.0000      -0.722985       -19.6734
  95   2.0000      -0.717167       -19.5151
  96   2.0000      -0.710944       -19.3458
  97   2.0000      -0.710108       -19.3230
  98   2.0000      -0.697836       -18.9891
  99   2.0000      -0.690751       -18.7963
 100   2.0000      -0.685027       -18.6405
 101   2.0000      -0.681976       -18.5575
 102   2.0000      -0.679845       -18.4995
 103   2.0000      -0.672105       -18.2889
 104   2.0000      -0.668839       -18.2000
 105   2.0000      -0.667127       -18.1535
 106   2.0000      -0.661826       -18.0092
 107   2.0000      -0.660263       -17.9667
 108   2.0000      -0.658730       -17.9250
 109   2.0000      -0.655744       -17.8437
 110   2.0000      -0.651273       -17.7221
 111   2.0000      -0.649485       -17.6734
 112   2.0000      -0.647976       -17.6323
 113   2.0000      -0.644523       -17.5384
 114   2.0000      -0.633730       -17.2447
 115   2.0000      -0.623734       -16.9727
 116   2.0000      -0.620578       -16.8868
 117   2.0000      -0.616075       -16.7642
 118   2.0000      -0.610862       -16.6224
 119   2.0000      -0.608036       -16.5455
 120   2.0000      -0.607260       -16.5244
 121   2.0000      -0.604356       -16.4454
 122   2.0000      -0.601603       -16.3704
 123   2.0000      -0.594563       -16.1789
 124   2.0000      -0.588405       -16.0113
 125   2.0000      -0.584737       -15.9115
 126   2.0000      -0.577625       -15.7180
 127   2.0000      -0.574485       -15.6325
 128   2.0000      -0.568573       -15.4717
 129   2.0000      -0.564402       -15.3582
 130   2.0000      -0.553375       -15.0581
 131   2.0000      -0.544068       -14.8049
 132   2.0000      -0.540760       -14.7148
 133   2.0000      -0.534792       -14.5524
 134   2.0000      -0.532612       -14.4931
 135   2.0000      -0.529274       -14.4023
 136   2.0000      -0.524055       -14.2603
 137   2.0000      -0.523399       -14.2424
 138   2.0000      -0.518884       -14.1196
 139   2.0000      -0.515512       -14.0278
 140   2.0000      -0.509163       -13.8550
 141   2.0000      -0.505605       -13.7582
 142   2.0000      -0.503653       -13.7051
 143   2.0000      -0.502333       -13.6692
 144   2.0000      -0.498151       -13.5554
 145   2.0000      -0.496770       -13.5178
 146   2.0000      -0.496168       -13.5014
 147   2.0000      -0.494073       -13.4444
 148   2.0000      -0.490027       -13.3343
 149   2.0000      -0.467768       -12.7286
 150   2.0000      -0.460224       -12.5233
 151   2.0000      -0.451614       -12.2890
 152   2.0000      -0.446302       -12.1445
 153   2.0000      -0.445933       -12.1345
 154   2.0000      -0.443975       -12.0812
 155   2.0000      -0.439769       -11.9667
 156   2.0000      -0.434725       -11.8295
 157   2.0000      -0.429133       -11.6773
 158   2.0000      -0.392190       -10.6720
 159   2.0000      -0.380154       -10.3445
 160   2.0000      -0.375960       -10.2304
 161   2.0000      -0.373034       -10.1508
 162   2.0000      -0.363427        -9.8893
 163   2.0000      -0.359525        -9.7832
 164   2.0000      -0.351994        -9.5782
 165   2.0000      -0.348994        -9.4966
 166   2.0000      -0.337703        -9.1894
 167   2.0000      -0.333142        -9.0653
 168   2.0000      -0.326095        -8.8735
 169   2.0000      -0.300209        -8.1691
 170   2.0000      -0.292692        -7.9646
 171   2.0000      -0.289770        -7.8850
 172   2.0000      -0.287065        -7.8114
 173   2.0000      -0.256591        -6.9822
 174   2.0000      -0.245520        -6.6809
 175   2.0000      -0.187068        -5.0904
 176   2.0000      -0.176856        -4.8125
 177   2.0000      -0.064486        -1.7548
 178   2.0000      -0.052919        -1.4400
 179   0.0000       0.032245         0.8774
 180   0.0000       0.069648         1.8952
 181   0.0000       0.092225         2.5096
 182   0.0000       0.095570         2.6006
 183   0.0000       0.130454         3.5498

MULLIKEN ATOMIC CHARGES
-----------------------
   0 C :    0.214635
   1 N :   -0.436793
   2 C :   -0.065166
   3 N :   -0.338657
   4 C :   -0.070658
   5 N :   -0.564266
   6 C :   -0.052605
   7 N :   -0.337459
   8 C :    0.209096
   9 N :   -0.564023
  10 C :    0.112560
  11 N :   -0.437393
  12 C :   -0.067756
  13 N :   -0.442439
  14 C :    0.238414
  15 N :   -0.440700
  16 C :    0.238834
  17 C :   -0.060382
  18 C :   -0.208221
  19 C :    0.240319
  20 C :    0.204840
  21 C :   -0.079916
  22 C :   -0.086165
  23 C :   -0.052485
  24 C :    0.209354
  25 C :    0.113776
  26 C :   -0.070915
  27 C :    0.228957
  28 C :   -0.049452
  29 C :   -0.188377
  30 C :    0.232120
  31 C :    0.205133
  32 C :   -0.066094
  33 C :   -0.086374
  34 C :   -0.050643
  35 C :    0.198587
  36 C :    0.115718
  37 C :   -0.067711
  38 C :    0.238270
  39 C :   -0.061937
  40 C :   -0.193119
  41 C :    0.220547
  42 C :    0.205827
  43 C :   -0.074079
  44 C :   -0.088853
  45 C :   -0.049108
  46 C :    0.199567
  47 C :    0.115709
  48 C :   -0.075997
  49 C :    0.222361
  50 C :   -0.056041
  51 C :   -0.189083
  52 H :    0.060228
  53 H :   -0.012723
  54 H :    0.049348
  55 H :    0.058234
  56 H :    0.064277
  57 H :    0.060634
  58 H :    0.059565
  59 H :   -0.016206
  60 H :    0.051093
  61 H :    0.173860
  62 H :    0.171671
  63 H :    0.056502
  64 H :   -0.022182
  65 H :    0.046705
  66 H :    0.057904
  67 H :    0.062376
  68 H :    0.058229
  69 H :    0.059377
  70 H :   -0.022598
  71 H :    0.048258
  72 H :    0.051935
  73 H :   -0.016064
  74 H :    0.042606
  75 H :    0.050960
  76 H :    0.058231
  77 H :    0.055281
  78 H :    0.054524
  79 H :   -0.013523
  80 H :    0.042869
  81 H :    0.053004
  82 H :   -0.023055
  83 H :    0.043521
  84 H :    0.052762
  85 H :    0.058355
  86 H :    0.056586
  87 H :    0.056308
  88 H :   -0.023725
  89 H :    0.043118
Sum of atomic charges:    0.0000000

LOEWDIN ATOMIC CHARGES
----------------------
   0 C :    0.005260
   1 N :    0.147651
   2 C :   -0.100900
   3 N :    0.177226
   4 C :    0.050198
   5 N :   -0.141055
   6 C :   -0.019432
   7 N :    0.177848
   8 C :    0.001942
   9 N :   -0.139227
  10 C :    0.030932
  11 N :    0.144800
  12 C :   -0.101555
  13 N :    0.135145
  14 C :   -0.048080
  15 N :    0.138278
  16 C :   -0.039826
  17 C :   -0.022080
  18 C :   -0.110865
  19 C :   -0.086408
  20 C :   -0.002157
  21 C :   -0.104240
  22 C :    0.043602
  23 C :   -0.022526
  24 C :    0.002072
  25 C :    0.030450
  26 C :   -0.100523
  27 C :   -0.086097
  28 C :   -0.019403
  29 C :   -0.110775
  30 C :   -0.050129
  31 C :   -0.005465
  32 C :   -0.100929
  33 C :    0.029546
  34 C :   -0.021694
  35 C :   -0.011125
  36 C :    0.028155
  37 C :   -0.103371
  38 C :   -0.039456
  39 C :   -0.027154
  40 C :   -0.110183
  41 C :   -0.092600
  42 C :   -0.003528
  43 C :   -0.106223
  44 C :    0.033772
  45 C :   -0.020231
  46 C :   -0.008788
  47 C :    0.029166
  48 C :   -0.106245
  49 C :   -0.095678
  50 C :   -0.025457
  51 C :   -0.108356
  52 H :    0.032305
  53 H :    0.004941
  54 H :    0.045748
  55 H :    0.031527
  56 H :    0.029235
  57 H :    0.032465
  58 H :    0.032510
  59 H :    0.003150
  60 H :    0.046284
  61 H :    0.061091
  62 H :    0.059866
  63 H :    0.030894
  64 H :   -0.001795
  65 H :    0.045044
  66 H :    0.030815
  67 H :    0.028349
  68 H :    0.032071
  69 H :    0.031584
  70 H :   -0.001192
  71 H :    0.045629
  72 H :    0.028655
  73 H :    0.003248
  74 H :    0.043195
  75 H :    0.027931
  76 H :    0.026175
  77 H :    0.030211
  78 H :    0.029891
  79 H :    0.004558
  80 H :    0.042711
  81 H :    0.028824
  82 H :   -0.001598
  83 H :    0.043889
  84 H :    0.028814
  85 H :    0.026228
  86 H :    0.030558
  87 H :    0.030967
  88 H :   -0.002018
  89 H :    0.042961

  Mayer bond orders larger than 0.100000
B(  0-C ,  1-N ) :   1.1319 B(  0-C , 17-C ) :   1.6155 B(  0-C , 52-H ) :   0.9690
B(  1-N ,  8-C ) :   1.1260 B(  1-N , 10-C ) :   0.9559 B(  2-C , 12-C ) :   1.5417
B(  2-C , 16-C ) :   1.3168 B(  2-C , 53-H ) :   0.9780 B(  3-N , 14-C ) :   1.1966
B(  3-N , 16-C ) :   1.1982 B(  3-N , 61-H ) :   0.8976 B(  4-C ,  6-C ) :   1.2806
B(  4-C , 17-C ) :   1.2826 B(  4-C , 18-C ) :   1.2311 B(  5-N , 19-C ) :   1.4088
B(  5-N , 27-C ) :   1.4129 B(  6-C ,  8-C ) :   1.6186 B(  6-C , 54-H ) :   0.9713
B(  7-N , 30-C ) :   1.1922 B(  7-N , 38-C ) :   1.2045 B(  7-N , 62-H ) :   0.8990
B(  8-C , 55-H ) :   0.9697 B(  9-N , 41-C ) :   1.4149 B(  9-N , 49-C ) :   1.4095
B( 10-C , 56-H ) :   0.9763 B( 10-C , 57-H ) :   0.9816 B( 10-C , 58-H ) :   0.9833
B( 11-N , 20-C ) :   1.1213 B( 11-N , 24-C ) :   1.1274 B( 11-N , 25-C ) :   0.9580
B( 12-C , 14-C ) :   1.3170 B( 12-C , 59-H ) :   0.9770 B( 13-N , 31-C ) :   1.1139
B( 13-N , 35-C ) :   1.1069 B( 13-N , 36-C ) :   0.9648 B( 14-C , 18-C ) :   1.2057
B( 15-N , 42-C ) :   1.1190 B( 15-N , 46-C ) :   1.1098 B( 15-N , 47-C ) :   0.9627
B( 16-C , 51-C ) :   1.2060 B( 17-C , 60-H ) :   0.9712 B( 18-C , 19-C ) :   1.2315
B( 19-C , 21-C ) :   1.1999 B( 20-C , 28-C ) :   1.6221 B( 20-C , 63-H ) :   0.9703
B( 21-C , 26-C ) :   1.6513 B( 21-C , 64-H ) :   0.9722 B( 22-C , 23-C ) :   1.2799
B( 22-C , 28-C ) :   1.2773 B( 22-C , 29-C ) :   1.2329 B( 23-C , 24-C ) :   1.6194
B( 23-C , 65-H ) :   0.9711 B( 24-C , 66-H ) :   0.9690 B( 25-C , 67-H ) :   0.9762
B( 25-C , 68-H ) :   0.9830 B( 25-C , 69-H ) :   0.9820 B( 26-C , 27-C ) :   1.2017
B( 26-C , 70-H ) :   0.9737 B( 27-C , 29-C ) :   1.2351 B( 28-C , 71-H ) :   0.9713
B( 29-C , 30-C ) :   1.2012 B( 30-C , 32-C ) :   1.3229 B( 31-C , 39-C ) :   1.6425
B( 31-C , 72-H ) :   0.9700 B( 32-C , 37-C ) :   1.5353 B( 32-C , 73-H ) :   0.9776
B( 33-C , 34-C ) :   1.2654 B( 33-C , 39-C ) :   1.2586 B( 33-C , 40-C ) :   1.2728
B( 34-C , 35-C ) :   1.6399 B( 34-C , 74-H ) :   0.9706 B( 35-C , 75-H ) :   0.9699
B( 36-C , 76-H ) :   0.9761 B( 36-C , 77-H ) :   0.9822 B( 36-C , 78-H ) :   0.9833
B( 37-C , 38-C ) :   1.3231 B( 37-C , 79-H ) :   0.9781 B( 38-C , 40-C ) :   1.1996
B( 39-C , 80-H ) :   0.9717 B( 40-C , 41-C ) :   1.2085 B( 41-C , 43-C ) :   1.2215
B( 42-C , 50-C ) :   1.6343 B( 42-C , 81-H ) :   0.9696 B( 43-C , 48-C ) :   1.6300
B( 43-C , 82-H ) :   0.9742 B( 44-C , 45-C ) :   1.2740 B( 44-C , 50-C ) :   1.2639
B( 44-C , 51-C ) :   1.2527 B( 45-C , 46-C ) :   1.6316 B( 45-C , 83-H ) :   0.9709
B( 46-C , 84-H ) :   0.9703 B( 47-C , 85-H ) :   0.9761 B( 47-C , 86-H ) :   0.9827
B( 47-C , 87-H ) :   0.9827 B( 48-C , 49-C ) :   1.2198 B( 48-C , 88-H ) :   0.9736
B( 49-C , 51-C ) :   1.2161 B( 50-C , 89-H ) :   0.9715

MP2 TOTAL ENERGY:    -2130.909316767 Eh
FINAL SINGLE POINT ENERGY     -2130.909316767436

DIPOLE MOMENT
-------------
                                X             Y             Z
Electronic contribution:     -1.22976       0.38414      -0.10294
Nuclear contribution   :      0.07375       0.23800       0.11721
                        -----------------------------------------
Total Dipole Moment    :     -1.15601       0.62213       0.01427
                        -----------------------------------------
Magnitude (a.u.)       :      1.31286
Magnitude (Debye)      :      3.33703

Rotational constants in cm-1:     0.001498     0.001474     0.000762
Rotational constants in MHz :    44.920739    44.186730    22.850394

                             ****ORCA TERMINATED NORMALLY****
TOTAL RUN TIME: 0 days 1 hours 18 minutes 53 seconds 33 msec
