                         Program Version 5.0.4 -  RELEASE  -
|  1> ! PAL2
|  2> ! mp2 cc-pvdz TightSCF  NoKeepInts
|  3>
|  4> %scf
|  5>   MaxCore 2000
|  6> end
|  7> %mp2
|  8>   MaxCore 2000
|  9> end
| 10> * xyz 0 1
| 11>    C       -3.67100         6.03700         1.18500
| 12>    C        1.47400         4.04100         0.05700
| 13>    C       -2.80200         4.09300         0.04900
| 14>    C       -3.55600         4.47400        -1.07200
| 15>    C       -4.33400         5.61400        -1.02900
| 16>    C       -5.20000         7.61200         0.08800
| 17>    C        0.13200         4.30700         0.06100
| 18>    C       -0.56900         3.05600         0.04700
| 19>    C        1.64900         2.61800         0.02300
| 20>    C       -2.87400         4.90900         1.18900
| 21>    N       -4.38700         6.37500         0.08800
| 22>    N        0.38800         2.06700         0.02500
| 23>    N       -2.01000         0.39500        -0.07500
| 24>    N       -0.38800        -2.07400        -0.02700
| 25>    N        2.01000        -0.40100         0.06500
| 26>    C       -1.96000         2.86100         0.02400
| 27>    C       -2.62300         1.61500        -0.01800
| 28>    C       -5.57300        -4.32900         1.06600
| 29>    C       -4.07300         1.47100         0.05600
| 30>    C       -4.10600        -2.75600        -0.02600
| 31>    C       -4.99500        -2.75700        -1.11100
| 32>    C       -6.13200        -3.54200        -1.07600
| 33>    C       -7.65100        -5.11300         0.04000
| 34>    C       -4.32400         0.14100         0.03700
| 35>    C       -3.02500        -0.52000        -0.04800
| 36>    C       -4.42200        -3.56600         1.07500
| 37>    N       -6.40700        -4.31300         0.00100
| 38>    C       -2.86700        -1.92200        -0.04000
| 39>    C       -1.65000        -2.62400        -0.02700
| 40>    C        3.56800        -6.14200        -1.04000
| 41>    C       -1.47600        -4.04900        -0.03400
| 42>    C        2.80300        -4.09900        -0.00800
| 43>    C        3.65700        -4.38400         1.06900
| 44>    C        4.42700        -5.53000         1.05900
| 45>    C        5.24500        -7.58800         0.01400
| 46>    C       -0.13400        -4.31500        -0.02200
| 47>    C        0.56800        -3.06400        -0.02700
| 48>    C        2.77500        -5.01200        -1.07400
| 49>    N        4.37600        -6.39100         0.01700
| 50>    C        1.95900        -2.86900        -0.00900
| 51>    C        2.62100        -1.62200         0.00900
| 52>    C        5.54300         4.33900        -1.13000
| 53>    C        4.07000        -1.47900        -0.09400
| 54>    C        4.10400         2.75100        -0.02100
| 55>    C        5.02700         2.72900         1.03600
| 56>    C        6.16600         3.50900         0.97800
| 57>    C        7.61900         5.15300        -0.11500
| 58>    C        4.32100        -0.14800        -0.09200
| 59>    C        3.02500         0.51400         0.01500
| 60>    C        4.38700         3.58200        -1.11500
| 61>    C        2.86600         1.91600         0.01300
| 62>    N        6.41300         4.29600        -0.09500
| 63>    H       -3.76700         6.68800         2.04500
| 64>    H        2.27400         4.76600         0.08100
| 65>    H       -3.53500         3.89000        -1.98400
| 66>    H       -4.92500         5.95200        -1.87000
| 67>    H       -4.60100         8.43100        -0.31600
| 68>    H       -6.08300         7.45100        -0.53000
| 69>    H       -5.49700         7.83500         1.11300
| 70>    H       -0.33200         5.28200         0.06900
| 71>    H       -2.32600         4.66000         2.09100
| 72>    H        0.18200         1.07200         0.00500
| 73>    H       -0.18300        -1.08000        -0.02100
| 74>    H       -5.86400        -4.96200         1.89500
| 75>    H       -4.79400         2.27200         0.13900
| 76>    H       -4.80000        -2.16000        -1.99400
| 77>    H       -6.84100        -3.58200        -1.89300
| 78>    H       -8.42800        -4.53600         0.54600
| 79>    H       -7.95600        -5.33700        -0.98100
| 80>    H       -7.45600        -6.03700         0.58400
| 81>    H       -5.28700        -0.34400         0.10000
| 82>    H       -3.78000        -3.60100         1.94700
| 83>    H        3.58700        -6.86800        -1.84300
| 84>    H       -2.27600        -4.77400        -0.05000
| 85>    H        3.71400        -3.72400         1.92600
| 86>    H        5.09200        -5.79500         1.87100
| 87>    H        6.20500        -7.32900        -0.43900
| 88>    H        5.39300        -7.91700         1.04200
| 89>    H        4.75900        -8.37300        -0.56400
| 90>    H        0.32900        -5.29000        -0.00800
| 91>    H        2.14600        -4.84200        -1.94000
| 92>    H        5.80800         4.98600        -1.95600
| 93>    H        4.78800        -2.28100        -0.18500
| 94>    H        4.86000         2.11400         1.91200
| 95>    H        6.90100         3.53100         1.77200
| 96>    H        7.38300         6.10900         0.35600
| 97>    H        8.41400         4.65200         0.43500
| 98>    H        7.92100         5.31000        -1.15000
| 99>    H        5.28300         0.33600        -0.17900
|100>    H        3.72000         3.63200        -1.96700
|101> *
|102>
|103>                          ****END OF INPUT****

CARTESIAN COORDINATES (ANGSTROEM)
---------------------------------
  C     -3.671000    6.037000    1.185000
  C      1.474000    4.041000    0.057000
  C     -2.802000    4.093000    0.049000
  C     -3.556000    4.474000   -1.072000
  C     -4.334000    5.614000   -1.029000
  C     -5.200000    7.612000    0.088000
  C      0.132000    4.307000    0.061000
  C     -0.569000    3.056000    0.047000
  C      1.649000    2.618000    0.023000
  C     -2.874000    4.909000    1.189000
  N     -4.387000    6.375000    0.088000
  N      0.388000    2.067000    0.025000
  N     -2.010000    0.395000   -0.075000
  N     -0.388000   -2.074000   -0.027000
  N      2.010000   -0.401000    0.065000
  C     -1.960000    2.861000    0.024000
  C     -2.623000    1.615000   -0.018000
  C     -5.573000   -4.329000    1.066000
  C     -4.073000    1.471000    0.056000
  C     -4.106000   -2.756000   -0.026000
  C     -4.995000   -2.757000   -1.111000
  C     -6.132000   -3.542000   -1.076000
  C     -7.651000   -5.113000    0.040000
  C     -4.324000    0.141000    0.037000
  C     -3.025000   -0.520000   -0.048000
  C     -4.422000   -3.566000    1.075000
  N     -6.407000   -4.313000    0.001000
  C     -2.867000   -1.922000   -0.040000
  C     -1.650000   -2.624000   -0.027000
  C      3.568000   -6.142000   -1.040000
  C     -1.476000   -4.049000   -0.034000
  C      2.803000   -4.099000   -0.008000
  C      3.657000   -4.384000    1.069000
  C      4.427000   -5.530000    1.059000
  C      5.245000   -7.588000    0.014000
  C     -0.134000   -4.315000   -0.022000
  C      0.568000   -3.064000   -0.027000
  C      2.775000   -5.012000   -1.074000
  N      4.376000   -6.391000    0.017000
  C      1.959000   -2.869000   -0.009000
  C      2.621000   -1.622000    0.009000
  C      5.543000    4.339000   -1.130000
  C      4.070000   -1.479000   -0.094000
  C      4.104000    2.751000   -0.021000
  C      5.027000    2.729000    1.036000
  C      6.166000    3.509000    0.978000
  C      7.619000    5.153000   -0.115000
  C      4.321000   -0.148000   -0.092000
  C      3.025000    0.514000    0.015000
  C      4.387000    3.582000   -1.115000
  C      2.866000    1.916000    0.013000
  N      6.413000    4.296000   -0.095000
  H     -3.767000    6.688000    2.045000
  H      2.274000    4.766000    0.081000
  H     -3.535000    3.890000   -1.984000
  H     -4.925000    5.952000   -1.870000
  H     -4.601000    8.431000   -0.316000
  H     -6.083000    7.451000   -0.530000
  H     -5.497000    7.835000    1.113000
  H     -0.332000    5.282000    0.069000
  H     -2.326000    4.660000    2.091000
  H      0.182000    1.072000    0.005000
  H     -0.183000   -1.080000   -0.021000
  H     -5.864000   -4.962000    1.895000
  H     -4.794000    2.272000    0.139000
  H     -4.800000   -2.160000   -1.994000
  H     -6.841000   -3.582000   -1.893000
  H     -8.428000   -4.536000    0.546000
  H     -7.956000   -5.337000   -0.981000
  H     -7.456000   -6.037000    0.584000
  H     -5.287000   -0.344000    0.100000
  H     -3.780000   -3.601000    1.947000
  H      3.587000   -6.868000   -1.843000
  H     -2.276000   -4.774000   -0.050000
  H      3.714000   -3.724000    1.926000
  H      5.092000   -5.795000    1.871000
  H      6.205000   -7.329000   -0.439000
  H      5.393000   -7.917000    1.042000
  H      4.759000   -8.373000   -0.564000
  H      0.329000   -5.290000   -0.008000
  H      2.146000   -4.842000   -1.940000
  H      5.808000    4.986000   -1.956000
  H      4.788000   -2.281000   -0.185000
  H      4.860000    2.114000    1.912000
  H      6.901000    3.531000    1.772000
  H      7.383000    6.109000    0.356000
  H      8.414000    4.652000    0.435000
  H      7.921000    5.310000   -1.150000
  H      5.283000    0.336000   -0.179000
  H      3.720000    3.632000   -1.967000

 Total Charge           Charge          ....    0
 Multiplicity           Mult            ....    1
 Number of Electrons    NEL             ....  358
 Basis Dimension        Dim             ....  918

ORBITAL ENERGIES
----------------

  NO   OCC          E(Eh)            E(eV)
   0   2.0000     -15.654739      -425.9871
   1   2.0000     -15.638817      -425.5538
   2   2.0000     -15.626879      -425.2290
   3   2.0000     -15.615468      -424.9185
   4   2.0000     -15.516438      -422.2237
   5   2.0000     -15.513607      -422.1467
   6   2.0000     -15.446174      -420.3118
   7   2.0000     -15.437501      -420.0758
   8   2.0000     -11.312067      -307.8170
   9   2.0000     -11.307056      -307.6806
  10   2.0000     -11.306250      -307.6587
  11   2.0000     -11.302318      -307.5517
  12   2.0000     -11.295563      -307.3679
  13   2.0000     -11.294683      -307.3439
  14   2.0000     -11.292416      -307.2822
  15   2.0000     -11.287821      -307.1572
  16   2.0000     -11.285312      -307.0889
  17   2.0000     -11.282180      -307.0037
  18   2.0000     -11.276039      -306.8366
  19   2.0000     -11.272911      -306.7515
  20   2.0000     -11.256304      -306.2996
  21   2.0000     -11.244777      -305.9859
  22   2.0000     -11.244379      -305.9751
  23   2.0000     -11.242119      -305.9136
  24   2.0000     -11.233890      -305.6897
  25   2.0000     -11.233143      -305.6694
  26   2.0000     -11.231017      -305.6115
  27   2.0000     -11.224818      -305.4428
  28   2.0000     -11.224701      -305.4396
  29   2.0000     -11.220908      -305.3364
  30   2.0000     -11.217000      -305.2301
  31   2.0000     -11.216171      -305.2075
  32   2.0000     -11.198832      -304.7357
  33   2.0000     -11.198689      -304.7318
  34   2.0000     -11.193035      -304.5780
  35   2.0000     -11.192924      -304.5750
  36   2.0000     -11.178210      -304.1746
  37   2.0000     -11.178183      -304.1738
  38   2.0000     -11.175000      -304.0872
  39   2.0000     -11.169940      -303.9495
  40   2.0000     -11.164311      -303.7963
  41   2.0000     -11.161218      -303.7122
  42   2.0000     -11.160984      -303.7058
  43   2.0000     -11.160151      -303.6831
  44   2.0000     -11.158995      -303.6517
  45   2.0000     -11.156021      -303.5708
  46   2.0000     -11.153176      -303.4933
  47   2.0000     -11.150462      -303.4195
  48   2.0000     -11.148967      -303.3788
  49   2.0000     -11.148199      -303.3579
  50   2.0000     -11.132395      -302.9279
  51   2.0000     -11.130553      -302.8777
  52   2.0000      -1.338450       -36.4211
  53   2.0000      -1.325333       -36.0641
  54   2.0000      -1.314798       -35.7775
  55   2.0000      -1.305343       -35.5202
  56   2.0000      -1.216052       -33.0905
  57   2.0000      -1.210960       -32.9519
  58   2.0000      -1.164779       -31.6952
  59   2.0000      -1.150499       -31.3067
  60   2.0000      -1.124002       -30.5857
  61   2.0000      -1.112798       -30.2808
  62   2.0000      -1.104152       -30.0455
  63   2.0000      -1.095158       -29.8008
  64   2.0000      -1.061320       -28.8800
  65   2.0000      -1.049109       -28.5477
  66   2.0000      -1.039317       -28.2813
  67   2.0000      -1.030645       -28.0453
  68   2.0000      -1.028292       -27.9812
  69   2.0000      -1.012394       -27.5487
  70   2.0000      -1.006584       -27.3906
  71   2.0000      -0.995268       -27.0826
  72   2.0000      -0.980549       -26.6821
  73   2.0000      -0.974964       -26.5301
  74   2.0000      -0.970379       -26.4053
  75   2.0000      -0.960824       -26.1453
  76   2.0000      -0.949302       -25.8318
  77   2.0000      -0.947406       -25.7802
  78   2.0000      -0.932883       -25.3850
  79   2.0000      -0.922052       -25.0903
  80   2.0000      -0.892455       -24.2849
  81   2.0000      -0.885667       -24.1002
  82   2.0000      -0.875835       -23.8327
  83   2.0000      -0.866530       -23.5795
  84   2.0000      -0.860422       -23.4133
  85   2.0000      -0.857723       -23.3398
  86   2.0000      -0.851894       -23.1812
  87   2.0000      -0.837743       -22.7962
  88   2.0000      -0.822181       -22.3727
  89   2.0000      -0.797138       -21.6912
  90   2.0000      -0.796226       -21.6664
  91   2.0000      -0.740399       -20.1473
  92   2.0000      -0.731278       -19.8991
  93   2.0000      -0.726940       -19.7811
  94   2.0000      -0.722884       -19.6707
  95   2.0000      -0.716439       -19.4953
  96   2.0000      -0.710217       -19.3260
  97   2.0000      -0.707260       -19.2455
  98   2.0000      -0.698250       -19.0003
  99   2.0000      -0.691272       -18.8105
 100   2.0000      -0.689689       -18.7674
 101   2.0000      -0.682207       -18.5638
 102   2.0000      -0.679739       -18.4966
 103   2.0000      -0.672243       -18.2927
 104   2.0000      -0.669567       -18.2198
 105   2.0000      -0.666690       -18.1416
 106   2.0000      -0.663069       -18.0430
 107   2.0000      -0.660911       -17.9843
 108   2.0000      -0.657976       -17.9044
 109   2.0000      -0.656253       -17.8575
 110   2.0000      -0.650523       -17.7016
 111   2.0000      -0.648092       -17.6355
 112   2.0000      -0.645311       -17.5598
 113   2.0000      -0.640138       -17.4190
 114   2.0000      -0.633094       -17.2274
 115   2.0000      -0.627067       -17.0634
 116   2.0000      -0.623000       -16.9527
 117   2.0000      -0.616130       -16.7658
 118   2.0000      -0.612518       -16.6675
 119   2.0000      -0.608049       -16.5458
 120   2.0000      -0.606791       -16.5116
 121   2.0000      -0.600035       -16.3278
 122   2.0000      -0.598291       -16.2803
 123   2.0000      -0.594632       -16.1808
 124   2.0000      -0.592965       -16.1354
 125   2.0000      -0.584633       -15.9087
 126   2.0000      -0.576883       -15.6978
 127   2.0000      -0.570158       -15.5148
 128   2.0000      -0.569469       -15.4960
 129   2.0000      -0.563322       -15.3288
 130   2.0000      -0.554228       -15.0813
 131   2.0000      -0.547539       -14.8993
 132   2.0000      -0.540395       -14.7049
 133   2.0000      -0.534307       -14.5392
 134   2.0000      -0.531638       -14.4666
 135   2.0000      -0.528237       -14.3741
 136   2.0000      -0.525827       -14.3085
 137   2.0000      -0.522654       -14.2221
 138   2.0000      -0.519521       -14.1369
 139   2.0000      -0.514773       -14.0077
 140   2.0000      -0.509143       -13.8545
 141   2.0000      -0.505076       -13.7438
 142   2.0000      -0.502695       -13.6790
 143   2.0000      -0.500485       -13.6189
 144   2.0000      -0.498364       -13.5612
 145   2.0000      -0.496241       -13.5034
 146   2.0000      -0.494087       -13.4448
 147   2.0000      -0.493114       -13.4183
 148   2.0000      -0.487937       -13.2774
 149   2.0000      -0.466542       -12.6953
 150   2.0000      -0.460380       -12.5276
 151   2.0000      -0.452412       -12.3108
 152   2.0000      -0.447490       -12.1768
 153   2.0000      -0.443713       -12.0741
 154   2.0000      -0.442019       -12.0280
 155   2.0000      -0.439963       -11.9720
 156   2.0000      -0.432972       -11.7818
 157   2.0000      -0.426123       -11.5954
 158   2.0000      -0.391009       -10.6399
 159   2.0000      -0.384936       -10.4746
 160   2.0000      -0.374130       -10.1806
 161   2.0000      -0.369857       -10.0643
 162   2.0000      -0.369128       -10.0445
 163   2.0000      -0.359492        -9.7823
 164   2.0000      -0.351112        -9.5542
 165   2.0000      -0.343933        -9.3589
 166   2.0000      -0.338092        -9.1999
 167   2.0000      -0.334238        -9.0951
 168   2.0000      -0.323492        -8.8027
 169   2.0000      -0.299919        -8.1612
 170   2.0000      -0.293790        -7.9944
 171   2.0000      -0.288142        -7.8407
 172   2.0000      -0.286167        -7.7870
 173   2.0000      -0.257558        -7.0085
 174   2.0000      -0.242534        -6.5997
 175   2.0000      -0.186372        -5.0714
 176   2.0000      -0.176029        -4.7900
 177   2.0000      -0.063184        -1.7193
 178   2.0000      -0.052798        -1.4367
 179   0.0000       0.032772         0.8918
 180   0.0000       0.068076         1.8525
 181   0.0000       0.092409         2.5146
 182   0.0000       0.095630         2.6022
 183   0.0000       0.123946         3.3727

MULLIKEN ATOMIC CHARGES
-----------------------
   0 C :    0.213617
   1 N :   -0.433201
   2 C :   -0.066881
   3 N :   -0.340346
   4 C :   -0.084862
   5 N :   -0.563490
   6 C :   -0.042695
   7 N :   -0.337620
   8 C :    0.212901
   9 N :   -0.563934
  10 C :    0.111136
  11 N :   -0.437556
  12 C :   -0.062745
  13 N :   -0.443938
  14 C :    0.229074
  15 N :   -0.440648
  16 C :    0.242968
  17 C :   -0.045958
  18 C :   -0.186350
  19 C :    0.225934
  20 C :    0.202528
  21 C :   -0.069634
  22 C :   -0.085621
  23 C :   -0.055327
  24 C :    0.211943
  25 C :    0.113768
  26 C :   -0.072162
  27 C :    0.231738
  28 C :   -0.047214
  29 C :   -0.189558
  30 C :    0.230252
  31 C :    0.202492
  32 C :   -0.065370
  33 C :   -0.089474
  34 C :   -0.049922
  35 C :    0.194343
  36 C :    0.116667
  37 C :   -0.067807
  38 C :    0.239977
  39 C :   -0.063107
  40 C :   -0.194282
  41 C :    0.218443
  42 C :    0.207048
  43 C :   -0.074941
  44 C :   -0.088720
  45 C :   -0.047561
  46 C :    0.197645
  47 C :    0.115791
  48 C :   -0.078221
  49 C :    0.219272
  50 C :   -0.057441
  51 C :   -0.189970
  52 H :    0.063296
  53 H :   -0.012290
  54 H :    0.050066
  55 H :    0.061505
  56 H :    0.067329
  57 H :    0.062918
  58 H :    0.062252
  59 H :   -0.019669
  60 H :    0.052014
  61 H :    0.174128
  62 H :    0.171244
  63 H :    0.056447
  64 H :   -0.025762
  65 H :    0.045267
  66 H :    0.057672
  67 H :    0.062270
  68 H :    0.057988
  69 H :    0.059635
  70 H :   -0.021492
  71 H :    0.048698
  72 H :    0.049407
  73 H :   -0.016536
  74 H :    0.040329
  75 H :    0.048295
  76 H :    0.056116
  77 H :    0.053647
  78 H :    0.052831
  79 H :   -0.012819
  80 H :    0.040370
  81 H :    0.053020
  82 H :   -0.023545
  83 H :    0.043409
  84 H :    0.052291
  85 H :    0.057787
  86 H :    0.056635
  87 H :    0.056267
  88 H :   -0.025657
  89 H :    0.043657
Sum of atomic charges:   -0.0000000

LOEWDIN ATOMIC CHARGES
----------------------
   0 C :    0.008704
   1 N :    0.154254
   2 C :   -0.100758
   3 N :    0.175224
   4 C :    0.058921
   5 N :   -0.141398
   6 C :   -0.017422
   7 N :    0.177476
   8 C :    0.008085
   9 N :   -0.138532
  10 C :    0.032592
  11 N :    0.144618
  12 C :   -0.099608
  13 N :    0.131316
  14 C :   -0.051277
  15 N :    0.138120
  16 C :   -0.036189
  17 C :   -0.018912
  18 C :   -0.112274
  19 C :   -0.088768
  20 C :   -0.004240
  21 C :   -0.102080
  22 C :    0.043634
  23 C :   -0.024769
  24 C :    0.004209
  25 C :    0.030425
  26 C :   -0.101324
  27 C :   -0.080849
  28 C :   -0.018022
  29 C :   -0.111145
  30 C :   -0.053204
  31 C :   -0.008821
  32 C :   -0.099913
  33 C :    0.023124
  34 C :   -0.022141
  35 C :   -0.015933
  36 C :    0.027256
  37 C :   -0.103885
  38 C :   -0.036634
  39 C :   -0.028768
  40 C :   -0.110255
  41 C :   -0.094590
  42 C :   -0.002408
  43 C :   -0.108248
  44 C :    0.033953
  45 C :   -0.019325
  46 C :   -0.010560
  47 C :    0.029080
  48 C :   -0.109465
  49 C :   -0.099764
  50 C :   -0.026126
  51 C :   -0.109106
  52 H :    0.033344
  53 H :    0.005157
  54 H :    0.047181
  55 H :    0.033140
  56 H :    0.030739
  57 H :    0.033290
  58 H :    0.034004
  59 H :    0.002525
  60 H :    0.047801
  61 H :    0.061165
  62 H :    0.059608
  63 H :    0.030789
  64 H :   -0.002174
  65 H :    0.044324
  66 H :    0.030825
  67 H :    0.028304
  68 H :    0.031960
  69 H :    0.031687
  70 H :   -0.000744
  71 H :    0.045945
  72 H :    0.027505
  73 H :    0.003039
  74 H :    0.042289
  75 H :    0.026660
  76 H :    0.025085
  77 H :    0.029446
  78 H :    0.029104
  79 H :    0.004930
  80 H :    0.041601
  81 H :    0.028882
  82 H :   -0.001781
  83 H :    0.043934
  84 H :    0.028536
  85 H :    0.025975
  86 H :    0.030562
  87 H :    0.030944
  88 H :   -0.002938
  89 H :    0.043081

  Mayer bond orders larger than 0.100000
B(  0-C ,  1-N ) :   1.1393 B(  0-C , 17-C ) :   1.6022 B(  0-C , 52-H ) :   0.9686
B(  1-N ,  8-C ) :   1.1381 B(  1-N , 10-C ) :   0.9512 B(  2-C , 12-C ) :   1.5490
B(  2-C , 16-C ) :   1.3070 B(  2-C , 53-H ) :   0.9784 B(  3-N , 14-C ) :   1.1924
B(  3-N , 16-C ) :   1.1982 B(  3-N , 61-H ) :   0.8975 B(  4-C ,  6-C ) :   1.2960
B(  4-C , 17-C ) :   1.2935 B(  4-C , 18-C ) :   1.1931 B(  5-N , 19-C ) :   1.3993
B(  5-N , 27-C ) :   1.4214 B(  6-C ,  8-C ) :   1.6003 B(  6-C , 54-H ) :   0.9711
B(  7-N , 30-C ) :   1.1895 B(  7-N , 38-C ) :   1.2068 B(  7-N , 62-H ) :   0.8993
B(  8-C , 55-H ) :   0.9698 B(  9-N , 41-C ) :   1.4165 B(  9-N , 49-C ) :   1.4093
B( 10-C , 56-H ) :   0.9763 B( 10-C , 57-H ) :   0.9820 B( 10-C , 58-H ) :   0.9826
B( 11-N , 20-C ) :   1.1180 B( 11-N , 24-C ) :   1.1305 B( 11-N , 25-C ) :   0.9581
B( 12-C , 14-C ) :   1.3082 B( 12-C , 59-H ) :   0.9779 B( 13-N , 31-C ) :   1.1090
B( 13-N , 35-C ) :   1.1001 B( 13-N , 36-C ) :   0.9678 B( 14-C , 18-C ) :   1.2215
B( 15-N , 42-C ) :   1.1206 B( 15-N , 46-C ) :   1.1078 B( 15-N , 47-C ) :   0.9630
B( 16-C , 51-C ) :   1.2159 B( 17-C , 60-H ) :   0.9715 B( 18-C , 19-C ) :   1.2466
B( 19-C , 21-C ) :   1.1978 B( 20-C , 28-C ) :   1.6220 B( 20-C , 63-H ) :   0.9704
B( 21-C , 26-C ) :   1.6525 B( 21-C , 64-H ) :   0.9738 B( 22-C , 23-C ) :   1.2761
B( 22-C , 28-C ) :   1.2793 B( 22-C , 29-C ) :   1.2361 B( 23-C , 24-C ) :   1.6208
B( 23-C , 65-H ) :   0.9713 B( 24-C , 66-H ) :   0.9690 B( 25-C , 67-H ) :   0.9763
B( 25-C , 68-H ) :   0.9830 B( 25-C , 69-H ) :   0.9820 B( 26-C , 27-C ) :   1.1986
B( 26-C , 70-H ) :   0.9740 B( 27-C , 29-C ) :   1.2311 B( 28-C , 71-H ) :   0.9712
B( 29-C , 30-C ) :   1.2016 B( 30-C , 32-C ) :   1.3237 B( 31-C , 39-C ) :   1.6493
B( 31-C , 72-H ) :   0.9701 B( 32-C , 37-C ) :   1.5346 B( 32-C , 73-H ) :   0.9775
B( 33-C , 34-C ) :   1.2605 B( 33-C , 39-C ) :   1.2527 B( 33-C , 40-C ) :   1.2851
B( 34-C , 35-C ) :   1.6467 B( 34-C , 74-H ) :   0.9707 B( 35-C , 75-H ) :   0.9702
B( 36-C , 76-H ) :   0.9760 B( 36-C , 77-H ) :   0.9823 B( 36-C , 78-H ) :   0.9834
B( 37-C , 38-C ) :   1.3232 B( 37-C , 79-H ) :   0.9783 B( 38-C , 40-C ) :   1.1991
B( 39-C , 80-H ) :   0.9718 B( 40-C , 41-C ) :   1.2003 B( 41-C , 43-C ) :   1.2301
B( 42-C , 50-C ) :   1.6348 B( 42-C , 81-H ) :   0.9695 B( 43-C , 48-C ) :   1.6211
B( 43-C , 82-H ) :   0.9743 B( 44-C , 45-C ) :   1.2750 B( 44-C , 50-C ) :   1.2625
B( 44-C , 51-C ) :   1.2527 B( 45-C , 46-C ) :   1.6313 B( 45-C , 83-H ) :   0.9708
B( 46-C , 84-H ) :   0.9704 B( 47-C , 85-H ) :   0.9761 B( 47-C , 86-H ) :   0.9827
B( 47-C , 87-H ) :   0.9827 B( 48-C , 49-C ) :   1.2277 B( 48-C , 88-H ) :   0.9733
B( 49-C , 51-C ) :   1.2072 B( 50-C , 89-H ) :   0.9716

MP2 TOTAL ENERGY:    -2130.906760030 Eh
FINAL SINGLE POINT ENERGY     -2130.906760029910

DIPOLE MOMENT
-------------
                                X             Y             Z
Electronic contribution:     -1.76185       1.10815      -0.06076
Nuclear contribution   :      0.03539       0.21047       0.07696
                        -----------------------------------------
Total Dipole Moment    :     -1.72646       1.31862       0.01619
                        -----------------------------------------
Magnitude (a.u.)       :      2.17248
Magnitude (Debye)      :      5.52201

Rotational constants in cm-1:     0.001499     0.001472     0.000762
Rotational constants in MHz :    44.936595    44.140023    22.858275

                             ****ORCA TERMINATED NORMALLY****
TOTAL RUN TIME: 0 days 1 hours 13 minutes 37 seconds 80 msec
