                         Program Version 5.0.4 -  RELEASE  -
|  1> ! PAL2
|  2> ! mp2 cc-pvdz TightSCF  NoKeepInts
|  3>
|  4> %scf
|  5>   MaxCore 2000
|  6> end
|  7> %mp2
|  8>   MaxCore 2000
|  9> end
| 10> * xyz 0 1
| 11>    C       -3.16900         6.41400        -0.50000
| 12>    C        1.47400         4.04100         0.05700
| 13>    C       -2.80200         4.09300         0.04900
| 14>    C       -4.05600         4.09700         0.68000
| 15>    C       -4.81900         5.24700         0.69800
| 16>    C       -5.23100         7.59000         0.12100
| 17>    C        0.13200         4.30700         0.06100
| 18>    C       -0.56900         3.05600         0.04700
| 19>    C        1.64900         2.61800         0.02300
| 20>    C       -2.37200         5.28700        -0.54900
| 21>    N       -4.37200         6.38500         0.11700
| 22>    N        0.38800         2.06700         0.02500
| 23>    N       -2.01000         0.39500        -0.07500
| 24>    N       -0.38800        -2.07400        -0.02700
| 25>    N        2.01000        -0.40100         0.06500
| 26>    C       -1.96000         2.86100         0.02400
| 27>    C       -2.62300         1.61500        -0.01800
| 28>    C       -5.57300        -4.32900         1.06600
| 29>    C       -4.07300         1.47100         0.05600
| 30>    C       -4.10600        -2.75600        -0.02600
| 31>    C       -4.99500        -2.75700        -1.11100
| 32>    C       -6.13200        -3.54200        -1.07600
| 33>    C       -7.65100        -5.11300         0.04000
| 34>    C       -4.32400         0.14100         0.03700
| 35>    C       -3.02500        -0.52000        -0.04800
| 36>    C       -4.42200        -3.56600         1.07500
| 37>    N       -6.40700        -4.31300         0.00100
| 38>    C       -2.86700        -1.92200        -0.04000
| 39>    C       -1.65000        -2.62400        -0.02700
| 40>    C        3.56800        -6.14200        -1.04000
| 41>    C       -1.47600        -4.04900        -0.03400
| 42>    C        2.80300        -4.09900        -0.00800
| 43>    C        3.65700        -4.38400         1.06900
| 44>    C        4.42700        -5.53000         1.05900
| 45>    C        5.24500        -7.58800         0.01400
| 46>    C       -0.13400        -4.31500        -0.02200
| 47>    C        0.56800        -3.06400        -0.02700
| 48>    C        2.77500        -5.01200        -1.07400
| 49>    N        4.37600        -6.39100         0.01700
| 50>    C        1.95900        -2.86900        -0.00900
| 51>    C        2.62100        -1.62200         0.00900
| 52>    C        5.54300         4.33900        -1.13000
| 53>    C        4.07000        -1.47900        -0.09400
| 54>    C        4.10400         2.75100        -0.02100
| 55>    C        5.02700         2.72900         1.03600
| 56>    C        6.16600         3.50900         0.97800
| 57>    C        7.61900         5.15300        -0.11500
| 58>    C        4.32100        -0.14800        -0.09200
| 59>    C        3.02500         0.51400         0.01500
| 60>    C        4.38700         3.58200        -1.11500
| 61>    C        2.86600         1.91600         0.01300
| 62>    N        6.41300         4.29600        -0.09500
| 63>    H       -2.87200         7.36000        -0.93700
| 64>    H        2.27400         4.76600         0.08100
| 65>    H       -4.44700         3.20400         1.15100
| 66>    H       -5.79500         5.29600         1.16400
| 67>    H       -5.91100         7.54400        -0.73300
| 68>    H       -5.79800         7.61400         1.05100
| 69>    H       -4.59600         8.47200         0.04700
| 70>    H       -0.33200         5.28200         0.06900
| 71>    H       -1.40700         5.35200        -1.04000
| 72>    H        0.18200         1.07200         0.00500
| 73>    H       -0.18300        -1.08000        -0.02100
| 74>    H       -5.86400        -4.96200         1.89500
| 75>    H       -4.79400         2.27200         0.13900
| 76>    H       -4.80000        -2.16000        -1.99400
| 77>    H       -6.84100        -3.58200        -1.89300
| 78>    H       -8.42800        -4.53600         0.54600
| 79>    H       -7.95600        -5.33700        -0.98100
| 80>    H       -7.45600        -6.03700         0.58400
| 81>    H       -5.28700        -0.34400         0.10000
| 82>    H       -3.78000        -3.60100         1.94700
| 83>    H        3.58700        -6.86800        -1.84300
| 84>    H       -2.27600        -4.77400        -0.05000
| 85>    H        3.71400        -3.72400         1.92600
| 86>    H        5.09200        -5.79500         1.87100
| 87>    H        6.20500        -7.32900        -0.43900
| 88>    H        5.39300        -7.91700         1.04200
| 89>    H        4.75900        -8.37300        -0.56400
| 90>    H        0.32900        -5.29000        -0.00800
| 91>    H        2.14600        -4.84200        -1.94000
| 92>    H        5.80800         4.98600        -1.95600
| 93>    H        4.78800        -2.28100        -0.18500
| 94>    H        4.86000         2.11400         1.91200
| 95>    H        6.90100         3.53100         1.77200
| 96>    H        7.38300         6.10900         0.35600
| 97>    H        8.41400         4.65200         0.43500
| 98>    H        7.92100         5.31000        -1.15000
| 99>    H        5.28300         0.33600        -0.17900
|100>    H        3.72000         3.63200        -1.96700
|101> *
|102>
|103>                          ****END OF INPUT****

CARTESIAN COORDINATES (ANGSTROEM)
---------------------------------
  C     -3.169000    6.414000   -0.500000
  C      1.474000    4.041000    0.057000
  C     -2.802000    4.093000    0.049000
  C     -4.056000    4.097000    0.680000
  C     -4.819000    5.247000    0.698000
  C     -5.231000    7.590000    0.121000
  C      0.132000    4.307000    0.061000
  C     -0.569000    3.056000    0.047000
  C      1.649000    2.618000    0.023000
  C     -2.372000    5.287000   -0.549000
  N     -4.372000    6.385000    0.117000
  N      0.388000    2.067000    0.025000
  N     -2.010000    0.395000   -0.075000
  N     -0.388000   -2.074000   -0.027000
  N      2.010000   -0.401000    0.065000
  C     -1.960000    2.861000    0.024000
  C     -2.623000    1.615000   -0.018000
  C     -5.573000   -4.329000    1.066000
  C     -4.073000    1.471000    0.056000
  C     -4.106000   -2.756000   -0.026000
  C     -4.995000   -2.757000   -1.111000
  C     -6.132000   -3.542000   -1.076000
  C     -7.651000   -5.113000    0.040000
  C     -4.324000    0.141000    0.037000
  C     -3.025000   -0.520000   -0.048000
  C     -4.422000   -3.566000    1.075000
  N     -6.407000   -4.313000    0.001000
  C     -2.867000   -1.922000   -0.040000
  C     -1.650000   -2.624000   -0.027000
  C      3.568000   -6.142000   -1.040000
  C     -1.476000   -4.049000   -0.034000
  C      2.803000   -4.099000   -0.008000
  C      3.657000   -4.384000    1.069000
  C      4.427000   -5.530000    1.059000
  C      5.245000   -7.588000    0.014000
  C     -0.134000   -4.315000   -0.022000
  C      0.568000   -3.064000   -0.027000
  C      2.775000   -5.012000   -1.074000
  N      4.376000   -6.391000    0.017000
  C      1.959000   -2.869000   -0.009000
  C      2.621000   -1.622000    0.009000
  C      5.543000    4.339000   -1.130000
  C      4.070000   -1.479000   -0.094000
  C      4.104000    2.751000   -0.021000
  C      5.027000    2.729000    1.036000
  C      6.166000    3.509000    0.978000
  C      7.619000    5.153000   -0.115000
  C      4.321000   -0.148000   -0.092000
  C      3.025000    0.514000    0.015000
  C      4.387000    3.582000   -1.115000
  C      2.866000    1.916000    0.013000
  N      6.413000    4.296000   -0.095000
  H     -2.872000    7.360000   -0.937000
  H      2.274000    4.766000    0.081000
  H     -4.447000    3.204000    1.151000
  H     -5.795000    5.296000    1.164000
  H     -5.911000    7.544000   -0.733000
  H     -5.798000    7.614000    1.051000
  H     -4.596000    8.472000    0.047000
  H     -0.332000    5.282000    0.069000
  H     -1.407000    5.352000   -1.040000
  H      0.182000    1.072000    0.005000
  H     -0.183000   -1.080000   -0.021000
  H     -5.864000   -4.962000    1.895000
  H     -4.794000    2.272000    0.139000
  H     -4.800000   -2.160000   -1.994000
  H     -6.841000   -3.582000   -1.893000
  H     -8.428000   -4.536000    0.546000
  H     -7.956000   -5.337000   -0.981000
  H     -7.456000   -6.037000    0.584000
  H     -5.287000   -0.344000    0.100000
  H     -3.780000   -3.601000    1.947000
  H      3.587000   -6.868000   -1.843000
  H     -2.276000   -4.774000   -0.050000
  H      3.714000   -3.724000    1.926000
  H      5.092000   -5.795000    1.871000
  H      6.205000   -7.329000   -0.439000
  H      5.393000   -7.917000    1.042000
  H      4.759000   -8.373000   -0.564000
  H      0.329000   -5.290000   -0.008000
  H      2.146000   -4.842000   -1.940000
  H      5.808000    4.986000   -1.956000
  H      4.788000   -2.281000   -0.185000
  H      4.860000    2.114000    1.912000
  H      6.901000    3.531000    1.772000
  H      7.383000    6.109000    0.356000
  H      8.414000    4.652000    0.435000
  H      7.921000    5.310000   -1.150000
  H      5.283000    0.336000   -0.179000
  H      3.720000    3.632000   -1.967000

 Total Charge           Charge          ....    0
 Multiplicity           Mult            ....    1
 Number of Electrons    NEL             ....  358
 Basis Dimension        Dim             ....  918

ORBITAL ENERGIES
----------------

  NO   OCC          E(Eh)            E(eV)
   0   2.0000     -15.672138      -426.4605
   1   2.0000     -15.634606      -425.4393
   2   2.0000     -15.631051      -425.3425
   3   2.0000     -15.592368      -424.2899
   4   2.0000     -15.524405      -422.4405
   5   2.0000     -15.516270      -422.2192
   6   2.0000     -15.452289      -420.4782
   7   2.0000     -15.441452      -420.1833
   8   2.0000     -11.323220      -308.1205
   9   2.0000     -11.323198      -308.1199
  10   2.0000     -11.321786      -308.0815
  11   2.0000     -11.299721      -307.4810
  12   2.0000     -11.297830      -307.4296
  13   2.0000     -11.293143      -307.3021
  14   2.0000     -11.290068      -307.2184
  15   2.0000     -11.287522      -307.1491
  16   2.0000     -11.286277      -307.1152
  17   2.0000     -11.274875      -306.8050
  18   2.0000     -11.273965      -306.7802
  19   2.0000     -11.258024      -306.3464
  20   2.0000     -11.257674      -306.3369
  21   2.0000     -11.257067      -306.3204
  22   2.0000     -11.255398      -306.2750
  23   2.0000     -11.238260      -305.8086
  24   2.0000     -11.235808      -305.7419
  25   2.0000     -11.231659      -305.6290
  26   2.0000     -11.230850      -305.6070
  27   2.0000     -11.229149      -305.5607
  28   2.0000     -11.229052      -305.5580
  29   2.0000     -11.209308      -305.0208
  30   2.0000     -11.208115      -304.9883
  31   2.0000     -11.201292      -304.8027
  32   2.0000     -11.194435      -304.6160
  33   2.0000     -11.192056      -304.5513
  34   2.0000     -11.190508      -304.5092
  35   2.0000     -11.189490      -304.4815
  36   2.0000     -11.188186      -304.4460
  37   2.0000     -11.185477      -304.3723
  38   2.0000     -11.184378      -304.3424
  39   2.0000     -11.172437      -304.0175
  40   2.0000     -11.171958      -304.0044
  41   2.0000     -11.170239      -303.9576
  42   2.0000     -11.166838      -303.8651
  43   2.0000     -11.161557      -303.7214
  44   2.0000     -11.159382      -303.6622
  45   2.0000     -11.158616      -303.6414
  46   2.0000     -11.158016      -303.6251
  47   2.0000     -11.154064      -303.5175
  48   2.0000     -11.148546      -303.3674
  49   2.0000     -11.140593      -303.1509
  50   2.0000     -11.132720      -302.9367
  51   2.0000     -11.123429      -302.6839
  52   2.0000      -1.353879       -36.8409
  53   2.0000      -1.321771       -35.9672
  54   2.0000      -1.318919       -35.8896
  55   2.0000      -1.286036       -34.9948
  56   2.0000      -1.224877       -33.3306
  57   2.0000      -1.210786       -32.9472
  58   2.0000      -1.171162       -31.8689
  59   2.0000      -1.152333       -31.3566
  60   2.0000      -1.138210       -30.9723
  61   2.0000      -1.110635       -30.2219
  62   2.0000      -1.108401       -30.1611
  63   2.0000      -1.081870       -29.4392
  64   2.0000      -1.076047       -29.2807
  65   2.0000      -1.045926       -28.4611
  66   2.0000      -1.043624       -28.3985
  67   2.0000      -1.037506       -28.2320
  68   2.0000      -1.014831       -27.6150
  69   2.0000      -1.014269       -27.5997
  70   2.0000      -1.009795       -27.4779
  71   2.0000      -0.992493       -27.0071
  72   2.0000      -0.987144       -26.8616
  73   2.0000      -0.979302       -26.6482
  74   2.0000      -0.972502       -26.4631
  75   2.0000      -0.960714       -26.1423
  76   2.0000      -0.952922       -25.9303
  77   2.0000      -0.946730       -25.7618
  78   2.0000      -0.935203       -25.4482
  79   2.0000      -0.919686       -25.0259
  80   2.0000      -0.905197       -24.6317
  81   2.0000      -0.893369       -24.3098
  82   2.0000      -0.874394       -23.7935
  83   2.0000      -0.871689       -23.7199
  84   2.0000      -0.868489       -23.6328
  85   2.0000      -0.856594       -23.3091
  86   2.0000      -0.841787       -22.9062
  87   2.0000      -0.836273       -22.7561
  88   2.0000      -0.823902       -22.4195
  89   2.0000      -0.798027       -21.7154
  90   2.0000      -0.792243       -21.5580
  91   2.0000      -0.749425       -20.3929
  92   2.0000      -0.741554       -20.1787
  93   2.0000      -0.732531       -19.9332
  94   2.0000      -0.723735       -19.6938
  95   2.0000      -0.721605       -19.6359
  96   2.0000      -0.715391       -19.4668
  97   2.0000      -0.710269       -19.3274
  98   2.0000      -0.706164       -19.2157
  99   2.0000      -0.696230       -18.9454
 100   2.0000      -0.696067       -18.9409
 101   2.0000      -0.684066       -18.6144
 102   2.0000      -0.679495       -18.4900
 103   2.0000      -0.678940       -18.4749
 104   2.0000      -0.678004       -18.4494
 105   2.0000      -0.673005       -18.3134
 106   2.0000      -0.668663       -18.1952
 107   2.0000      -0.661024       -17.9874
 108   2.0000      -0.655817       -17.8457
 109   2.0000      -0.653574       -17.7847
 110   2.0000      -0.650663       -17.7054
 111   2.0000      -0.643286       -17.5047
 112   2.0000      -0.640971       -17.4417
 113   2.0000      -0.640374       -17.4254
 114   2.0000      -0.637911       -17.3584
 115   2.0000      -0.627388       -17.0721
 116   2.0000      -0.625458       -17.0196
 117   2.0000      -0.618458       -16.8291
 118   2.0000      -0.612925       -16.6785
 119   2.0000      -0.612136       -16.6571
 120   2.0000      -0.610840       -16.6218
 121   2.0000      -0.606557       -16.5053
 122   2.0000      -0.600567       -16.3423
 123   2.0000      -0.586642       -15.9633
 124   2.0000      -0.582277       -15.8446
 125   2.0000      -0.580586       -15.7985
 126   2.0000      -0.579530       -15.7698
 127   2.0000      -0.576300       -15.6819
 128   2.0000      -0.566505       -15.4154
 129   2.0000      -0.559079       -15.2133
 130   2.0000      -0.551753       -15.0140
 131   2.0000      -0.547769       -14.9055
 132   2.0000      -0.542272       -14.7560
 133   2.0000      -0.539925       -14.6921
 134   2.0000      -0.538138       -14.6435
 135   2.0000      -0.535586       -14.5740
 136   2.0000      -0.527545       -14.3552
 137   2.0000      -0.523204       -14.2371
 138   2.0000      -0.516677       -14.0595
 139   2.0000      -0.513738       -13.9795
 140   2.0000      -0.512651       -13.9499
 141   2.0000      -0.511414       -13.9163
 142   2.0000      -0.508998       -13.8506
 143   2.0000      -0.503748       -13.7077
 144   2.0000      -0.501539       -13.6476
 145   2.0000      -0.497214       -13.5299
 146   2.0000      -0.493333       -13.4243
 147   2.0000      -0.484289       -13.1782
 148   2.0000      -0.480451       -13.0737
 149   2.0000      -0.466881       -12.7045
 150   2.0000      -0.465800       -12.6751
 151   2.0000      -0.457177       -12.4404
 152   2.0000      -0.450300       -12.2533
 153   2.0000      -0.445384       -12.1195
 154   2.0000      -0.441954       -12.0262
 155   2.0000      -0.434076       -11.8118
 156   2.0000      -0.429208       -11.6793
 157   2.0000      -0.417336       -11.3563
 158   2.0000      -0.404035       -10.9944
 159   2.0000      -0.388214       -10.5638
 160   2.0000      -0.382668       -10.4129
 161   2.0000      -0.378349       -10.2954
 162   2.0000      -0.370052       -10.0696
 163   2.0000      -0.357048        -9.7158
 164   2.0000      -0.355296        -9.6681
 165   2.0000      -0.340203        -9.2574
 166   2.0000      -0.337428        -9.1819
 167   2.0000      -0.326586        -8.8869
 168   2.0000      -0.325629        -8.8608
 169   2.0000      -0.303661        -8.2630
 170   2.0000      -0.299784        -8.1575
 171   2.0000      -0.286177        -7.7873
 172   2.0000      -0.282379        -7.6839
 173   2.0000      -0.262471        -7.1422
 174   2.0000      -0.243166        -6.6169
 175   2.0000      -0.189809        -5.1650
 176   2.0000      -0.180164        -4.9025
 177   2.0000      -0.075181        -2.0458
 178   2.0000      -0.058221        -1.5843
 179   0.0000       0.028591         0.7780
 180   0.0000       0.066606         1.8124
 181   0.0000       0.091365         2.4862
 182   0.0000       0.109240         2.9726
 183   0.0000       0.111249         3.0272

MULLIKEN ATOMIC CHARGES
-----------------------
   0 C :    0.209224
   1 N :   -0.455030
   2 C :   -0.065046
   3 N :   -0.336971
   4 C :   -0.048307
   5 N :   -0.564124
   6 C :   -0.107597
   7 N :   -0.340089
   8 C :    0.205950
   9 N :   -0.562355
  10 C :    0.118991
  11 N :   -0.438324
  12 C :   -0.082455
  13 N :   -0.431239
  14 C :    0.234373
  15 N :   -0.441033
  16 C :    0.228121
  17 C :   -0.119876
  18 C :   -0.196633
  19 C :    0.226949
  20 C :    0.212597
  21 C :   -0.093568
  22 C :   -0.091013
  23 C :   -0.040799
  24 C :    0.195264
  25 C :    0.114521
  26 C :   -0.080524
  27 C :    0.213283
  28 C :   -0.060460
  29 C :   -0.180489
  30 C :    0.244610
  31 C :    0.227076
  32 C :   -0.062309
  33 C :   -0.063925
  34 C :   -0.050862
  35 C :    0.224208
  36 C :    0.109230
  37 C :   -0.064693
  38 C :    0.232173
  39 C :   -0.058327
  40 C :   -0.182482
  41 C :    0.225188
  42 C :    0.198120
  43 C :   -0.072436
  44 C :   -0.089646
  45 C :   -0.060032
  46 C :    0.210257
  47 C :    0.115423
  48 C :   -0.068037
  49 C :    0.237035
  50 C :   -0.047474
  51 C :   -0.191439
  52 H :    0.040282
  53 H :   -0.016471
  54 H :    0.052685
  55 H :    0.039324
  56 H :    0.050038
  57 H :    0.048623
  58 H :    0.047838
  59 H :    0.001237
  60 H :    0.048659
  61 H :    0.171331
  62 H :    0.175071
  63 H :    0.055347
  64 H :   -0.008378
  65 H :    0.047340
  66 H :    0.055987
  67 H :    0.062345
  68 H :    0.057376
  69 H :    0.056654
  70 H :   -0.029005
  71 H :    0.045012
  72 H :    0.068920
  73 H :   -0.008785
  74 H :    0.058166
  75 H :    0.068263
  76 H :    0.072802
  77 H :    0.066383
  78 H :    0.065669
  79 H :   -0.016091
  80 H :    0.059007
  81 H :    0.054036
  82 H :   -0.024560
  83 H :    0.042117
  84 H :    0.054046
  85 H :    0.060612
  86 H :    0.055645
  87 H :    0.057033
  88 H :   -0.015412
  89 H :    0.045856
Sum of atomic charges:    0.0000000

LOEWDIN ATOMIC CHARGES
----------------------
   0 C :   -0.019876
   1 N :    0.117657
   2 C :   -0.101224
   3 N :    0.183318
   4 C :   -0.005870
   5 N :   -0.132970
   6 C :   -0.036755
   7 N :    0.175853
   8 C :   -0.022181
   9 N :   -0.140309
  10 C :    0.024272
  11 N :    0.142186
  12 C :   -0.113790
  13 N :    0.162108
  14 C :   -0.029011
  15 N :    0.138609
  16 C :   -0.058333
  17 C :   -0.044559
  18 C :   -0.103201
  19 C :   -0.082130
  20 C :    0.003868
  21 C :   -0.121617
  22 C :    0.036983
  23 C :   -0.015234
  24 C :   -0.011078
  25 C :    0.029872
  26 C :   -0.107492
  27 C :   -0.113956
  28 C :   -0.026779
  29 C :   -0.100798
  30 C :   -0.032140
  31 C :    0.020633
  32 C :   -0.095132
  33 C :    0.074869
  34 C :   -0.015803
  35 C :    0.018397
  36 C :    0.034317
  37 C :   -0.095281
  38 C :   -0.050436
  39 C :   -0.018834
  40 C :   -0.108281
  41 C :   -0.091681
  42 C :   -0.009890
  43 C :   -0.099978
  44 C :    0.033077
  45 C :   -0.027230
  46 C :    0.000741
  47 C :    0.029452
  48 C :   -0.096144
  49 C :   -0.072459
  50 C :   -0.019680
  51 C :   -0.108545
  52 H :    0.023967
  53 H :    0.003150
  54 H :    0.041309
  55 H :    0.023830
  56 H :    0.022090
  57 H :    0.026708
  58 H :    0.027227
  59 H :    0.010466
  60 H :    0.039842
  61 H :    0.060109
  62 H :    0.061647
  63 H :    0.030715
  64 H :    0.005745
  65 H :    0.045910
  66 H :    0.029449
  67 H :    0.028195
  68 H :    0.031690
  69 H :    0.030414
  70 H :   -0.004157
  71 H :    0.043616
  72 H :    0.036590
  73 H :    0.006744
  74 H :    0.049744
  75 H :    0.036179
  76 H :    0.033700
  77 H :    0.035425
  78 H :    0.035107
  79 H :    0.003207
  80 H :    0.049730
  81 H :    0.028963
  82 H :   -0.002565
  83 H :    0.042665
  84 H :    0.029778
  85 H :    0.027256
  86 H :    0.030218
  87 H :    0.031321
  88 H :    0.001941
  89 H :    0.044536

  Mayer bond orders larger than 0.100000
B(  0-C ,  1-N ) :   1.0950 B(  0-C , 17-C ) :   1.6977 B(  0-C , 52-H ) :   0.9673
B(  1-N ,  8-C ) :   1.0873 B(  1-N , 10-C ) :   0.9765 B(  2-C , 12-C ) :   1.5093
B(  2-C , 16-C ) :   1.3542 B(  2-C , 53-H ) :   0.9754 B(  3-N , 14-C ) :   1.2182
B(  3-N , 16-C ) :   1.1901 B(  3-N , 61-H ) :   0.8990 B(  4-C ,  6-C ) :   1.2138
B(  4-C , 17-C ) :   1.2159 B(  4-C , 18-C ) :   1.4277 B(  5-N , 19-C ) :   1.4500
B(  5-N , 27-C ) :   1.3806 B(  6-C ,  8-C ) :   1.7055 B(  6-C , 54-H ) :   0.9542
B(  7-N , 30-C ) :   1.1957 B(  7-N , 38-C ) :   1.1917 B(  7-N , 62-H ) :   0.8970
B(  8-C , 55-H ) :   0.9672 B(  9-N , 41-C ) :   1.3959 B(  9-N , 49-C ) :   1.4243
B( 10-C , 56-H ) :   0.9770 B( 10-C , 57-H ) :   0.9821 B( 10-C , 58-H ) :   0.9843
B( 11-N , 20-C ) :   1.1299 B( 11-N , 24-C ) :   1.1089 B( 11-N , 25-C ) :   0.9600
B( 12-C , 14-C ) :   1.3541 B( 12-C , 59-H ) :   0.9732 B( 13-N , 31-C ) :   1.1550
B( 13-N , 35-C ) :   1.1524 B( 13-N , 36-C ) :   0.9444 B( 14-C , 18-C ) :   1.1340
B( 15-N , 42-C ) :   1.1087 B( 15-N , 46-C ) :   1.1224 B( 15-N , 47-C ) :   0.9615
B( 16-C , 51-C ) :   1.1736 B( 17-C , 60-H ) :   0.9585 B( 18-C , 19-C ) :   1.1391
B( 19-C , 21-C ) :   1.2438 B( 20-C , 28-C ) :   1.6281 B( 20-C , 63-H ) :   0.9703
B( 21-C , 26-C ) :   1.6084 B( 21-C , 64-H ) :   0.9673 B( 22-C , 23-C ) :   1.2886
B( 22-C , 28-C ) :   1.2652 B( 22-C , 29-C ) :   1.2243 B( 23-C , 24-C ) :   1.6200
B( 23-C , 65-H ) :   0.9704 B( 24-C , 66-H ) :   0.9695 B( 25-C , 67-H ) :   0.9760
B( 25-C , 68-H ) :   0.9828 B( 25-C , 69-H ) :   0.9823 B( 26-C , 27-C ) :   1.2404
B( 26-C , 70-H ) :   0.9708 B( 27-C , 29-C ) :   1.2140 B( 28-C , 71-H ) :   0.9719
B( 29-C , 30-C ) :   1.2388 B( 30-C , 32-C ) :   1.2855 B( 31-C , 39-C ) :   1.5952
B( 31-C , 72-H ) :   0.9684 B( 32-C , 37-C ) :   1.5732 B( 32-C , 73-H ) :   0.9785
B( 33-C , 34-C ) :   1.3019 B( 33-C , 39-C ) :   1.2978 B( 33-C , 40-C ) :   1.1881
B( 34-C , 35-C ) :   1.5924 B( 34-C , 74-H ) :   0.9698 B( 35-C , 75-H ) :   0.9684
B( 36-C , 76-H ) :   0.9767 B( 36-C , 77-H ) :   0.9817 B( 36-C , 78-H ) :   0.9825
B( 37-C , 38-C ) :   1.2902 B( 37-C , 79-H ) :   0.9767 B( 38-C , 40-C ) :   1.2289
B( 39-C , 80-H ) :   0.9707 B( 40-C , 41-C ) :   1.2460 B( 41-C , 43-C ) :   1.1889
B( 42-C , 50-C ) :   1.6334 B( 42-C , 81-H ) :   0.9697 B( 43-C , 48-C ) :   1.6636
B( 43-C , 82-H ) :   0.9724 B( 44-C , 45-C ) :   1.2644 B( 44-C , 50-C ) :   1.2714
B( 44-C , 51-C ) :   1.2600 B( 45-C , 46-C ) :   1.6347 B( 45-C , 83-H ) :   0.9717
B( 46-C , 84-H ) :   0.9700 B( 47-C , 85-H ) :   0.9762 B( 47-C , 86-H ) :   0.9829
B( 47-C , 87-H ) :   0.9825 B( 48-C , 49-C ) :   1.1921 B( 48-C , 88-H ) :   0.9747
B( 49-C , 51-C ) :   1.2394 B( 50-C , 89-H ) :   0.9710

MP2 TOTAL ENERGY:    -2130.885959928 Eh
FINAL SINGLE POINT ENERGY     -2130.885959928235

DIPOLE MOMENT
-------------
                                X             Y             Z
Electronic contribution:      2.35932      -3.70594      -0.11350
Nuclear contribution   :     -0.04944       0.15257       0.13586
                        -----------------------------------------
Total Dipole Moment    :      2.30988      -3.55337       0.02237
                        -----------------------------------------
Magnitude (a.u.)       :      4.23822
Magnitude (Debye)      :     10.77269

Rotational constants in cm-1:     0.001502     0.001477     0.000761
Rotational constants in MHz :    45.021509    44.266576    22.803087

                             ****ORCA TERMINATED NORMALLY****
TOTAL RUN TIME: 0 days 1 hours 19 minutes 16 seconds 41 msec
