                         Program Version 5.0.4 -  RELEASE  -
|  1> ! PAL2
|  2> ! mp2 cc-pvdz TightSCF  NoKeepInts
|  3>
|  4> %scf
|  5>   MaxCore 2000
|  6> end
|  7> %mp2
|  8>   MaxCore 2000
|  9> end
| 10> * xyz 0 1
| 11>    C       -3.09600         6.46100        -0.31600
| 12>    C        1.47400         4.04100         0.05700
| 13>    C       -2.80200         4.09300         0.04900
| 14>    C       -4.13300         4.04800         0.49100
| 15>    C       -4.89600         5.19800         0.51200
| 16>    C       -5.23100         7.59000         0.11500
| 17>    C        0.13200         4.30700         0.06100
| 18>    C       -0.56900         3.05600         0.04700
| 19>    C        1.64900         2.61800         0.02300
| 20>    C       -2.29500         5.33600        -0.36100
| 21>    N       -4.37500         6.38200         0.11600
| 22>    N        0.38800         2.06700         0.02500
| 23>    N       -2.01000         0.39500        -0.07500
| 24>    N       -0.38800        -2.07400        -0.02700
| 25>    N        2.01000        -0.40100         0.06500
| 26>    C       -1.96000         2.86100         0.02400
| 27>    C       -2.62300         1.61500        -0.01800
| 28>    C       -5.57300        -4.32900         1.06600
| 29>    C       -4.07300         1.47100         0.05600
| 30>    C       -4.10600        -2.75600        -0.02600
| 31>    C       -4.99500        -2.75700        -1.11100
| 32>    C       -6.13200        -3.54200        -1.07600
| 33>    C       -7.65100        -5.11300         0.04000
| 34>    C       -4.32400         0.14100         0.03700
| 35>    C       -3.02500        -0.52000        -0.04800
| 36>    C       -4.42200        -3.56600         1.07500
| 37>    N       -6.40700        -4.31300         0.00100
| 38>    C       -2.86700        -1.92200        -0.04000
| 39>    C       -1.65000        -2.62400        -0.02700
| 40>    C        3.56800        -6.14200        -1.04000
| 41>    C       -1.47600        -4.04900        -0.03400
| 42>    C        2.80300        -4.09900        -0.00800
| 43>    C        3.65700        -4.38400         1.06900
| 44>    C        4.42700        -5.53000         1.05900
| 45>    C        5.24500        -7.58800         0.01400
| 46>    C       -0.13400        -4.31500        -0.02200
| 47>    C        0.56800        -3.06400        -0.02700
| 48>    C        2.77500        -5.01200        -1.07400
| 49>    N        4.37600        -6.39100         0.01700
| 50>    C        1.95900        -2.86900        -0.00900
| 51>    C        2.62100        -1.62200         0.00900
| 52>    C        5.54300         4.33900        -1.13000
| 53>    C        4.07000        -1.47900        -0.09400
| 54>    C        4.10400         2.75100        -0.02100
| 55>    C        5.02700         2.72900         1.03600
| 56>    C        6.16600         3.50900         0.97800
| 57>    C        7.61900         5.15300        -0.11500
| 58>    C        4.32100        -0.14800        -0.09200
| 59>    C        3.02500         0.51400         0.01500
| 60>    C        4.38700         3.58200        -1.11500
| 61>    C        2.86600         1.91600         0.01300
| 62>    N        6.41300         4.29600        -0.09500
| 63>    H       -2.74300         7.44100        -0.61000
| 64>    H        2.27400         4.76600         0.08100
| 65>    H       -4.58500         3.11600         0.81000
| 66>    H       -5.92900         5.21100         0.83500
| 67>    H       -5.78000         7.63600        -0.82800
| 68>    H       -5.92600         7.52800         0.95200
| 69>    H       -4.59600         8.46900         0.22100
| 70>    H       -0.33200         5.28200         0.06900
| 71>    H       -1.27000         5.43900        -0.69800
| 72>    H        0.18200         1.07200         0.00500
| 73>    H       -0.18300        -1.08000        -0.02100
| 74>    H       -5.86400        -4.96200         1.89500
| 75>    H       -4.79400         2.27200         0.13900
| 76>    H       -4.80000        -2.16000        -1.99400
| 77>    H       -6.84100        -3.58200        -1.89300
| 78>    H       -8.42800        -4.53600         0.54600
| 79>    H       -7.95600        -5.33700        -0.98100
| 80>    H       -7.45600        -6.03700         0.58400
| 81>    H       -5.28700        -0.34400         0.10000
| 82>    H       -3.78000        -3.60100         1.94700
| 83>    H        3.58700        -6.86800        -1.84300
| 84>    H       -2.27600        -4.77400        -0.05000
| 85>    H        3.71400        -3.72400         1.92600
| 86>    H        5.09200        -5.79500         1.87100
| 87>    H        6.20500        -7.32900        -0.43900
| 88>    H        5.39300        -7.91700         1.04200
| 89>    H        4.75900        -8.37300        -0.56400
| 90>    H        0.32900        -5.29000        -0.00800
| 91>    H        2.14600        -4.84200        -1.94000
| 92>    H        5.80800         4.98600        -1.95600
| 93>    H        4.78800        -2.28100        -0.18500
| 94>    H        4.86000         2.11400         1.91200
| 95>    H        6.90100         3.53100         1.77200
| 96>    H        7.38300         6.10900         0.35600
| 97>    H        8.41400         4.65200         0.43500
| 98>    H        7.92100         5.31000        -1.15000
| 99>    H        5.28300         0.33600        -0.17900
|100>    H        3.72000         3.63200        -1.96700
|101> *
|102>
|103>                          ****END OF INPUT****

CARTESIAN COORDINATES (ANGSTROEM)
---------------------------------
  C     -3.096000    6.461000   -0.316000
  C      1.474000    4.041000    0.057000
  C     -2.802000    4.093000    0.049000
  C     -4.133000    4.048000    0.491000
  C     -4.896000    5.198000    0.512000
  C     -5.231000    7.590000    0.115000
  C      0.132000    4.307000    0.061000
  C     -0.569000    3.056000    0.047000
  C      1.649000    2.618000    0.023000
  C     -2.295000    5.336000   -0.361000
  N     -4.375000    6.382000    0.116000
  N      0.388000    2.067000    0.025000
  N     -2.010000    0.395000   -0.075000
  N     -0.388000   -2.074000   -0.027000
  N      2.010000   -0.401000    0.065000
  C     -1.960000    2.861000    0.024000
  C     -2.623000    1.615000   -0.018000
  C     -5.573000   -4.329000    1.066000
  C     -4.073000    1.471000    0.056000
  C     -4.106000   -2.756000   -0.026000
  C     -4.995000   -2.757000   -1.111000
  C     -6.132000   -3.542000   -1.076000
  C     -7.651000   -5.113000    0.040000
  C     -4.324000    0.141000    0.037000
  C     -3.025000   -0.520000   -0.048000
  C     -4.422000   -3.566000    1.075000
  N     -6.407000   -4.313000    0.001000
  C     -2.867000   -1.922000   -0.040000
  C     -1.650000   -2.624000   -0.027000
  C      3.568000   -6.142000   -1.040000
  C     -1.476000   -4.049000   -0.034000
  C      2.803000   -4.099000   -0.008000
  C      3.657000   -4.384000    1.069000
  C      4.427000   -5.530000    1.059000
  C      5.245000   -7.588000    0.014000
  C     -0.134000   -4.315000   -0.022000
  C      0.568000   -3.064000   -0.027000
  C      2.775000   -5.012000   -1.074000
  N      4.376000   -6.391000    0.017000
  C      1.959000   -2.869000   -0.009000
  C      2.621000   -1.622000    0.009000
  C      5.543000    4.339000   -1.130000
  C      4.070000   -1.479000   -0.094000
  C      4.104000    2.751000   -0.021000
  C      5.027000    2.729000    1.036000
  C      6.166000    3.509000    0.978000
  C      7.619000    5.153000   -0.115000
  C      4.321000   -0.148000   -0.092000
  C      3.025000    0.514000    0.015000
  C      4.387000    3.582000   -1.115000
  C      2.866000    1.916000    0.013000
  N      6.413000    4.296000   -0.095000
  H     -2.743000    7.441000   -0.610000
  H      2.274000    4.766000    0.081000
  H     -4.585000    3.116000    0.810000
  H     -5.929000    5.211000    0.835000
  H     -5.780000    7.636000   -0.828000
  H     -5.926000    7.528000    0.952000
  H     -4.596000    8.469000    0.221000
  H     -0.332000    5.282000    0.069000
  H     -1.270000    5.439000   -0.698000
  H      0.182000    1.072000    0.005000
  H     -0.183000   -1.080000   -0.021000
  H     -5.864000   -4.962000    1.895000
  H     -4.794000    2.272000    0.139000
  H     -4.800000   -2.160000   -1.994000
  H     -6.841000   -3.582000   -1.893000
  H     -8.428000   -4.536000    0.546000
  H     -7.956000   -5.337000   -0.981000
  H     -7.456000   -6.037000    0.584000
  H     -5.287000   -0.344000    0.100000
  H     -3.780000   -3.601000    1.947000
  H      3.587000   -6.868000   -1.843000
  H     -2.276000   -4.774000   -0.050000
  H      3.714000   -3.724000    1.926000
  H      5.092000   -5.795000    1.871000
  H      6.205000   -7.329000   -0.439000
  H      5.393000   -7.917000    1.042000
  H      4.759000   -8.373000   -0.564000
  H      0.329000   -5.290000   -0.008000
  H      2.146000   -4.842000   -1.940000
  H      5.808000    4.986000   -1.956000
  H      4.788000   -2.281000   -0.185000
  H      4.860000    2.114000    1.912000
  H      6.901000    3.531000    1.772000
  H      7.383000    6.109000    0.356000
  H      8.414000    4.652000    0.435000
  H      7.921000    5.310000   -1.150000
  H      5.283000    0.336000   -0.179000
  H      3.720000    3.632000   -1.967000

 Total Charge           Charge          ....    0
 Multiplicity           Mult            ....    1
 Number of Electrons    NEL             ....  358
 Basis Dimension        Dim             ....  918

ORBITAL ENERGIES
----------------

  NO   OCC          E(Eh)            E(eV)
   0   2.0000     -15.677581      -426.6087
   1   2.0000     -15.633386      -425.4060
   2   2.0000     -15.632112      -425.3714
   3   2.0000     -15.589314      -424.2068
   4   2.0000     -15.524820      -422.4518
   5   2.0000     -15.515890      -422.2088
   6   2.0000     -15.453582      -420.5134
   7   2.0000     -15.440135      -420.1474
   8   2.0000     -11.327560      -308.2386
   9   2.0000     -11.326574      -308.2117
  10   2.0000     -11.326539      -308.2108
  11   2.0000     -11.298959      -307.4603
  12   2.0000     -11.298530      -307.4486
  13   2.0000     -11.292409      -307.2821
  14   2.0000     -11.291311      -307.2522
  15   2.0000     -11.286914      -307.1325
  16   2.0000     -11.286154      -307.1119
  17   2.0000     -11.279976      -306.9438
  18   2.0000     -11.271330      -306.7085
  19   2.0000     -11.261841      -306.4503
  20   2.0000     -11.260854      -306.4234
  21   2.0000     -11.253961      -306.2358
  22   2.0000     -11.251043      -306.1564
  23   2.0000     -11.237138      -305.7781
  24   2.0000     -11.236864      -305.7706
  25   2.0000     -11.230727      -305.6036
  26   2.0000     -11.229966      -305.5829
  27   2.0000     -11.229925      -305.5818
  28   2.0000     -11.229839      -305.5794
  29   2.0000     -11.210350      -305.0491
  30   2.0000     -11.209081      -305.0146
  31   2.0000     -11.196473      -304.6715
  32   2.0000     -11.190723      -304.5151
  33   2.0000     -11.190626      -304.5124
  34   2.0000     -11.188694      -304.4598
  35   2.0000     -11.187867      -304.4373
  36   2.0000     -11.186555      -304.4016
  37   2.0000     -11.184869      -304.3558
  38   2.0000     -11.180563      -304.2386
  39   2.0000     -11.173800      -304.0546
  40   2.0000     -11.171795      -304.0000
  41   2.0000     -11.170965      -303.9774
  42   2.0000     -11.167653      -303.8873
  43   2.0000     -11.161214      -303.7121
  44   2.0000     -11.160259      -303.6861
  45   2.0000     -11.157160      -303.6017
  46   2.0000     -11.156248      -303.5769
  47   2.0000     -11.154753      -303.5363
  48   2.0000     -11.147545      -303.3401
  49   2.0000     -11.136881      -303.0499
  50   2.0000     -11.130053      -302.8642
  51   2.0000     -11.118304      -302.5444
  52   2.0000      -1.358506       -36.9668
  53   2.0000      -1.320717       -35.9385
  54   2.0000      -1.319855       -35.9151
  55   2.0000      -1.282567       -34.9004
  56   2.0000      -1.225691       -33.3527
  57   2.0000      -1.210423       -32.9373
  58   2.0000      -1.173023       -31.9196
  59   2.0000      -1.150889       -31.3173
  60   2.0000      -1.142111       -31.0784
  61   2.0000      -1.110112       -30.2077
  62   2.0000      -1.108869       -30.1739
  63   2.0000      -1.080340       -29.3975
  64   2.0000      -1.078643       -29.3514
  65   2.0000      -1.044925       -28.4338
  66   2.0000      -1.044511       -28.4226
  67   2.0000      -1.040079       -28.3020
  68   2.0000      -1.014733       -27.6123
  69   2.0000      -1.013159       -27.5695
  70   2.0000      -1.009324       -27.4651
  71   2.0000      -0.993056       -27.0224
  72   2.0000      -0.986191       -26.8356
  73   2.0000      -0.980951       -26.6930
  74   2.0000      -0.972491       -26.4628
  75   2.0000      -0.961757       -26.1707
  76   2.0000      -0.954209       -25.9653
  77   2.0000      -0.945874       -25.7386
  78   2.0000      -0.935856       -25.4659
  79   2.0000      -0.918032       -24.9809
  80   2.0000      -0.908926       -24.7331
  81   2.0000      -0.895381       -24.3646
  82   2.0000      -0.875628       -23.8271
  83   2.0000      -0.871690       -23.7199
  84   2.0000      -0.870236       -23.6803
  85   2.0000      -0.858264       -23.3545
  86   2.0000      -0.842008       -22.9122
  87   2.0000      -0.835446       -22.7336
  88   2.0000      -0.825761       -22.4701
  89   2.0000      -0.797169       -21.6921
  90   2.0000      -0.790201       -21.5025
  91   2.0000      -0.753940       -20.5157
  92   2.0000      -0.749709       -20.4006
  93   2.0000      -0.733163       -19.9504
  94   2.0000      -0.725674       -19.7466
  95   2.0000      -0.722440       -19.6586
  96   2.0000      -0.717450       -19.5228
  97   2.0000      -0.714395       -19.4397
  98   2.0000      -0.710220       -19.3261
  99   2.0000      -0.697551       -18.9813
 100   2.0000      -0.696507       -18.9529
 101   2.0000      -0.688207       -18.7271
 102   2.0000      -0.683874       -18.6092
 103   2.0000      -0.682884       -18.5822
 104   2.0000      -0.678335       -18.4584
 105   2.0000      -0.674143       -18.3444
 106   2.0000      -0.671371       -18.2689
 107   2.0000      -0.660311       -17.9680
 108   2.0000      -0.657625       -17.8949
 109   2.0000      -0.652686       -17.7605
 110   2.0000      -0.651820       -17.7369
 111   2.0000      -0.644616       -17.5409
 112   2.0000      -0.644349       -17.5336
 113   2.0000      -0.637863       -17.3571
 114   2.0000      -0.637377       -17.3439
 115   2.0000      -0.628146       -17.0927
 116   2.0000      -0.622972       -16.9519
 117   2.0000      -0.621063       -16.9000
 118   2.0000      -0.612722       -16.6730
 119   2.0000      -0.611916       -16.6511
 120   2.0000      -0.611688       -16.6449
 121   2.0000      -0.609875       -16.5955
 122   2.0000      -0.600939       -16.3524
 123   2.0000      -0.587046       -15.9743
 124   2.0000      -0.581323       -15.8186
 125   2.0000      -0.580843       -15.8055
 126   2.0000      -0.579692       -15.7742
 127   2.0000      -0.571864       -15.5612
 128   2.0000      -0.568906       -15.4807
 129   2.0000      -0.559611       -15.2278
 130   2.0000      -0.552311       -15.0291
 131   2.0000      -0.547579       -14.9004
 132   2.0000      -0.542168       -14.7531
 133   2.0000      -0.541757       -14.7420
 134   2.0000      -0.538171       -14.6444
 135   2.0000      -0.536101       -14.5881
 136   2.0000      -0.530053       -14.4235
 137   2.0000      -0.520502       -14.1636
 138   2.0000      -0.516638       -14.0584
 139   2.0000      -0.514588       -14.0027
 140   2.0000      -0.512472       -13.9451
 141   2.0000      -0.510996       -13.9049
 142   2.0000      -0.508812       -13.8455
 143   2.0000      -0.504546       -13.7294
 144   2.0000      -0.502213       -13.6659
 145   2.0000      -0.496384       -13.5073
 146   2.0000      -0.490532       -13.3481
 147   2.0000      -0.482425       -13.1274
 148   2.0000      -0.478654       -13.0248
 149   2.0000      -0.467116       -12.7109
 150   2.0000      -0.466382       -12.6909
 151   2.0000      -0.457122       -12.4389
 152   2.0000      -0.451353       -12.2819
 153   2.0000      -0.444809       -12.1039
 154   2.0000      -0.439823       -11.9682
 155   2.0000      -0.427854       -11.6425
 156   2.0000      -0.417777       -11.3683
 157   2.0000      -0.407658       -11.0929
 158   2.0000      -0.396375       -10.7859
 159   2.0000      -0.387863       -10.5543
 160   2.0000      -0.386224       -10.5097
 161   2.0000      -0.378516       -10.2999
 162   2.0000      -0.369995       -10.0681
 163   2.0000      -0.356383        -9.6977
 164   2.0000      -0.355923        -9.6852
 165   2.0000      -0.341589        -9.2951
 166   2.0000      -0.337619        -9.1871
 167   2.0000      -0.325007        -8.8439
 168   2.0000      -0.322394        -8.7728
 169   2.0000      -0.304736        -8.2923
 170   2.0000      -0.299591        -8.1523
 171   2.0000      -0.285512        -7.7692
 172   2.0000      -0.280109        -7.6222
 173   2.0000      -0.263603        -7.1730
 174   2.0000      -0.241661        -6.5759
 175   2.0000      -0.189921        -5.1680
 176   2.0000      -0.180587        -4.9140
 177   2.0000      -0.077846        -2.1183
 178   2.0000      -0.059159        -1.6098
 179   0.0000       0.028361         0.7717
 180   0.0000       0.065676         1.7871
 181   0.0000       0.090647         2.4666
 182   0.0000       0.107669         2.9298
 183   0.0000       0.113033         3.0758

MULLIKEN ATOMIC CHARGES
-----------------------
   0 C :    0.213493
   1 N :   -0.455593
   2 C :   -0.069810
   3 N :   -0.339183
   4 C :   -0.051090
   5 N :   -0.566422
   6 C :   -0.109963
   7 N :   -0.340622
   8 C :    0.208536
   9 N :   -0.562141
  10 C :    0.119094
  11 N :   -0.438580
  12 C :   -0.073700
  13 N :   -0.429905
  14 C :    0.227673
  15 N :   -0.440864
  16 C :    0.229112
  17 C :   -0.122470
  18 C :   -0.188164
  19 C :    0.219991
  20 C :    0.213023
  21 C :   -0.080125
  22 C :   -0.091258
  23 C :   -0.039811
  24 C :    0.193717
  25 C :    0.114680
  26 C :   -0.087638
  27 C :    0.214023
  28 C :   -0.061513
  29 C :   -0.181127
  30 C :    0.245941
  31 C :    0.229147
  32 C :   -0.062005
  33 C :   -0.061224
  34 C :   -0.051335
  35 C :    0.227572
  36 C :    0.108501
  37 C :   -0.064309
  38 C :    0.231102
  39 C :   -0.057623
  40 C :   -0.181668
  41 C :    0.226032
  42 C :    0.197717
  43 C :   -0.072288
  44 C :   -0.089250
  45 C :   -0.061118
  46 C :    0.211617
  47 C :    0.115298
  48 C :   -0.067031
  49 C :    0.238557
  50 C :   -0.046565
  51 C :   -0.192322
  52 H :    0.037410
  53 H :   -0.017429
  54 H :    0.049767
  55 H :    0.036465
  56 H :    0.049589
  57 H :    0.047910
  58 H :    0.047073
  59 H :   -0.001827
  60 H :    0.046238
  61 H :    0.171217
  62 H :    0.175345
  63 H :    0.054978
  64 H :   -0.015410
  65 H :    0.047085
  66 H :    0.055486
  67 H :    0.062154
  68 H :    0.057108
  69 H :    0.056226
  70 H :   -0.030184
  71 H :    0.044494
  72 H :    0.070725
  73 H :   -0.008130
  74 H :    0.059840
  75 H :    0.070164
  76 H :    0.074404
  77 H :    0.067606
  78 H :    0.066931
  79 H :   -0.016573
  80 H :    0.060793
  81 H :    0.054448
  82 H :   -0.024682
  83 H :    0.042206
  84 H :    0.054407
  85 H :    0.061037
  86 H :    0.055711
  87 H :    0.057293
  88 H :   -0.014607
  89 H :    0.046618
Sum of atomic charges:   -0.0000000

LOEWDIN ATOMIC CHARGES
----------------------
   0 C :   -0.019269
   1 N :    0.119046
   2 C :   -0.101277
   3 N :    0.183131
   4 C :   -0.010959
   5 N :   -0.133592
   6 C :   -0.032541
   7 N :    0.175333
   8 C :   -0.023142
   9 N :   -0.140460
  10 C :    0.023862
  11 N :    0.141547
  12 C :   -0.115934
  13 N :    0.165189
  14 C :   -0.022428
  15 N :    0.139081
  16 C :   -0.060097
  17 C :   -0.044723
  18 C :   -0.106794
  19 C :   -0.078362
  20 C :    0.004084
  21 C :   -0.119614
  22 C :    0.036363
  23 C :   -0.014735
  24 C :   -0.012651
  25 C :    0.029722
  26 C :   -0.108707
  27 C :   -0.116102
  28 C :   -0.027636
  29 C :   -0.100313
  30 C :   -0.029961
  31 C :    0.023175
  32 C :   -0.094789
  33 C :    0.080107
  34 C :   -0.015456
  35 C :    0.022112
  36 C :    0.035008
  37 C :   -0.094277
  38 C :   -0.052245
  39 C :   -0.017756
  40 C :   -0.108410
  41 C :   -0.090938
  42 C :   -0.010050
  43 C :   -0.099268
  44 C :    0.033948
  45 C :   -0.027845
  46 C :    0.002053
  47 C :    0.029573
  48 C :   -0.094905
  49 C :   -0.070073
  50 C :   -0.018885
  51 C :   -0.108421
  52 H :    0.022900
  53 H :    0.002728
  54 H :    0.026552
  55 H :    0.022853
  56 H :    0.021874
  57 H :    0.026413
  58 H :    0.026902
  59 H :    0.010517
  60 H :    0.031478
  61 H :    0.060115
  62 H :    0.061790
  63 H :    0.030579
  64 H :    0.003774
  65 H :    0.045869
  66 H :    0.029180
  67 H :    0.028087
  68 H :    0.031568
  69 H :    0.030224
  70 H :   -0.004741
  71 H :    0.043348
  72 H :    0.037427
  73 H :    0.007068
  74 H :    0.050432
  75 H :    0.037115
  76 H :    0.034536
  77 H :    0.036001
  78 H :    0.035697
  79 H :    0.002976
  80 H :    0.050531
  81 H :    0.029122
  82 H :   -0.002644
  83 H :    0.042642
  84 H :    0.029980
  85 H :    0.027466
  86 H :    0.030259
  87 H :    0.031442
  88 H :    0.002327
  89 H :    0.044899

  Mayer bond orders larger than 0.100000
B(  0-C ,  1-N ) :   1.0973 B(  0-C , 17-C ) :   1.7060 B(  0-C , 52-H ) :   0.9654
B(  1-N ,  8-C ) :   1.0883 B(  1-N , 10-C ) :   0.9771 B(  2-C , 12-C ) :   1.4994
B(  2-C , 16-C ) :   1.3630 B(  2-C , 53-H ) :   0.9740 B(  3-N , 14-C ) :   1.2204
B(  3-N , 16-C ) :   1.1854 B(  3-N , 61-H ) :   0.8989 B(  4-C ,  6-C ) :   1.2122
B(  4-C , 17-C ) :   1.2136 B(  4-C , 18-C ) :   1.4551 B(  5-N , 19-C ) :   1.4548
B(  5-N , 27-C ) :   1.3753 B(  6-C ,  8-C ) :   1.7147 B(  6-C , 54-H ) :   0.9232
B(  7-N , 30-C ) :   1.1960 B(  7-N , 38-C ) :   1.1898 B(  7-N , 62-H ) :   0.8969
B(  8-C , 55-H ) :   0.9652 B(  9-N , 41-C ) :   1.3950 B(  9-N , 49-C ) :   1.4247
B( 10-C , 56-H ) :   0.9774 B( 10-C , 57-H ) :   0.9822 B( 10-C , 58-H ) :   0.9843
B( 11-N , 20-C ) :   1.1302 B( 11-N , 24-C ) :   1.1067 B( 11-N , 25-C ) :   0.9605
B( 12-C , 14-C ) :   1.3564 B( 12-C , 59-H ) :   0.9621 B( 13-N , 31-C ) :   1.1594
B( 13-N , 35-C ) :   1.1585 B( 13-N , 36-C ) :   0.9421 B( 14-C , 18-C ) :   1.1249
B( 15-N , 42-C ) :   1.1083 B( 15-N , 46-C ) :   1.1244 B( 15-N , 47-C ) :   0.9611
B( 16-C , 51-C ) :   1.1698 B( 17-C , 60-H ) :   0.9375 B( 18-C , 19-C ) :   1.1261
B( 19-C , 21-C ) :   1.2503 B( 20-C , 28-C ) :   1.6293 B( 20-C , 63-H ) :   0.9703
B( 21-C , 26-C ) :   1.5911 B( 21-C , 64-H ) :   0.9484 B( 22-C , 23-C ) :   1.2885
B( 22-C , 28-C ) :   1.2635 B( 22-C , 29-C ) :   1.2263 B( 23-C , 24-C ) :   1.6210
B( 23-C , 65-H ) :   0.9703 B( 24-C , 66-H ) :   0.9695 B( 25-C , 67-H ) :   0.9760
B( 25-C , 68-H ) :   0.9828 B( 25-C , 69-H ) :   0.9823 B( 26-C , 27-C ) :   1.2532
B( 26-C , 70-H ) :   0.9692 B( 27-C , 29-C ) :   1.2078 B( 28-C , 71-H ) :   0.9720
B( 29-C , 30-C ) :   1.2442 B( 30-C , 32-C ) :   1.2809 B( 31-C , 39-C ) :   1.5896
B( 31-C , 72-H ) :   0.9682 B( 32-C , 37-C ) :   1.5776 B( 32-C , 73-H ) :   0.9786
B( 33-C , 34-C ) :   1.3054 B( 33-C , 39-C ) :   1.3027 B( 33-C , 40-C ) :   1.1794
B( 34-C , 35-C ) :   1.5873 B( 34-C , 74-H ) :   0.9697 B( 35-C , 75-H ) :   0.9682
B( 36-C , 76-H ) :   0.9767 B( 36-C , 77-H ) :   0.9816 B( 36-C , 78-H ) :   0.9823
B( 37-C , 38-C ) :   1.2868 B( 37-C , 79-H ) :   0.9765 B( 38-C , 40-C ) :   1.2323
B( 39-C , 80-H ) :   0.9705 B( 40-C , 41-C ) :   1.2496 B( 41-C , 43-C ) :   1.1850
B( 42-C , 50-C ) :   1.6326 B( 42-C , 81-H ) :   0.9696 B( 43-C , 48-C ) :   1.6678
B( 43-C , 82-H ) :   0.9722 B( 44-C , 45-C ) :   1.2642 B( 44-C , 50-C ) :   1.2727
B( 44-C , 51-C ) :   1.2593 B( 45-C , 46-C ) :   1.6341 B( 45-C , 83-H ) :   0.9718
B( 46-C , 84-H ) :   0.9700 B( 47-C , 85-H ) :   0.9762 B( 47-C , 86-H ) :   0.9829
B( 47-C , 87-H ) :   0.9824 B( 48-C , 49-C ) :   1.1885 B( 48-C , 88-H ) :   0.9748
B( 49-C , 51-C ) :   1.2437 B( 50-C , 89-H ) :   0.9709

MP2 TOTAL ENERGY:    -2130.842116348 Eh
FINAL SINGLE POINT ENERGY     -2130.842116347750

DIPOLE MOMENT
-------------
                                X             Y             Z
Electronic contribution:      2.77065      -4.07764      -0.10652
Nuclear contribution   :     -0.04737       0.15426       0.12369
                        -----------------------------------------
Total Dipole Moment    :      2.72328      -3.92338       0.01717
                        -----------------------------------------
Magnitude (a.u.)       :      4.77593
Magnitude (Debye)      :     12.13944

Rotational constants in cm-1:     0.001503     0.001477     0.000760
Rotational constants in MHz :    45.047471    44.286881    22.791222

                             ****ORCA TERMINATED NORMALLY****
TOTAL RUN TIME: 0 days 1 hours 38 minutes 15 seconds 909 msec
