                         Program Version 5.0.4 -  RELEASE  -
|  1> ! PAL2
|  2> ! mp2 cc-pvdz TightSCF  NoKeepInts
|  3>
|  4> %scf
|  5>   MaxCore 2000
|  6> end
|  7> %mp2
|  8>   MaxCore 2000
|  9> end
| 10> * xyz 0 1
| 11>    C       -4.19500         5.72400        -1.05700
| 12>    C        1.47400         4.04100         0.05700
| 13>    C       -2.80200         4.09300         0.04900
| 14>    C       -2.98800         4.81500         1.23800
| 15>    C       -3.76600         5.95600         1.24200
| 16>    C       -5.21200         7.60200         0.15100
| 17>    C        0.13200         4.30700         0.06100
| 18>    C       -0.56900         3.05600         0.04700
| 19>    C        1.64900         2.61800         0.02300
| 20>    C       -3.43100         4.57500        -1.11000
| 21>    N       -4.35400         6.39700         0.10600
| 22>    N        0.38800         2.06700         0.02500
| 23>    N       -2.01000         0.39500        -0.07500
| 24>    N       -0.38800        -2.07400        -0.02700
| 25>    N        2.01000        -0.40100         0.06500
| 26>    C       -1.96000         2.86100         0.02400
| 27>    C       -2.62300         1.61500        -0.01800
| 28>    C       -5.57300        -4.32900         1.06600
| 29>    C       -4.07300         1.47100         0.05600
| 30>    C       -4.10600        -2.75600        -0.02600
| 31>    C       -4.99500        -2.75700        -1.11100
| 32>    C       -6.13200        -3.54200        -1.07600
| 33>    C       -7.65100        -5.11300         0.04000
| 34>    C       -4.32400         0.14100         0.03700
| 35>    C       -3.02500        -0.52000        -0.04800
| 36>    C       -4.42200        -3.56600         1.07500
| 37>    N       -6.40700        -4.31300         0.00100
| 38>    C       -2.86700        -1.92200        -0.04000
| 39>    C       -1.65000        -2.62400        -0.02700
| 40>    C        3.56800        -6.14200        -1.04000
| 41>    C       -1.47600        -4.04900        -0.03400
| 42>    C        2.80300        -4.09900        -0.00800
| 43>    C        3.65700        -4.38400         1.06900
| 44>    C        4.42700        -5.53000         1.05900
| 45>    C        5.24500        -7.58800         0.01400
| 46>    C       -0.13400        -4.31500        -0.02200
| 47>    C        0.56800        -3.06400        -0.02700
| 48>    C        2.77500        -5.01200        -1.07400
| 49>    N        4.37600        -6.39100         0.01700
| 50>    C        1.95900        -2.86900        -0.00900
| 51>    C        2.62100        -1.62200         0.00900
| 52>    C        5.54300         4.33900        -1.13000
| 53>    C        4.07000        -1.47900        -0.09400
| 54>    C        4.10400         2.75100        -0.02100
| 55>    C        5.02700         2.72900         1.03600
| 56>    C        6.16600         3.50900         0.97800
| 57>    C        7.61900         5.15300        -0.11500
| 58>    C        4.32100        -0.14800        -0.09200
| 59>    C        3.02500         0.51400         0.01500
| 60>    C        4.38700         3.58200        -1.11500
| 61>    C        2.86600         1.91600         0.01300
| 62>    N        6.41300         4.29600        -0.09500
| 63>    H       -4.68800         6.13900        -1.92700
| 64>    H        2.27400         4.76600         0.08100
| 65>    H       -2.53700         4.48800         2.16700
| 66>    H       -3.94500         6.54000         2.13500
| 67>    H       -6.22500         7.30600         0.43600
| 68>    H       -4.80400         8.29600         0.88500
| 69>    H       -5.22100         8.06300        -0.83600
| 70>    H       -0.33200         5.28200         0.06900
| 71>    H       -3.31400         4.07000        -2.06100
| 72>    H        0.18200         1.07200         0.00500
| 73>    H       -0.18300        -1.08000        -0.02100
| 74>    H       -5.86400        -4.96200         1.89500
| 75>    H       -4.79400         2.27200         0.13900
| 76>    H       -4.80000        -2.16000        -1.99400
| 77>    H       -6.84100        -3.58200        -1.89300
| 78>    H       -8.42800        -4.53600         0.54600
| 79>    H       -7.95600        -5.33700        -0.98100
| 80>    H       -7.45600        -6.03700         0.58400
| 81>    H       -5.28700        -0.34400         0.10000
| 82>    H       -3.78000        -3.60100         1.94700
| 83>    H        3.58700        -6.86800        -1.84300
| 84>    H       -2.27600        -4.77400        -0.05000
| 85>    H        3.71400        -3.72400         1.92600
| 86>    H        5.09200        -5.79500         1.87100
| 87>    H        6.20500        -7.32900        -0.43900
| 88>    H        5.39300        -7.91700         1.04200
| 89>    H        4.75900        -8.37300        -0.56400
| 90>    H        0.32900        -5.29000        -0.00800
| 91>    H        2.14600        -4.84200        -1.94000
| 92>    H        5.80800         4.98600        -1.95600
| 93>    H        4.78800        -2.28100        -0.18500
| 94>    H        4.86000         2.11400         1.91200
| 95>    H        6.90100         3.53100         1.77200
| 96>    H        7.38300         6.10900         0.35600
| 97>    H        8.41400         4.65200         0.43500
| 98>    H        7.92100         5.31000        -1.15000
| 99>    H        5.28300         0.33600        -0.17900
|100>    H        3.72000         3.63200        -1.96700
|101> *
|102>
|103>                          ****END OF INPUT****

CARTESIAN COORDINATES (ANGSTROEM)
---------------------------------
  C     -4.195000    5.724000   -1.057000
  C      1.474000    4.041000    0.057000
  C     -2.802000    4.093000    0.049000
  C     -2.988000    4.815000    1.238000
  C     -3.766000    5.956000    1.242000
  C     -5.212000    7.602000    0.151000
  C      0.132000    4.307000    0.061000
  C     -0.569000    3.056000    0.047000
  C      1.649000    2.618000    0.023000
  C     -3.431000    4.575000   -1.110000
  N     -4.354000    6.397000    0.106000
  N      0.388000    2.067000    0.025000
  N     -2.010000    0.395000   -0.075000
  N     -0.388000   -2.074000   -0.027000
  N      2.010000   -0.401000    0.065000
  C     -1.960000    2.861000    0.024000
  C     -2.623000    1.615000   -0.018000
  C     -5.573000   -4.329000    1.066000
  C     -4.073000    1.471000    0.056000
  C     -4.106000   -2.756000   -0.026000
  C     -4.995000   -2.757000   -1.111000
  C     -6.132000   -3.542000   -1.076000
  C     -7.651000   -5.113000    0.040000
  C     -4.324000    0.141000    0.037000
  C     -3.025000   -0.520000   -0.048000
  C     -4.422000   -3.566000    1.075000
  N     -6.407000   -4.313000    0.001000
  C     -2.867000   -1.922000   -0.040000
  C     -1.650000   -2.624000   -0.027000
  C      3.568000   -6.142000   -1.040000
  C     -1.476000   -4.049000   -0.034000
  C      2.803000   -4.099000   -0.008000
  C      3.657000   -4.384000    1.069000
  C      4.427000   -5.530000    1.059000
  C      5.245000   -7.588000    0.014000
  C     -0.134000   -4.315000   -0.022000
  C      0.568000   -3.064000   -0.027000
  C      2.775000   -5.012000   -1.074000
  N      4.376000   -6.391000    0.017000
  C      1.959000   -2.869000   -0.009000
  C      2.621000   -1.622000    0.009000
  C      5.543000    4.339000   -1.130000
  C      4.070000   -1.479000   -0.094000
  C      4.104000    2.751000   -0.021000
  C      5.027000    2.729000    1.036000
  C      6.166000    3.509000    0.978000
  C      7.619000    5.153000   -0.115000
  C      4.321000   -0.148000   -0.092000
  C      3.025000    0.514000    0.015000
  C      4.387000    3.582000   -1.115000
  C      2.866000    1.916000    0.013000
  N      6.413000    4.296000   -0.095000
  H     -4.688000    6.139000   -1.927000
  H      2.274000    4.766000    0.081000
  H     -2.537000    4.488000    2.167000
  H     -3.945000    6.540000    2.135000
  H     -6.225000    7.306000    0.436000
  H     -4.804000    8.296000    0.885000
  H     -5.221000    8.063000   -0.836000
  H     -0.332000    5.282000    0.069000
  H     -3.314000    4.070000   -2.061000
  H      0.182000    1.072000    0.005000
  H     -0.183000   -1.080000   -0.021000
  H     -5.864000   -4.962000    1.895000
  H     -4.794000    2.272000    0.139000
  H     -4.800000   -2.160000   -1.994000
  H     -6.841000   -3.582000   -1.893000
  H     -8.428000   -4.536000    0.546000
  H     -7.956000   -5.337000   -0.981000
  H     -7.456000   -6.037000    0.584000
  H     -5.287000   -0.344000    0.100000
  H     -3.780000   -3.601000    1.947000
  H      3.587000   -6.868000   -1.843000
  H     -2.276000   -4.774000   -0.050000
  H      3.714000   -3.724000    1.926000
  H      5.092000   -5.795000    1.871000
  H      6.205000   -7.329000   -0.439000
  H      5.393000   -7.917000    1.042000
  H      4.759000   -8.373000   -0.564000
  H      0.329000   -5.290000   -0.008000
  H      2.146000   -4.842000   -1.940000
  H      5.808000    4.986000   -1.956000
  H      4.788000   -2.281000   -0.185000
  H      4.860000    2.114000    1.912000
  H      6.901000    3.531000    1.772000
  H      7.383000    6.109000    0.356000
  H      8.414000    4.652000    0.435000
  H      7.921000    5.310000   -1.150000
  H      5.283000    0.336000   -0.179000
  H      3.720000    3.632000   -1.967000

 Total Charge           Charge          ....    0
 Multiplicity           Mult            ....    1
 Number of Electrons    NEL             ....  358
 Basis Dimension        Dim             ....  918

ORBITAL ENERGIES
----------------

  NO   OCC          E(Eh)            E(eV)
   0   2.0000     -15.685590      -426.8266
   1   2.0000     -15.635425      -425.4615
   2   2.0000     -15.622734      -425.1162
   3   2.0000     -15.595408      -424.3726
   4   2.0000     -15.518153      -422.2704
   5   2.0000     -15.508977      -422.0207
   6   2.0000     -15.448829      -420.3840
   7   2.0000     -15.431800      -419.9206
   8   2.0000     -11.331520      -308.3463
   9   2.0000     -11.330402      -308.3159
  10   2.0000     -11.330296      -308.3130
  11   2.0000     -11.300408      -307.4997
  12   2.0000     -11.294676      -307.3438
  13   2.0000     -11.292103      -307.2737
  14   2.0000     -11.287826      -307.1574
  15   2.0000     -11.283372      -307.0361
  16   2.0000     -11.283343      -307.0354
  17   2.0000     -11.276739      -306.8557
  18   2.0000     -11.275133      -306.8120
  19   2.0000     -11.265289      -306.5441
  20   2.0000     -11.265134      -306.5399
  21   2.0000     -11.259146      -306.3769
  22   2.0000     -11.255558      -306.2793
  23   2.0000     -11.238858      -305.8249
  24   2.0000     -11.231538      -305.6257
  25   2.0000     -11.230691      -305.6026
  26   2.0000     -11.226925      -305.5002
  27   2.0000     -11.221733      -305.3589
  28   2.0000     -11.221548      -305.3538
  29   2.0000     -11.204087      -304.8787
  30   2.0000     -11.203783      -304.8704
  31   2.0000     -11.202568      -304.8374
  32   2.0000     -11.201749      -304.8151
  33   2.0000     -11.200781      -304.7887
  34   2.0000     -11.186671      -304.4048
  35   2.0000     -11.186540      -304.4012
  36   2.0000     -11.186409      -304.3977
  37   2.0000     -11.185872      -304.3830
  38   2.0000     -11.184457      -304.3445
  39   2.0000     -11.168556      -303.9119
  40   2.0000     -11.167950      -303.8954
  41   2.0000     -11.161804      -303.7281
  42   2.0000     -11.160282      -303.6867
  43   2.0000     -11.159969      -303.6782
  44   2.0000     -11.155165      -303.5475
  45   2.0000     -11.152437      -303.4732
  46   2.0000     -11.151820      -303.4565
  47   2.0000     -11.147940      -303.3509
  48   2.0000     -11.147358      -303.3350
  49   2.0000     -11.140071      -303.1367
  50   2.0000     -11.123824      -302.6947
  51   2.0000     -11.120303      -302.5988
  52   2.0000      -1.363764       -37.1099
  53   2.0000      -1.322525       -35.9877
  54   2.0000      -1.311166       -35.6787
  55   2.0000      -1.288077       -35.0504
  56   2.0000      -1.219648       -33.1883
  57   2.0000      -1.205687       -32.8084
  58   2.0000      -1.170573       -31.8529
  59   2.0000      -1.144627       -31.1469
  60   2.0000      -1.143032       -31.1035
  61   2.0000      -1.110747       -30.2250
  62   2.0000      -1.100536       -29.9471
  63   2.0000      -1.084551       -29.5121
  64   2.0000      -1.080210       -29.3940
  65   2.0000      -1.046521       -28.4773
  66   2.0000      -1.040074       -28.3018
  67   2.0000      -1.035853       -28.1870
  68   2.0000      -1.014423       -27.6038
  69   2.0000      -1.013867       -27.5887
  70   2.0000      -1.005174       -27.3522
  71   2.0000      -0.988418       -26.8962
  72   2.0000      -0.984953       -26.8019
  73   2.0000      -0.978274       -26.6202
  74   2.0000      -0.968405       -26.3517
  75   2.0000      -0.959852       -26.1189
  76   2.0000      -0.951636       -25.8953
  77   2.0000      -0.944321       -25.6963
  78   2.0000      -0.925576       -25.1862
  79   2.0000      -0.917939       -24.9784
  80   2.0000      -0.911039       -24.7906
  81   2.0000      -0.888798       -24.1854
  82   2.0000      -0.875606       -23.8265
  83   2.0000      -0.871292       -23.7091
  84   2.0000      -0.863069       -23.4853
  85   2.0000      -0.851341       -23.1662
  86   2.0000      -0.841390       -22.8954
  87   2.0000      -0.830717       -22.6050
  88   2.0000      -0.822284       -22.3755
  89   2.0000      -0.795917       -21.6580
  90   2.0000      -0.791316       -21.5328
  91   2.0000      -0.754121       -20.5207
  92   2.0000      -0.733771       -19.9669
  93   2.0000      -0.727030       -19.7835
  94   2.0000      -0.721797       -19.6411
  95   2.0000      -0.716746       -19.5036
  96   2.0000      -0.715602       -19.4725
  97   2.0000      -0.708061       -19.2673
  98   2.0000      -0.699090       -19.0232
  99   2.0000      -0.695945       -18.9376
 100   2.0000      -0.693674       -18.8758
 101   2.0000      -0.686434       -18.6788
 102   2.0000      -0.682941       -18.5838
 103   2.0000      -0.677224       -18.4282
 104   2.0000      -0.672100       -18.2888
 105   2.0000      -0.669214       -18.2102
 106   2.0000      -0.665918       -18.1205
 107   2.0000      -0.655581       -17.8393
 108   2.0000      -0.653342       -17.7783
 109   2.0000      -0.650302       -17.6956
 110   2.0000      -0.648465       -17.6456
 111   2.0000      -0.645853       -17.5746
 112   2.0000      -0.645161       -17.5557
 113   2.0000      -0.638584       -17.3768
 114   2.0000      -0.633871       -17.2485
 115   2.0000      -0.626571       -17.0499
 116   2.0000      -0.623015       -16.9531
 117   2.0000      -0.615897       -16.7594
 118   2.0000      -0.614358       -16.7175
 119   2.0000      -0.613345       -16.6900
 120   2.0000      -0.609023       -16.5724
 121   2.0000      -0.603756       -16.4290
 122   2.0000      -0.593737       -16.1564
 123   2.0000      -0.587984       -15.9999
 124   2.0000      -0.583785       -15.8856
 125   2.0000      -0.582190       -15.8422
 126   2.0000      -0.575730       -15.6664
 127   2.0000      -0.573200       -15.5976
 128   2.0000      -0.572285       -15.5727
 129   2.0000      -0.558722       -15.2036
 130   2.0000      -0.554889       -15.0993
 131   2.0000      -0.548934       -14.9373
 132   2.0000      -0.545245       -14.8369
 133   2.0000      -0.538759       -14.6604
 134   2.0000      -0.534792       -14.5524
 135   2.0000      -0.531060       -14.4509
 136   2.0000      -0.520177       -14.1547
 137   2.0000      -0.518036       -14.0965
 138   2.0000      -0.514178       -13.9915
 139   2.0000      -0.512886       -13.9563
 140   2.0000      -0.509291       -13.8585
 141   2.0000      -0.508004       -13.8235
 142   2.0000      -0.501727       -13.6527
 143   2.0000      -0.500432       -13.6174
 144   2.0000      -0.495562       -13.4849
 145   2.0000      -0.493878       -13.4391
 146   2.0000      -0.493561       -13.4305
 147   2.0000      -0.482318       -13.1245
 148   2.0000      -0.480484       -13.0746
 149   2.0000      -0.463737       -12.6189
 150   2.0000      -0.463245       -12.6055
 151   2.0000      -0.456984       -12.4352
 152   2.0000      -0.450238       -12.2516
 153   2.0000      -0.442136       -12.0311
 154   2.0000      -0.437997       -11.9185
 155   2.0000      -0.436398       -11.8750
 156   2.0000      -0.425568       -11.5803
 157   2.0000      -0.418571       -11.3899
 158   2.0000      -0.403062       -10.9679
 159   2.0000      -0.389464       -10.5979
 160   2.0000      -0.383955       -10.4479
 161   2.0000      -0.371807       -10.1174
 162   2.0000      -0.358872        -9.7654
 163   2.0000      -0.357422        -9.7259
 164   2.0000      -0.348316        -9.4782
 165   2.0000      -0.339274        -9.2321
 166   2.0000      -0.337831        -9.1929
 167   2.0000      -0.329981        -8.9792
 168   2.0000      -0.317352        -8.6356
 169   2.0000      -0.299411        -8.1474
 170   2.0000      -0.298570        -8.1245
 171   2.0000      -0.284719        -7.7476
 172   2.0000      -0.281471        -7.6592
 173   2.0000      -0.262510        -7.1433
 174   2.0000      -0.235450        -6.4069
 175   2.0000      -0.184776        -5.0280
 176   2.0000      -0.174592        -4.7509
 177   2.0000      -0.062283        -1.6948
 178   2.0000      -0.051626        -1.4048
 179   0.0000       0.034015         0.9256
 180   0.0000       0.061748         1.6803
 181   0.0000       0.090225         2.4552
 182   0.0000       0.097192         2.6447
 183   0.0000       0.106379         2.8947

MULLIKEN ATOMIC CHARGES
-----------------------
   0 C :    0.225553
   1 N :   -0.423329
   2 C :   -0.067533
   3 N :   -0.342255
   4 C :   -0.081558
   5 N :   -0.564466
   6 C :   -0.030305
   7 N :   -0.337220
   8 C :    0.222780
   9 N :   -0.565212
  10 C :    0.107298
  11 N :   -0.438471
  12 C :   -0.059617
  13 N :   -0.448103
  14 C :    0.222752
  15 N :   -0.441212
  16 C :    0.251105
  17 C :   -0.035019
  18 C :   -0.178083
  19 C :    0.226451
  20 C :    0.194959
  21 C :   -0.066585
  22 C :   -0.087778
  23 C :   -0.062274
  24 C :    0.216075
  25 C :    0.114217
  26 C :   -0.069389
  27 C :    0.240725
  28 C :   -0.042630
  29 C :   -0.193322
  30 C :    0.224611
  31 C :    0.194098
  32 C :   -0.064890
  33 C :   -0.097381
  34 C :   -0.049901
  35 C :    0.184581
  36 C :    0.119235
  37 C :   -0.069337
  38 C :    0.243062
  39 C :   -0.064724
  40 C :   -0.199891
  41 C :    0.216576
  42 C :    0.209986
  43 C :   -0.076379
  44 C :   -0.090329
  45 C :   -0.042220
  46 C :    0.190062
  47 C :    0.116330
  48 C :   -0.081035
  49 C :    0.212564
  50 C :   -0.062992
  51 C :   -0.190130
  52 H :    0.073111
  53 H :   -0.009578
  54 H :    0.060165
  55 H :    0.072079
  56 H :    0.076811
  57 H :    0.070006
  58 H :    0.068608
  59 H :   -0.024885
  60 H :    0.058122
  61 H :    0.175714
  62 H :    0.169395
  63 H :    0.054804
  64 H :   -0.031220
  65 H :    0.043072
  66 H :    0.056579
  67 H :    0.060392
  68 H :    0.057111
  69 H :    0.059566
  70 H :   -0.017246
  71 H :    0.048031
  72 H :    0.042384
  73 H :   -0.018318
  74 H :    0.033917
  75 H :    0.041117
  76 H :    0.050271
  77 H :    0.049161
  78 H :    0.048343
  79 H :   -0.011957
  80 H :    0.033720
  81 H :    0.051491
  82 H :   -0.023430
  83 H :    0.042976
  84 H :    0.050525
  85 H :    0.055737
  86 H :    0.056465
  87 H :    0.055230
  88 H :   -0.028815
  89 H :    0.041094
Sum of atomic charges:    0.0000000

LOEWDIN ATOMIC CHARGES
----------------------
   0 C :    0.025617
   1 N :    0.173992
   2 C :   -0.100415
   3 N :    0.172832
   4 C :    0.089276
   5 N :   -0.144796
   6 C :   -0.011279
   7 N :    0.177448
   8 C :    0.023635
   9 N :   -0.138464
  10 C :    0.036528
  11 N :    0.142401
  12 C :   -0.097322
  13 N :    0.120779
  14 C :   -0.058507
  15 N :    0.136146
  16 C :   -0.024737
  17 C :   -0.014055
  18 C :   -0.116258
  19 C :   -0.089509
  20 C :   -0.011569
  21 C :   -0.099823
  22 C :    0.039351
  23 C :   -0.029906
  24 C :    0.007242
  25 C :    0.029941
  26 C :   -0.096722
  27 C :   -0.066098
  28 C :   -0.015823
  29 C :   -0.114828
  30 C :   -0.060688
  31 C :   -0.019062
  32 C :   -0.100138
  33 C :    0.005702
  34 C :   -0.024656
  35 C :   -0.027482
  36 C :    0.024804
  37 C :   -0.107364
  38 C :   -0.031557
  39 C :   -0.032314
  40 C :   -0.112018
  41 C :   -0.094891
  42 C :   -0.000539
  43 C :   -0.111847
  44 C :    0.030492
  45 C :   -0.016398
  46 C :   -0.017875
  47 C :    0.028560
  48 C :   -0.113350
  49 C :   -0.110083
  50 C :   -0.030263
  51 C :   -0.109347
  52 H :    0.037885
  53 H :    0.006456
  54 H :    0.052301
  55 H :    0.037896
  56 H :    0.035892
  57 H :    0.036639
  58 H :    0.036803
  59 H :    0.000792
  60 H :    0.051392
  61 H :    0.061928
  62 H :    0.058591
  63 H :    0.029804
  64 H :   -0.003891
  65 H :    0.042992
  66 H :    0.030547
  67 H :    0.027412
  68 H :    0.031546
  69 H :    0.031589
  70 H :    0.001299
  71 H :    0.045895
  72 H :    0.024286
  73 H :    0.002209
  74 H :    0.039632
  75 H :    0.023318
  76 H :    0.022090
  77 H :    0.027352
  78 H :    0.027014
  79 H :    0.005408
  80 H :    0.038744
  81 H :    0.028361
  82 H :   -0.001619
  83 H :    0.044044
  84 H :    0.027499
  85 H :    0.024991
  86 H :    0.030429
  87 H :    0.030451
  88 H :   -0.004448
  89 H :    0.041708

  Mayer bond orders larger than 0.100000
B(  0-C ,  1-N ) :   1.1716 B(  0-C , 17-C ) :   1.5589 B(  0-C , 52-H ) :   0.9677
B(  1-N ,  8-C ) :   1.1677 B(  1-N , 10-C ) :   0.9384 B(  2-C , 12-C ) :   1.5643
B(  2-C , 16-C ) :   1.2895 B(  2-C , 53-H ) :   0.9789 B(  3-N , 14-C ) :   1.1819
B(  3-N , 16-C ) :   1.2017 B(  3-N , 61-H ) :   0.8964 B(  4-C ,  6-C ) :   1.3269
B(  4-C , 17-C ) :   1.3288 B(  4-C , 18-C ) :   1.1161 B(  5-N , 19-C ) :   1.3798
B(  5-N , 27-C ) :   1.4369 B(  6-C ,  8-C ) :   1.5610 B(  6-C , 54-H ) :   0.9711
B(  7-N , 30-C ) :   1.1859 B(  7-N , 38-C ) :   1.2121 B(  7-N , 62-H ) :   0.9004
B(  8-C , 55-H ) :   0.9688 B(  9-N , 41-C ) :   1.4256 B(  9-N , 49-C ) :   1.4015
B( 10-C , 56-H ) :   0.9764 B( 10-C , 57-H ) :   0.9814 B( 10-C , 58-H ) :   0.9820
B( 11-N , 20-C ) :   1.1079 B( 11-N , 24-C ) :   1.1345 B( 11-N , 25-C ) :   0.9596
B( 12-C , 14-C ) :   1.2904 B( 12-C , 59-H ) :   0.9777 B( 13-N , 31-C ) :   1.0943
B( 13-N , 35-C ) :   1.0839 B( 13-N , 36-C ) :   0.9758 B( 14-C , 18-C ) :   1.2444
B( 15-N , 42-C ) :   1.1237 B( 15-N , 46-C ) :   1.0981 B( 15-N , 47-C ) :   0.9648
B( 16-C , 51-C ) :   1.2316 B( 17-C , 60-H ) :   0.9713 B( 18-C , 19-C ) :   1.2827
B( 19-C , 21-C ) :   1.1797 B( 20-C , 28-C ) :   1.6241 B( 20-C , 63-H ) :   0.9706
B( 21-C , 26-C ) :   1.6679 B( 21-C , 64-H ) :   0.9730 B( 22-C , 23-C ) :   1.2660
B( 22-C , 28-C ) :   1.2811 B( 22-C , 29-C ) :   1.2454 B( 23-C , 24-C ) :   1.6269
B( 23-C , 65-H ) :   0.9718 B( 24-C , 66-H ) :   0.9690 B( 25-C , 67-H ) :   0.9763
B( 25-C , 68-H ) :   0.9832 B( 25-C , 69-H ) :   0.9819 B( 26-C , 27-C ) :   1.1843
B( 26-C , 70-H ) :   0.9749 B( 27-C , 29-C ) :   1.2360 B( 28-C , 71-H ) :   0.9710
B( 29-C , 30-C ) :   1.1891 B( 30-C , 32-C ) :   1.3372 B( 31-C , 39-C ) :   1.6686
B( 31-C , 72-H ) :   0.9706 B( 32-C , 37-C ) :   1.5219 B( 32-C , 73-H ) :   0.9772
B( 33-C , 34-C ) :   1.2455 B( 33-C , 39-C ) :   1.2372 B( 33-C , 40-C ) :   1.3237
B( 34-C , 35-C ) :   1.6665 B( 34-C , 74-H ) :   0.9708 B( 35-C , 75-H ) :   0.9706
B( 36-C , 76-H ) :   0.9757 B( 36-C , 77-H ) :   0.9824 B( 36-C , 78-H ) :   0.9836
B( 37-C , 38-C ) :   1.3337 B( 37-C , 79-H ) :   0.9789 B( 38-C , 40-C ) :   1.1888
B( 39-C , 80-H ) :   0.9720 B( 40-C , 41-C ) :   1.1824 B( 41-C , 43-C ) :   1.2454
B( 42-C , 50-C ) :   1.6387 B( 42-C , 81-H ) :   0.9696 B( 43-C , 48-C ) :   1.6056
B( 43-C , 82-H ) :   0.9750 B( 44-C , 45-C ) :   1.2781 B( 44-C , 50-C ) :   1.2554
B( 44-C , 51-C ) :   1.2515 B( 45-C , 46-C ) :   1.6322 B( 45-C , 83-H ) :   0.9705
B( 46-C , 84-H ) :   0.9707 B( 47-C , 85-H ) :   0.9760 B( 47-C , 86-H ) :   0.9826
B( 47-C , 87-H ) :   0.9829 B( 48-C , 49-C ) :   1.2411 B( 48-C , 88-H ) :   0.9729
B( 49-C , 51-C ) :   1.1965 B( 50-C , 89-H ) :   0.9719

MP2 TOTAL ENERGY:    -2130.891448853 Eh
FINAL SINGLE POINT ENERGY     -2130.891448853157

DIPOLE MOMENT
-------------
                                X             Y             Z
Electronic contribution:     -3.26142       3.27299      -0.17419
Nuclear contribution   :     -0.01589       0.17354       0.22004
                        -----------------------------------------
Total Dipole Moment    :     -3.27731       3.44653       0.04585
                        -----------------------------------------
Magnitude (a.u.)       :      4.75620
Magnitude (Debye)      :     12.08930

Rotational constants in cm-1:     0.001498     0.001473     0.000763
Rotational constants in MHz :    44.900074    44.152246    22.865173

                             ****ORCA TERMINATED NORMALLY****
TOTAL RUN TIME: 0 days 1 hours 12 minutes 25 seconds 751 msec
