                         Program Version 5.0.4 -  RELEASE  -
|  1> ! PAL2
|  2> ! mp2 cc-pvdz TightSCF  NoKeepInts
|  3>
|  4> %scf
|  5>   MaxCore 2000
|  6> end
|  7> %mp2
|  8>   MaxCore 2000
|  9> end
| 10> * xyz 0 1
| 11>    C       -4.15100         5.75500        -1.06600
| 12>    C        1.47400         4.04100         0.05700
| 13>    C       -2.80200         4.09300         0.04900
| 14>    C       -3.03400         4.78400         1.24900
| 15>    C       -3.81100         5.92500         1.25300
| 16>    C       -5.21400         7.60100         0.15100
| 17>    C        0.13200         4.30700         0.06100
| 18>    C       -0.56900         3.05600         0.04700
| 19>    C        1.64900         2.61800         0.02300
| 20>    C       -3.38500         4.60600        -1.12000
| 21>    N       -4.35400         6.39700         0.10700
| 22>    N        0.38800         2.06700         0.02500
| 23>    N       -2.01000         0.39500        -0.07500
| 24>    N       -0.38800        -2.07400        -0.02700
| 25>    N        2.01000        -0.40100         0.06500
| 26>    C       -1.96000         2.86100         0.02400
| 27>    C       -2.62300         1.61500        -0.01800
| 28>    C       -5.57300        -4.32900         1.06600
| 29>    C       -4.07300         1.47100         0.05600
| 30>    C       -4.10600        -2.75600        -0.02600
| 31>    C       -4.99500        -2.75700        -1.11100
| 32>    C       -6.13200        -3.54200        -1.07600
| 33>    C       -7.65100        -5.11300         0.04000
| 34>    C       -4.32400         0.14100         0.03700
| 35>    C       -3.02500        -0.52000        -0.04800
| 36>    C       -4.42200        -3.56600         1.07500
| 37>    N       -6.40700        -4.31300         0.00100
| 38>    C       -2.86700        -1.92200        -0.04000
| 39>    C       -1.65000        -2.62400        -0.02700
| 40>    C        3.56800        -6.14200        -1.04000
| 41>    C       -1.47600        -4.04900        -0.03400
| 42>    C        2.80300        -4.09900        -0.00800
| 43>    C        3.65700        -4.38400         1.06900
| 44>    C        4.42700        -5.53000         1.05900
| 45>    C        5.24500        -7.58800         0.01400
| 46>    C       -0.13400        -4.31500        -0.02200
| 47>    C        0.56800        -3.06400        -0.02700
| 48>    C        2.77500        -5.01200        -1.07400
| 49>    N        4.37600        -6.39100         0.01700
| 50>    C        1.95900        -2.86900        -0.00900
| 51>    C        2.62100        -1.62200         0.00900
| 52>    C        5.54300         4.33900        -1.13000
| 53>    C        4.07000        -1.47900        -0.09400
| 54>    C        4.10400         2.75100        -0.02100
| 55>    C        5.02700         2.72900         1.03600
| 56>    C        6.16600         3.50900         0.97800
| 57>    C        7.61900         5.15300        -0.11500
| 58>    C        4.32100        -0.14800        -0.09200
| 59>    C        3.02500         0.51400         0.01500
| 60>    C        4.38700         3.58200        -1.11500
| 61>    C        2.86600         1.91600         0.01300
| 62>    N        6.41300         4.29600        -0.09500
| 63>    H       -4.60900         6.19300        -1.94400
| 64>    H        2.27400         4.76600         0.08100
| 65>    H       -2.61900         4.43200         2.18500
| 66>    H       -4.02500         6.48500         2.15300
| 67>    H       -6.23600         7.29900         0.38800
| 68>    H       -4.83400         8.27500         0.91800
| 69>    H       -5.18400         8.08900        -0.82300
| 70>    H       -0.33200         5.28200         0.06900
| 71>    H       -3.23100         4.12600        -2.08000
| 72>    H        0.18200         1.07200         0.00500
| 73>    H       -0.18300        -1.08000        -0.02100
| 74>    H       -5.86400        -4.96200         1.89500
| 75>    H       -4.79400         2.27200         0.13900
| 76>    H       -4.80000        -2.16000        -1.99400
| 77>    H       -6.84100        -3.58200        -1.89300
| 78>    H       -8.42800        -4.53600         0.54600
| 79>    H       -7.95600        -5.33700        -0.98100
| 80>    H       -7.45600        -6.03700         0.58400
| 81>    H       -5.28700        -0.34400         0.10000
| 82>    H       -3.78000        -3.60100         1.94700
| 83>    H        3.58700        -6.86800        -1.84300
| 84>    H       -2.27600        -4.77400        -0.05000
| 85>    H        3.71400        -3.72400         1.92600
| 86>    H        5.09200        -5.79500         1.87100
| 87>    H        6.20500        -7.32900        -0.43900
| 88>    H        5.39300        -7.91700         1.04200
| 89>    H        4.75900        -8.37300        -0.56400
| 90>    H        0.32900        -5.29000        -0.00800
| 91>    H        2.14600        -4.84200        -1.94000
| 92>    H        5.80800         4.98600        -1.95600
| 93>    H        4.78800        -2.28100        -0.18500
| 94>    H        4.86000         2.11400         1.91200
| 95>    H        6.90100         3.53100         1.77200
| 96>    H        7.38300         6.10900         0.35600
| 97>    H        8.41400         4.65200         0.43500
| 98>    H        7.92100         5.31000        -1.15000
| 99>    H        5.28300         0.33600        -0.17900
|100>    H        3.72000         3.63200        -1.96700
|101> *
|102>
|103>                          ****END OF INPUT****

CARTESIAN COORDINATES (ANGSTROEM)
---------------------------------
  C     -4.151000    5.755000   -1.066000
  C      1.474000    4.041000    0.057000
  C     -2.802000    4.093000    0.049000
  C     -3.034000    4.784000    1.249000
  C     -3.811000    5.925000    1.253000
  C     -5.214000    7.601000    0.151000
  C      0.132000    4.307000    0.061000
  C     -0.569000    3.056000    0.047000
  C      1.649000    2.618000    0.023000
  C     -3.385000    4.606000   -1.120000
  N     -4.354000    6.397000    0.107000
  N      0.388000    2.067000    0.025000
  N     -2.010000    0.395000   -0.075000
  N     -0.388000   -2.074000   -0.027000
  N      2.010000   -0.401000    0.065000
  C     -1.960000    2.861000    0.024000
  C     -2.623000    1.615000   -0.018000
  C     -5.573000   -4.329000    1.066000
  C     -4.073000    1.471000    0.056000
  C     -4.106000   -2.756000   -0.026000
  C     -4.995000   -2.757000   -1.111000
  C     -6.132000   -3.542000   -1.076000
  C     -7.651000   -5.113000    0.040000
  C     -4.324000    0.141000    0.037000
  C     -3.025000   -0.520000   -0.048000
  C     -4.422000   -3.566000    1.075000
  N     -6.407000   -4.313000    0.001000
  C     -2.867000   -1.922000   -0.040000
  C     -1.650000   -2.624000   -0.027000
  C      3.568000   -6.142000   -1.040000
  C     -1.476000   -4.049000   -0.034000
  C      2.803000   -4.099000   -0.008000
  C      3.657000   -4.384000    1.069000
  C      4.427000   -5.530000    1.059000
  C      5.245000   -7.588000    0.014000
  C     -0.134000   -4.315000   -0.022000
  C      0.568000   -3.064000   -0.027000
  C      2.775000   -5.012000   -1.074000
  N      4.376000   -6.391000    0.017000
  C      1.959000   -2.869000   -0.009000
  C      2.621000   -1.622000    0.009000
  C      5.543000    4.339000   -1.130000
  C      4.070000   -1.479000   -0.094000
  C      4.104000    2.751000   -0.021000
  C      5.027000    2.729000    1.036000
  C      6.166000    3.509000    0.978000
  C      7.619000    5.153000   -0.115000
  C      4.321000   -0.148000   -0.092000
  C      3.025000    0.514000    0.015000
  C      4.387000    3.582000   -1.115000
  C      2.866000    1.916000    0.013000
  N      6.413000    4.296000   -0.095000
  H     -4.609000    6.193000   -1.944000
  H      2.274000    4.766000    0.081000
  H     -2.619000    4.432000    2.185000
  H     -4.025000    6.485000    2.153000
  H     -6.236000    7.299000    0.388000
  H     -4.834000    8.275000    0.918000
  H     -5.184000    8.089000   -0.823000
  H     -0.332000    5.282000    0.069000
  H     -3.231000    4.126000   -2.080000
  H      0.182000    1.072000    0.005000
  H     -0.183000   -1.080000   -0.021000
  H     -5.864000   -4.962000    1.895000
  H     -4.794000    2.272000    0.139000
  H     -4.800000   -2.160000   -1.994000
  H     -6.841000   -3.582000   -1.893000
  H     -8.428000   -4.536000    0.546000
  H     -7.956000   -5.337000   -0.981000
  H     -7.456000   -6.037000    0.584000
  H     -5.287000   -0.344000    0.100000
  H     -3.780000   -3.601000    1.947000
  H      3.587000   -6.868000   -1.843000
  H     -2.276000   -4.774000   -0.050000
  H      3.714000   -3.724000    1.926000
  H      5.092000   -5.795000    1.871000
  H      6.205000   -7.329000   -0.439000
  H      5.393000   -7.917000    1.042000
  H      4.759000   -8.373000   -0.564000
  H      0.329000   -5.290000   -0.008000
  H      2.146000   -4.842000   -1.940000
  H      5.808000    4.986000   -1.956000
  H      4.788000   -2.281000   -0.185000
  H      4.860000    2.114000    1.912000
  H      6.901000    3.531000    1.772000
  H      7.383000    6.109000    0.356000
  H      8.414000    4.652000    0.435000
  H      7.921000    5.310000   -1.150000
  H      5.283000    0.336000   -0.179000
  H      3.720000    3.632000   -1.967000

 Total Charge           Charge          ....    0
 Multiplicity           Mult            ....    1
 Number of Electrons    NEL             ....  358
 Basis Dimension        Dim             ....  918

ORBITAL ENERGIES
----------------

  NO   OCC          E(Eh)            E(eV)
   0   2.0000     -15.697099      -427.1398
   1   2.0000     -15.633438      -425.4075
   2   2.0000     -15.621092      -425.0715
   3   2.0000     -15.588798      -424.1928
   4   2.0000     -15.518860      -422.2897
   5   2.0000     -15.507335      -421.9761
   6   2.0000     -15.449746      -420.4090
   7   2.0000     -15.429916      -419.8694
   8   2.0000     -11.340684      -308.5957
   9   2.0000     -11.339010      -308.5501
  10   2.0000     -11.336998      -308.4954
  11   2.0000     -11.299270      -307.4688
  12   2.0000     -11.293664      -307.3162
  13   2.0000     -11.293481      -307.3112
  14   2.0000     -11.291102      -307.2465
  15   2.0000     -11.285584      -307.0964
  16   2.0000     -11.282500      -307.0124
  17   2.0000     -11.274690      -306.7999
  18   2.0000     -11.272678      -306.7452
  19   2.0000     -11.272625      -306.7437
  20   2.0000     -11.270936      -306.6977
  21   2.0000     -11.253560      -306.2249
  22   2.0000     -11.249854      -306.1241
  23   2.0000     -11.236960      -305.7732
  24   2.0000     -11.230190      -305.5890
  25   2.0000     -11.229322      -305.5654
  26   2.0000     -11.225322      -305.4565
  27   2.0000     -11.220571      -305.3273
  28   2.0000     -11.220351      -305.3213
  29   2.0000     -11.206225      -304.9369
  30   2.0000     -11.205573      -304.9191
  31   2.0000     -11.197437      -304.6978
  32   2.0000     -11.196656      -304.6765
  33   2.0000     -11.194783      -304.6255
  34   2.0000     -11.189434      -304.4800
  35   2.0000     -11.188422      -304.4524
  36   2.0000     -11.187809      -304.4358
  37   2.0000     -11.184440      -304.3441
  38   2.0000     -11.184263      -304.3393
  39   2.0000     -11.171595      -303.9946
  40   2.0000     -11.167056      -303.8710
  41   2.0000     -11.163698      -303.7797
  42   2.0000     -11.161522      -303.7204
  43   2.0000     -11.161080      -303.7084
  44   2.0000     -11.157522      -303.6116
  45   2.0000     -11.149499      -303.3933
  46   2.0000     -11.148838      -303.3753
  47   2.0000     -11.145248      -303.2776
  48   2.0000     -11.144210      -303.2494
  49   2.0000     -11.136970      -303.0524
  50   2.0000     -11.121049      -302.6191
  51   2.0000     -11.116853      -302.5049
  52   2.0000      -1.373217       -37.3671
  53   2.0000      -1.320871       -35.9427
  54   2.0000      -1.309744       -35.6400
  55   2.0000      -1.282383       -34.8954
  56   2.0000      -1.221093       -33.2276
  57   2.0000      -1.203828       -32.7578
  58   2.0000      -1.172833       -31.9144
  59   2.0000      -1.151764       -31.3411
  60   2.0000      -1.140793       -31.0426
  61   2.0000      -1.109422       -30.1889
  62   2.0000      -1.099233       -29.9117
  63   2.0000      -1.093001       -29.7421
  64   2.0000      -1.075215       -29.2581
  65   2.0000      -1.045694       -28.4548
  66   2.0000      -1.044992       -28.4357
  67   2.0000      -1.034521       -28.1508
  68   2.0000      -1.014072       -27.5943
  69   2.0000      -1.009064       -27.4580
  70   2.0000      -1.004686       -27.3389
  71   2.0000      -0.989875       -26.9359
  72   2.0000      -0.984102       -26.7788
  73   2.0000      -0.979373       -26.6501
  74   2.0000      -0.966318       -26.2948
  75   2.0000      -0.960799       -26.1447
  76   2.0000      -0.951773       -25.8991
  77   2.0000      -0.942746       -25.6534
  78   2.0000      -0.923321       -25.1248
  79   2.0000      -0.919225       -25.0134
  80   2.0000      -0.915992       -24.9254
  81   2.0000      -0.888947       -24.1895
  82   2.0000      -0.879360       -23.9286
  83   2.0000      -0.871328       -23.7100
  84   2.0000      -0.861850       -23.4521
  85   2.0000      -0.849709       -23.1217
  86   2.0000      -0.836510       -22.7626
  87   2.0000      -0.829120       -22.5615
  88   2.0000      -0.821916       -22.3655
  89   2.0000      -0.795384       -21.6435
  90   2.0000      -0.789239       -21.4763
  91   2.0000      -0.760499       -20.6942
  92   2.0000      -0.733644       -19.9635
  93   2.0000      -0.727591       -19.7988
  94   2.0000      -0.724137       -19.7048
  95   2.0000      -0.721357       -19.6291
  96   2.0000      -0.716522       -19.4975
  97   2.0000      -0.707531       -19.2529
  98   2.0000      -0.701183       -19.0802
  99   2.0000      -0.696371       -18.9492
 100   2.0000      -0.693452       -18.8698
 101   2.0000      -0.691934       -18.8285
 102   2.0000      -0.683675       -18.6037
 103   2.0000      -0.675904       -18.3923
 104   2.0000      -0.672196       -18.2914
 105   2.0000      -0.669651       -18.2221
 106   2.0000      -0.664816       -18.0905
 107   2.0000      -0.656280       -17.8583
 108   2.0000      -0.654330       -17.8052
 109   2.0000      -0.651739       -17.7347
 110   2.0000      -0.649138       -17.6639
 111   2.0000      -0.644008       -17.5244
 112   2.0000      -0.641857       -17.4658
 113   2.0000      -0.638409       -17.3720
 114   2.0000      -0.632636       -17.2149
 115   2.0000      -0.624615       -16.9966
 116   2.0000      -0.622341       -16.9348
 117   2.0000      -0.621126       -16.9017
 118   2.0000      -0.614144       -16.7117
 119   2.0000      -0.612080       -16.6556
 120   2.0000      -0.609481       -16.5848
 121   2.0000      -0.602534       -16.3958
 122   2.0000      -0.591793       -16.1035
 123   2.0000      -0.586369       -15.9559
 124   2.0000      -0.581034       -15.8108
 125   2.0000      -0.579239       -15.7619
 126   2.0000      -0.578825       -15.7506
 127   2.0000      -0.576162       -15.6782
 128   2.0000      -0.572371       -15.5750
 129   2.0000      -0.557942       -15.1824
 130   2.0000      -0.555876       -15.1262
 131   2.0000      -0.550831       -14.9889
 132   2.0000      -0.543533       -14.7903
 133   2.0000      -0.538957       -14.6658
 134   2.0000      -0.534705       -14.5501
 135   2.0000      -0.530433       -14.4338
 136   2.0000      -0.518814       -14.1177
 137   2.0000      -0.516193       -14.0463
 138   2.0000      -0.514912       -14.0115
 139   2.0000      -0.512981       -13.9589
 140   2.0000      -0.509986       -13.8774
 141   2.0000      -0.504891       -13.7388
 142   2.0000      -0.501660       -13.6509
 143   2.0000      -0.500463       -13.6183
 144   2.0000      -0.495268       -13.4769
 145   2.0000      -0.493847       -13.4383
 146   2.0000      -0.491945       -13.3865
 147   2.0000      -0.478293       -13.0150
 148   2.0000      -0.477425       -12.9914
 149   2.0000      -0.464426       -12.6377
 150   2.0000      -0.462623       -12.5886
 151   2.0000      -0.458714       -12.4822
 152   2.0000      -0.451068       -12.2742
 153   2.0000      -0.441900       -12.0247
 154   2.0000      -0.436122       -11.8675
 155   2.0000      -0.434422       -11.8212
 156   2.0000      -0.422725       -11.5029
 157   2.0000      -0.415961       -11.3189
 158   2.0000      -0.408042       -11.1034
 159   2.0000      -0.396424       -10.7872
 160   2.0000      -0.383235       -10.4284
 161   2.0000      -0.370873       -10.0920
 162   2.0000      -0.356354        -9.6969
 163   2.0000      -0.355672        -9.6783
 164   2.0000      -0.347285        -9.4501
 165   2.0000      -0.339659        -9.2426
 166   2.0000      -0.338752        -9.2179
 167   2.0000      -0.325403        -8.8547
 168   2.0000      -0.315301        -8.5798
 169   2.0000      -0.300833        -8.1861
 170   2.0000      -0.298701        -8.1281
 171   2.0000      -0.283881        -7.7248
 172   2.0000      -0.279389        -7.6026
 173   2.0000      -0.264105        -7.1867
 174   2.0000      -0.233021        -6.3408
 175   2.0000      -0.184155        -5.0111
 176   2.0000      -0.174082        -4.7370
 177   2.0000      -0.062249        -1.6939
 178   2.0000      -0.051288        -1.3956
 179   0.0000       0.034521         0.9394
 180   0.0000       0.059330         1.6144
 181   0.0000       0.086489         2.3535
 182   0.0000       0.097743         2.6597
 183   0.0000       0.103121         2.8061

MULLIKEN ATOMIC CHARGES
-----------------------
   0 C :    0.230124
   1 N :   -0.419231
   2 C :   -0.067394
   3 N :   -0.342958
   4 C :   -0.077902
   5 N :   -0.564875
   6 C :   -0.026966
   7 N :   -0.337100
   8 C :    0.227177
   9 N :   -0.565653
  10 C :    0.106120
  11 N :   -0.438971
  12 C :   -0.058974
  13 N :   -0.449450
  14 C :    0.220914
  15 N :   -0.441463
  16 C :    0.253727
  17 C :   -0.034209
  18 C :   -0.175982
  19 C :    0.227058
  20 C :    0.191943
  21 C :   -0.066294
  22 C :   -0.089115
  23 C :   -0.064709
  24 C :    0.216927
  25 C :    0.114495
  26 C :   -0.067986
  27 C :    0.243802
  28 C :   -0.041201
  29 C :   -0.194624
  30 C :    0.222715
  31 C :    0.191362
  32 C :   -0.064571
  33 C :   -0.099844
  34 C :   -0.049954
  35 C :    0.181503
  36 C :    0.120079
  37 C :   -0.069903
  38 C :    0.244022
  39 C :   -0.065207
  40 C :   -0.201868
  41 C :    0.216077
  42 C :    0.210840
  43 C :   -0.076912
  44 C :   -0.091166
  45 C :   -0.040438
  46 C :    0.187270
  47 C :    0.116556
  48 C :   -0.081798
  49 C :    0.210260
  50 C :   -0.064993
  51 C :   -0.189918
  52 H :    0.077059
  53 H :   -0.008490
  54 H :    0.063088
  55 H :    0.075397
  56 H :    0.080179
  57 H :    0.072641
  58 H :    0.071170
  59 H :   -0.026784
  60 H :    0.062204
  61 H :    0.176301
  62 H :    0.168717
  63 H :    0.053933
  64 H :   -0.032945
  65 H :    0.041984
  66 H :    0.055873
  67 H :    0.059461
  68 H :    0.056617
  69 H :    0.059342
  70 H :   -0.015571
  71 H :    0.047498
  72 H :    0.040063
  73 H :   -0.018760
  74 H :    0.031792
  75 H :    0.038748
  76 H :    0.048349
  77 H :    0.047688
  78 H :    0.046876
  79 H :   -0.011732
  80 H :    0.031530
  81 H :    0.050858
  82 H :   -0.023391
  83 H :    0.042730
  84 H :    0.049822
  85 H :    0.054941
  86 H :    0.056348
  87 H :    0.054808
  88 H :   -0.029759
  89 H :    0.040073
Sum of atomic charges:    0.0000000

LOEWDIN ATOMIC CHARGES
----------------------
   0 C :    0.031873
   1 N :    0.181754
   2 C :   -0.099907
   3 N :    0.171993
   4 C :    0.101001
   5 N :   -0.146037
   6 C :   -0.009448
   7 N :    0.177416
   8 C :    0.029018
   9 N :   -0.138445
  10 C :    0.038366
  11 N :    0.141147
  12 C :   -0.096811
  13 N :    0.117345
  14 C :   -0.060513
  15 N :    0.135307
  16 C :   -0.020985
  17 C :   -0.013160
  18 C :   -0.118153
  19 C :   -0.089534
  20 C :   -0.014592
  21 C :   -0.099360
  22 C :    0.036826
  23 C :   -0.031819
  24 C :    0.007630
  25 C :    0.029665
  26 C :   -0.094767
  27 C :   -0.061004
  28 C :   -0.015270
  29 C :   -0.115992
  30 C :   -0.063074
  31 C :   -0.022416
  32 C :   -0.100097
  33 C :    0.000077
  34 C :   -0.025529
  35 C :   -0.031177
  36 C :    0.024005
  37 C :   -0.108590
  38 C :   -0.029976
  39 C :   -0.033459
  40 C :   -0.112669
  41 C :   -0.094828
  42 C :   -0.000096
  43 C :   -0.113100
  44 C :    0.028852
  45 C :   -0.015464
  46 C :   -0.020608
  47 C :    0.028348
  48 C :   -0.114445
  49 C :   -0.113574
  50 C :   -0.031791
  51 C :   -0.109155
  52 H :    0.039678
  53 H :    0.006985
  54 H :    0.053804
  55 H :    0.039431
  56 H :    0.037441
  57 H :    0.037968
  58 H :    0.038119
  59 H :    0.000134
  60 H :    0.053325
  61 H :    0.062211
  62 H :    0.058216
  63 H :    0.029322
  64 H :   -0.004514
  65 H :    0.042388
  66 H :    0.030291
  67 H :    0.026959
  68 H :    0.031314
  69 H :    0.031460
  70 H :    0.002112
  71 H :    0.045737
  72 H :    0.023227
  73 H :    0.002006
  74 H :    0.038753
  75 H :    0.022225
  76 H :    0.021108
  77 H :    0.026665
  78 H :    0.026332
  79 H :    0.005537
  80 H :    0.037812
  81 H :    0.028131
  82 H :   -0.001566
  83 H :    0.044034
  84 H :    0.027096
  85 H :    0.024606
  86 H :    0.030356
  87 H :    0.030251
  88 H :   -0.004901
  89 H :    0.041169

  Mayer bond orders larger than 0.100000
B(  0-C ,  1-N ) :   1.1863 B(  0-C , 17-C ) :   1.5416 B(  0-C , 52-H ) :   0.9673
B(  1-N ,  8-C ) :   1.1793 B(  1-N , 10-C ) :   0.9333 B(  2-C , 12-C ) :   1.5701
B(  2-C , 16-C ) :   1.2832 B(  2-C , 53-H ) :   0.9791 B(  3-N , 14-C ) :   1.1788
B(  3-N , 16-C ) :   1.2023 B(  3-N , 61-H ) :   0.8960 B(  4-C ,  6-C ) :   1.3378
B(  4-C , 17-C ) :   1.3417 B(  4-C , 18-C ) :   1.0914 B(  5-N , 19-C ) :   1.3739
B(  5-N , 27-C ) :   1.4414 B(  6-C ,  8-C ) :   1.5464 B(  6-C , 54-H ) :   0.9709
B(  7-N , 30-C ) :   1.1847 B(  7-N , 38-C ) :   1.2138 B(  7-N , 62-H ) :   0.9007
B(  8-C , 55-H ) :   0.9684 B(  9-N , 41-C ) :   1.4289 B(  9-N , 49-C ) :   1.3986
B( 10-C , 56-H ) :   0.9765 B( 10-C , 57-H ) :   0.9812 B( 10-C , 58-H ) :   0.9819
B( 11-N , 20-C ) :   1.1037 B( 11-N , 24-C ) :   1.1350 B( 11-N , 25-C ) :   0.9605
B( 12-C , 14-C ) :   1.2840 B( 12-C , 59-H ) :   0.9774 B( 13-N , 31-C ) :   1.0896
B( 13-N , 35-C ) :   1.0789 B( 13-N , 36-C ) :   0.9785 B( 14-C , 18-C ) :   1.2517
B( 15-N , 42-C ) :   1.1245 B( 15-N , 46-C ) :   1.0945 B( 15-N , 47-C ) :   0.9655
B( 16-C , 51-C ) :   1.2377 B( 17-C , 60-H ) :   0.9711 B( 18-C , 19-C ) :   1.2940
B( 19-C , 21-C ) :   1.1732 B( 20-C , 28-C ) :   1.6256 B( 20-C , 63-H ) :   0.9707
B( 21-C , 26-C ) :   1.6735 B( 21-C , 64-H ) :   0.9726 B( 22-C , 23-C ) :   1.2620
B( 22-C , 28-C ) :   1.2810 B( 22-C , 29-C ) :   1.2491 B( 23-C , 24-C ) :   1.6297
B( 23-C , 65-H ) :   0.9720 B( 24-C , 66-H ) :   0.9690 B( 25-C , 67-H ) :   0.9763
B( 25-C , 68-H ) :   0.9833 B( 25-C , 69-H ) :   0.9819 B( 26-C , 27-C ) :   1.1795
B( 26-C , 70-H ) :   0.9752 B( 27-C , 29-C ) :   1.2383 B( 28-C , 71-H ) :   0.9709
B( 29-C , 30-C ) :   1.1845 B( 30-C , 32-C ) :   1.3420 B( 31-C , 39-C ) :   1.6750
B( 31-C , 72-H ) :   0.9707 B( 32-C , 37-C ) :   1.5175 B( 32-C , 73-H ) :   0.9772
B( 33-C , 34-C ) :   1.2405 B( 33-C , 39-C ) :   1.2322 B( 33-C , 40-C ) :   1.3370
B( 34-C , 35-C ) :   1.6731 B( 34-C , 74-H ) :   0.9709 B( 35-C , 75-H ) :   0.9707
B( 36-C , 76-H ) :   0.9756 B( 36-C , 77-H ) :   0.9825 B( 36-C , 78-H ) :   0.9837
B( 37-C , 38-C ) :   1.3373 B( 37-C , 79-H ) :   0.9790 B( 38-C , 40-C ) :   1.1852
B( 39-C , 80-H ) :   0.9721 B( 40-C , 41-C ) :   1.1765 B( 41-C , 43-C ) :   1.2504
B( 42-C , 50-C ) :   1.6403 B( 42-C , 81-H ) :   0.9696 B( 43-C , 48-C ) :   1.6006
B( 43-C , 82-H ) :   0.9752 B( 44-C , 45-C ) :   1.2790 B( 44-C , 50-C ) :   1.2527
B( 44-C , 51-C ) :   1.2507 B( 45-C , 46-C ) :   1.6328 B( 45-C , 83-H ) :   0.9704
B( 46-C , 84-H ) :   0.9708 B( 47-C , 85-H ) :   0.9760 B( 47-C , 86-H ) :   0.9826
B( 47-C , 87-H ) :   0.9829 B( 48-C , 49-C ) :   1.2455 B( 48-C , 88-H ) :   0.9728
B( 49-C , 51-C ) :   1.1929 B( 50-C , 89-H ) :   0.9720

MP2 TOTAL ENERGY:    -2130.884576335 Eh
FINAL SINGLE POINT ENERGY     -2130.884576335474

DIPOLE MOMENT
-------------
                                X             Y             Z
Electronic contribution:     -3.78423       4.03759      -0.16625
Nuclear contribution   :     -0.01754       0.17152       0.21564
                        -----------------------------------------
Total Dipole Moment    :     -3.80177       4.20911       0.04939
                        -----------------------------------------
Magnitude (a.u.)       :      5.67208
Magnitude (Debye)      :     14.41728

Rotational constants in cm-1:     0.001498     0.001473     0.000763
Rotational constants in MHz :    44.899153    44.146836    22.866516

                             ****ORCA TERMINATED NORMALLY****
TOTAL RUN TIME: 0 days 1 hours 36 minutes 25 seconds 387 msec
