                         Program Version 5.0.4 -  RELEASE  -
|  1> ! PAL2
|  2> ! mp2 cc-pvdz TightSCF  NoKeepInts
|  3>
|  4> %scf
|  5>   MaxCore 2000
|  6> end
|  7> %mp2
|  8>   MaxCore 2000
|  9> end
| 10> * xyz 0 1
| 11>    C       -3.24100         6.33900         0.81700
| 12>    C        1.47400         4.04100         0.05700
| 13>    C       -2.80200         4.09300         0.04900
| 14>    C       -3.99700         4.16500        -0.68300
| 15>    C       -4.76700         5.31000        -0.64500
| 16>    C       -5.21400         7.60200         0.09000
| 17>    C        0.13200         4.30700         0.06100
| 18>    C       -0.56900         3.05600         0.04700
| 19>    C        1.64900         2.61800         0.02300
| 20>    C       -2.43500         5.21700         0.80500
| 21>    N       -4.38700         6.37500         0.10000
| 22>    N        0.38800         2.06700         0.02500
| 23>    N       -2.01000         0.39500        -0.07500
| 24>    N       -0.38800        -2.07400        -0.02700
| 25>    N        2.01000        -0.40100         0.06500
| 26>    C       -1.96000         2.86100         0.02400
| 27>    C       -2.62300         1.61500        -0.01800
| 28>    C       -5.57300        -4.32900         1.06600
| 29>    C       -4.07300         1.47100         0.05600
| 30>    C       -4.10600        -2.75600        -0.02600
| 31>    C       -4.99500        -2.75700        -1.11100
| 32>    C       -6.13200        -3.54200        -1.07600
| 33>    C       -7.65100        -5.11300         0.04000
| 34>    C       -4.32400         0.14100         0.03700
| 35>    C       -3.02500        -0.52000        -0.04800
| 36>    C       -4.42200        -3.56600         1.07500
| 37>    N       -6.40700        -4.31300         0.00100
| 38>    C       -2.86700        -1.92200        -0.04000
| 39>    C       -1.65000        -2.62400        -0.02700
| 40>    C        3.56800        -6.14200        -1.04000
| 41>    C       -1.47600        -4.04900        -0.03400
| 42>    C        2.80300        -4.09900        -0.00800
| 43>    C        3.65700        -4.38400         1.06900
| 44>    C        4.42700        -5.53000         1.05900
| 45>    C        5.24500        -7.58800         0.01400
| 46>    C       -0.13400        -4.31500        -0.02200
| 47>    C        0.56800        -3.06400        -0.02700
| 48>    C        2.77500        -5.01200        -1.07400
| 49>    N        4.37600        -6.39100         0.01700
| 50>    C        1.95900        -2.86900        -0.00900
| 51>    C        2.62100        -1.62200         0.00900
| 52>    C        5.54300         4.33900        -1.13000
| 53>    C        4.07000        -1.47900        -0.09400
| 54>    C        4.10400         2.75100        -0.02100
| 55>    C        5.02700         2.72900         1.03600
| 56>    C        6.16600         3.50900         0.97800
| 57>    C        7.61900         5.15300        -0.11500
| 58>    C        4.32100        -0.14800        -0.09200
| 59>    C        3.02500         0.51400         0.01500
| 60>    C        4.38700         3.58200        -1.11500
| 61>    C        2.86600         1.91600         0.01300
| 62>    N        6.41300         4.29600        -0.09500
| 63>    H       -3.00300         7.22300         1.39500
| 64>    H        2.27400         4.76600         0.08100
| 65>    H       -4.32900         3.33300        -1.29300
| 66>    H       -5.69000         5.41500        -1.19900
| 67>    H       -4.91900         8.22300        -0.75900
| 68>    H       -6.26300         7.31700         0.00100
| 69>    H       -5.05200         8.14100         1.02300
| 70>    H       -0.33200         5.28200         0.06900
| 71>    H       -1.53000         5.21800         1.40300
| 72>    H        0.18200         1.07200         0.00500
| 73>    H       -0.18300        -1.08000        -0.02100
| 74>    H       -5.86400        -4.96200         1.89500
| 75>    H       -4.79400         2.27200         0.13900
| 76>    H       -4.80000        -2.16000        -1.99400
| 77>    H       -6.84100        -3.58200        -1.89300
| 78>    H       -8.42800        -4.53600         0.54600
| 79>    H       -7.95600        -5.33700        -0.98100
| 80>    H       -7.45600        -6.03700         0.58400
| 81>    H       -5.28700        -0.34400         0.10000
| 82>    H       -3.78000        -3.60100         1.94700
| 83>    H        3.58700        -6.86800        -1.84300
| 84>    H       -2.27600        -4.77400        -0.05000
| 85>    H        3.71400        -3.72400         1.92600
| 86>    H        5.09200        -5.79500         1.87100
| 87>    H        6.20500        -7.32900        -0.43900
| 88>    H        5.39300        -7.91700         1.04200
| 89>    H        4.75900        -8.37300        -0.56400
| 90>    H        0.32900        -5.29000        -0.00800
| 91>    H        2.14600        -4.84200        -1.94000
| 92>    H        5.80800         4.98600        -1.95600
| 93>    H        4.78800        -2.28100        -0.18500
| 94>    H        4.86000         2.11400         1.91200
| 95>    H        6.90100         3.53100         1.77200
| 96>    H        7.38300         6.10900         0.35600
| 97>    H        8.41400         4.65200         0.43500
| 98>    H        7.92100         5.31000        -1.15000
| 99>    H        5.28300         0.33600        -0.17900
|100>    H        3.72000         3.63200        -1.96700
|101> *
|102>
|103>                          ****END OF INPUT****

CARTESIAN COORDINATES (ANGSTROEM)
---------------------------------
  C     -3.241000    6.339000    0.817000
  C      1.474000    4.041000    0.057000
  C     -2.802000    4.093000    0.049000
  C     -3.997000    4.165000   -0.683000
  C     -4.767000    5.310000   -0.645000
  C     -5.214000    7.602000    0.090000
  C      0.132000    4.307000    0.061000
  C     -0.569000    3.056000    0.047000
  C      1.649000    2.618000    0.023000
  C     -2.435000    5.217000    0.805000
  N     -4.387000    6.375000    0.100000
  N      0.388000    2.067000    0.025000
  N     -2.010000    0.395000   -0.075000
  N     -0.388000   -2.074000   -0.027000
  N      2.010000   -0.401000    0.065000
  C     -1.960000    2.861000    0.024000
  C     -2.623000    1.615000   -0.018000
  C     -5.573000   -4.329000    1.066000
  C     -4.073000    1.471000    0.056000
  C     -4.106000   -2.756000   -0.026000
  C     -4.995000   -2.757000   -1.111000
  C     -6.132000   -3.542000   -1.076000
  C     -7.651000   -5.113000    0.040000
  C     -4.324000    0.141000    0.037000
  C     -3.025000   -0.520000   -0.048000
  C     -4.422000   -3.566000    1.075000
  N     -6.407000   -4.313000    0.001000
  C     -2.867000   -1.922000   -0.040000
  C     -1.650000   -2.624000   -0.027000
  C      3.568000   -6.142000   -1.040000
  C     -1.476000   -4.049000   -0.034000
  C      2.803000   -4.099000   -0.008000
  C      3.657000   -4.384000    1.069000
  C      4.427000   -5.530000    1.059000
  C      5.245000   -7.588000    0.014000
  C     -0.134000   -4.315000   -0.022000
  C      0.568000   -3.064000   -0.027000
  C      2.775000   -5.012000   -1.074000
  N      4.376000   -6.391000    0.017000
  C      1.959000   -2.869000   -0.009000
  C      2.621000   -1.622000    0.009000
  C      5.543000    4.339000   -1.130000
  C      4.070000   -1.479000   -0.094000
  C      4.104000    2.751000   -0.021000
  C      5.027000    2.729000    1.036000
  C      6.166000    3.509000    0.978000
  C      7.619000    5.153000   -0.115000
  C      4.321000   -0.148000   -0.092000
  C      3.025000    0.514000    0.015000
  C      4.387000    3.582000   -1.115000
  C      2.866000    1.916000    0.013000
  N      6.413000    4.296000   -0.095000
  H     -3.003000    7.223000    1.395000
  H      2.274000    4.766000    0.081000
  H     -4.329000    3.333000   -1.293000
  H     -5.690000    5.415000   -1.199000
  H     -4.919000    8.223000   -0.759000
  H     -6.263000    7.317000    0.001000
  H     -5.052000    8.141000    1.023000
  H     -0.332000    5.282000    0.069000
  H     -1.530000    5.218000    1.403000
  H      0.182000    1.072000    0.005000
  H     -0.183000   -1.080000   -0.021000
  H     -5.864000   -4.962000    1.895000
  H     -4.794000    2.272000    0.139000
  H     -4.800000   -2.160000   -1.994000
  H     -6.841000   -3.582000   -1.893000
  H     -8.428000   -4.536000    0.546000
  H     -7.956000   -5.337000   -0.981000
  H     -7.456000   -6.037000    0.584000
  H     -5.287000   -0.344000    0.100000
  H     -3.780000   -3.601000    1.947000
  H      3.587000   -6.868000   -1.843000
  H     -2.276000   -4.774000   -0.050000
  H      3.714000   -3.724000    1.926000
  H      5.092000   -5.795000    1.871000
  H      6.205000   -7.329000   -0.439000
  H      5.393000   -7.917000    1.042000
  H      4.759000   -8.373000   -0.564000
  H      0.329000   -5.290000   -0.008000
  H      2.146000   -4.842000   -1.940000
  H      5.808000    4.986000   -1.956000
  H      4.788000   -2.281000   -0.185000
  H      4.860000    2.114000    1.912000
  H      6.901000    3.531000    1.772000
  H      7.383000    6.109000    0.356000
  H      8.414000    4.652000    0.435000
  H      7.921000    5.310000   -1.150000
  H      5.283000    0.336000   -0.179000
  H      3.720000    3.632000   -1.967000

 Total Charge           Charge          ....    0
 Multiplicity           Mult            ....    1
 Number of Electrons    NEL             ....  358
 Basis Dimension        Dim             ....  918

ORBITAL ENERGIES
----------------

  NO   OCC          E(Eh)            E(eV)
   0   2.0000     -15.668077      -426.3500
   1   2.0000     -15.637901      -425.5289
   2   2.0000     -15.628669      -425.2777
   3   2.0000     -15.593826      -424.3296
   4   2.0000     -15.524493      -422.4429
   5   2.0000     -15.515841      -422.2075
   6   2.0000     -15.450743      -420.4361
   7   2.0000     -15.443312      -420.2339
   8   2.0000     -11.320695      -308.0518
   9   2.0000     -11.320174      -308.0376
  10   2.0000     -11.317954      -307.9772
  11   2.0000     -11.301769      -307.5368
  12   2.0000     -11.296273      -307.3872
  13   2.0000     -11.295624      -307.3695
  14   2.0000     -11.290773      -307.2375
  15   2.0000     -11.287812      -307.1570
  16   2.0000     -11.284309      -307.0617
  17   2.0000     -11.275372      -306.8185
  18   2.0000     -11.271053      -306.7009
  19   2.0000     -11.259760      -306.3936
  20   2.0000     -11.257096      -306.3211
  21   2.0000     -11.255161      -306.2685
  22   2.0000     -11.254230      -306.2432
  23   2.0000     -11.241516      -305.8972
  24   2.0000     -11.234086      -305.6950
  25   2.0000     -11.233523      -305.6797
  26   2.0000     -11.233421      -305.6769
  27   2.0000     -11.227259      -305.5092
  28   2.0000     -11.226980      -305.5017
  29   2.0000     -11.209418      -305.0238
  30   2.0000     -11.208086      -304.9875
  31   2.0000     -11.203995      -304.8762
  32   2.0000     -11.198551      -304.7281
  33   2.0000     -11.198263      -304.7202
  34   2.0000     -11.189806      -304.4901
  35   2.0000     -11.189491      -304.4815
  36   2.0000     -11.186307      -304.3949
  37   2.0000     -11.182628      -304.2948
  38   2.0000     -11.181773      -304.2715
  39   2.0000     -11.174484      -304.0732
  40   2.0000     -11.171337      -303.9875
  41   2.0000     -11.168311      -303.9052
  42   2.0000     -11.167463      -303.8821
  43   2.0000     -11.163105      -303.7635
  44   2.0000     -11.161816      -303.7285
  45   2.0000     -11.159914      -303.6767
  46   2.0000     -11.155744      -303.5632
  47   2.0000     -11.151182      -303.4391
  48   2.0000     -11.148221      -303.3585
  49   2.0000     -11.142449      -303.2015
  50   2.0000     -11.135297      -303.0068
  51   2.0000     -11.128391      -302.8189
  52   2.0000      -1.350412       -36.7466
  53   2.0000      -1.324618       -36.0447
  54   2.0000      -1.316819       -35.8325
  55   2.0000      -1.287662       -35.0391
  56   2.0000      -1.224889       -33.3309
  57   2.0000      -1.210456       -32.9382
  58   2.0000      -1.169032       -31.8110
  59   2.0000      -1.154102       -31.4047
  60   2.0000      -1.135232       -30.8912
  61   2.0000      -1.113050       -30.2876
  62   2.0000      -1.106523       -30.1100
  63   2.0000      -1.083351       -29.4795
  64   2.0000      -1.072824       -29.1930
  65   2.0000      -1.048657       -28.5354
  66   2.0000      -1.041575       -28.3427
  67   2.0000      -1.035751       -28.1842
  68   2.0000      -1.015863       -27.6430
  69   2.0000      -1.014483       -27.6055
  70   2.0000      -1.009463       -27.4689
  71   2.0000      -0.992709       -27.0130
  72   2.0000      -0.987431       -26.8694
  73   2.0000      -0.978324       -26.6216
  74   2.0000      -0.972259       -26.4565
  75   2.0000      -0.959517       -26.1098
  76   2.0000      -0.951568       -25.8935
  77   2.0000      -0.947082       -25.7714
  78   2.0000      -0.935879       -25.4666
  79   2.0000      -0.920357       -25.0442
  80   2.0000      -0.902599       -24.5610
  81   2.0000      -0.892076       -24.2746
  82   2.0000      -0.875813       -23.8321
  83   2.0000      -0.870910       -23.6987
  84   2.0000      -0.866484       -23.5782
  85   2.0000      -0.855344       -23.2751
  86   2.0000      -0.841410       -22.8959
  87   2.0000      -0.837664       -22.7940
  88   2.0000      -0.822741       -22.3879
  89   2.0000      -0.798480       -21.7278
  90   2.0000      -0.793319       -21.5873
  91   2.0000      -0.747132       -20.3305
  92   2.0000      -0.738639       -20.0994
  93   2.0000      -0.732625       -19.9357
  94   2.0000      -0.723832       -19.6965
  95   2.0000      -0.720053       -19.5936
  96   2.0000      -0.714417       -19.4403
  97   2.0000      -0.707402       -19.2494
  98   2.0000      -0.703444       -19.1417
  99   2.0000      -0.696354       -18.9488
 100   2.0000      -0.695272       -18.9193
 101   2.0000      -0.682491       -18.5715
 102   2.0000      -0.679624       -18.4935
 103   2.0000      -0.676584       -18.4108
 104   2.0000      -0.675037       -18.3687
 105   2.0000      -0.671006       -18.2590
 106   2.0000      -0.666384       -18.1332
 107   2.0000      -0.662410       -18.0251
 108   2.0000      -0.656010       -17.8509
 109   2.0000      -0.653537       -17.7837
 110   2.0000      -0.649181       -17.6651
 111   2.0000      -0.644081       -17.5263
 112   2.0000      -0.642130       -17.4732
 113   2.0000      -0.637602       -17.3500
 114   2.0000      -0.636694       -17.3253
 115   2.0000      -0.627226       -17.0677
 116   2.0000      -0.624424       -16.9915
 117   2.0000      -0.615915       -16.7599
 118   2.0000      -0.615168       -16.7396
 119   2.0000      -0.612754       -16.6739
 120   2.0000      -0.608941       -16.5701
 121   2.0000      -0.604027       -16.4364
 122   2.0000      -0.600025       -16.3275
 123   2.0000      -0.587150       -15.9772
 124   2.0000      -0.584390       -15.9021
 125   2.0000      -0.583027       -15.8650
 126   2.0000      -0.578737       -15.7482
 127   2.0000      -0.577817       -15.7232
 128   2.0000      -0.564394       -15.3579
 129   2.0000      -0.558449       -15.1962
 130   2.0000      -0.552356       -15.0304
 131   2.0000      -0.548263       -14.9190
 132   2.0000      -0.542978       -14.7752
 133   2.0000      -0.539360       -14.6767
 134   2.0000      -0.537719       -14.6321
 135   2.0000      -0.534171       -14.5355
 136   2.0000      -0.525353       -14.2956
 137   2.0000      -0.524112       -14.2618
 138   2.0000      -0.518036       -14.0965
 139   2.0000      -0.513386       -13.9699
 140   2.0000      -0.511787       -13.9264
 141   2.0000      -0.510121       -13.8811
 142   2.0000      -0.509698       -13.8696
 143   2.0000      -0.503010       -13.6876
 144   2.0000      -0.500671       -13.6240
 145   2.0000      -0.496768       -13.5177
 146   2.0000      -0.494206       -13.4480
 147   2.0000      -0.485111       -13.2006
 148   2.0000      -0.481616       -13.1054
 149   2.0000      -0.467849       -12.7308
 150   2.0000      -0.464870       -12.6498
 151   2.0000      -0.456857       -12.4317
 152   2.0000      -0.449168       -12.2225
 153   2.0000      -0.446526       -12.1506
 154   2.0000      -0.443858       -12.0780
 155   2.0000      -0.439818       -11.9681
 156   2.0000      -0.430929       -11.7262
 157   2.0000      -0.426407       -11.6031
 158   2.0000      -0.402641       -10.9564
 159   2.0000      -0.386148       -10.5076
 160   2.0000      -0.380073       -10.3423
 161   2.0000      -0.378513       -10.2999
 162   2.0000      -0.370843       -10.0912
 163   2.0000      -0.359336        -9.7780
 164   2.0000      -0.353499        -9.6192
 165   2.0000      -0.338498        -9.2110
 166   2.0000      -0.337519        -9.1844
 167   2.0000      -0.328571        -8.9409
 168   2.0000      -0.327770        -8.9191
 169   2.0000      -0.303628        -8.2621
 170   2.0000      -0.299631        -8.1534
 171   2.0000      -0.286505        -7.7962
 172   2.0000      -0.283389        -7.7114
 173   2.0000      -0.260660        -7.0929
 174   2.0000      -0.244775        -6.6607
 175   2.0000      -0.189710        -5.1623
 176   2.0000      -0.179986        -4.8977
 177   2.0000      -0.073687        -2.0051
 178   2.0000      -0.057722        -1.5707
 179   0.0000       0.028737         0.7820
 180   0.0000       0.067126         1.8266
 181   0.0000       0.091901         2.5007
 182   0.0000       0.107141         2.9154
 183   0.0000       0.113952         3.1008

MULLIKEN ATOMIC CHARGES
-----------------------
   0 C :    0.209462
   1 N :   -0.454259
   2 C :   -0.064869
   3 N :   -0.336275
   4 C :   -0.053850
   5 N :   -0.560810
   6 C :   -0.107801
   7 N :   -0.339983
   8 C :    0.203937
   9 N :   -0.562688
  10 C :    0.118209
  11 N :   -0.437684
  12 C :   -0.080589
  13 N :   -0.432178
  14 C :    0.226979
  15 N :   -0.441432
  16 C :    0.229867
  17 C :   -0.116879
  18 C :   -0.173012
  19 C :    0.212926
  20 C :    0.213505
  21 C :   -0.092633
  22 C :   -0.088552
  23 C :   -0.041939
  24 C :    0.197704
  25 C :    0.114071
  26 C :   -0.074766
  27 C :    0.212742
  28 C :   -0.059086
  29 C :   -0.180848
  30 C :    0.243204
  31 C :    0.226267
  32 C :   -0.061966
  33 C :   -0.066072
  34 C :   -0.049649
  35 C :    0.220867
  36 C :    0.109783
  37 C :   -0.064887
  38 C :    0.233760
  39 C :   -0.059619
  40 C :   -0.182464
  41 C :    0.223284
  42 C :    0.197967
  43 C :   -0.072947
  44 C :   -0.090973
  45 C :   -0.059596
  46 C :    0.208407
  47 C :    0.115710
  48 C :   -0.069302
  49 C :    0.235337
  50 C :   -0.047959
  51 C :   -0.192910
  52 H :    0.042018
  53 H :   -0.016166
  54 H :    0.051457
  55 H :    0.039825
  56 H :    0.049826
  57 H :    0.049495
  58 H :    0.048144
  59 H :    0.000162
  60 H :    0.049996
  61 H :    0.171183
  62 H :    0.175098
  63 H :    0.056668
  64 H :   -0.005276
  65 H :    0.046947
  66 H :    0.056828
  67 H :    0.063412
  68 H :    0.057903
  69 H :    0.057587
  70 H :   -0.027663
  71 H :    0.046593
  72 H :    0.067580
  73 H :   -0.009302
  74 H :    0.056980
  75 H :    0.066782
  76 H :    0.071670
  77 H :    0.065474
  78 H :    0.064629
  79 H :   -0.015335
  80 H :    0.057519
  81 H :    0.053622
  82 H :   -0.024986
  83 H :    0.041232
  84 H :    0.053068
  85 H :    0.059738
  86 H :    0.055187
  87 H :    0.056684
  88 H :   -0.016253
  89 H :    0.046163
Sum of atomic charges:   -0.0000000

LOEWDIN ATOMIC CHARGES
----------------------
   0 C :   -0.018365
   1 N :    0.116852
   2 C :   -0.101614
   3 N :    0.182849
   4 C :   -0.003263
   5 N :   -0.131003
   6 C :   -0.034622
   7 N :    0.175971
   8 C :   -0.023475
   9 N :   -0.140134
  10 C :    0.024154
  11 N :    0.143938
  12 C :   -0.108615
  13 N :    0.159859
  14 C :   -0.034492
  15 N :    0.137499
  16 C :   -0.056357
  17 C :   -0.042466
  18 C :   -0.100916
  19 C :   -0.085196
  20 C :    0.005180
  21 C :   -0.113610
  22 C :    0.040033
  23 C :   -0.015837
  24 C :   -0.008609
  25 C :    0.030293
  26 C :   -0.107232
  27 C :   -0.112795
  28 C :   -0.025297
  29 C :   -0.099922
  30 C :   -0.034865
  31 C :    0.019363
  32 C :   -0.094379
  33 C :    0.071039
  34 C :   -0.015524
  35 C :    0.014871
  36 C :    0.033802
  37 C :   -0.095840
  38 C :   -0.047593
  39 C :   -0.020127
  40 C :   -0.108060
  41 C :   -0.094036
  42 C :   -0.010171
  43 C :   -0.101087
  44 C :    0.031256
  45 C :   -0.027320
  46 C :   -0.001218
  47 C :    0.029174
  48 C :   -0.098134
  49 C :   -0.074113
  50 C :   -0.020067
  51 C :   -0.109791
  52 H :    0.024416
  53 H :    0.003294
  54 H :    0.041836
  55 H :    0.023862
  56 H :    0.021828
  57 H :    0.027174
  58 H :    0.027384
  59 H :    0.009296
  60 H :    0.040691
  61 H :    0.060002
  62 H :    0.061649
  63 H :    0.031311
  64 H :    0.005103
  65 H :    0.045727
  66 H :    0.029889
  67 H :    0.028731
  68 H :    0.031935
  69 H :    0.030853
  70 H :   -0.003663
  71 H :    0.044368
  72 H :    0.035997
  73 H :    0.006490
  74 H :    0.049310
  75 H :    0.035419
  76 H :    0.033103
  77 H :    0.034996
  78 H :    0.034626
  79 H :    0.003571
  80 H :    0.049027
  81 H :    0.028792
  82 H :   -0.002750
  83 H :    0.042316
  84 H :    0.029295
  85 H :    0.026831
  86 H :    0.029992
  87 H :    0.031157
  88 H :    0.001544
  89 H :    0.044607

  Mayer bond orders larger than 0.100000
B(  0-C ,  1-N ) :   1.0955 B(  0-C , 17-C ) :   1.6968 B(  0-C , 52-H ) :   0.9673
B(  1-N ,  8-C ) :   1.0848 B(  1-N , 10-C ) :   0.9764 B(  2-C , 12-C ) :   1.5147
B(  2-C , 16-C ) :   1.3490 B(  2-C , 53-H ) :   0.9764 B(  3-N , 14-C ) :   1.2162
B(  3-N , 16-C ) :   1.1926 B(  3-N , 61-H ) :   0.8994 B(  4-C ,  6-C ) :   1.2161
B(  4-C , 17-C ) :   1.2151 B(  4-C , 18-C ) :   1.4099 B(  5-N , 19-C ) :   1.4485
B(  5-N , 27-C ) :   1.3833 B(  6-C ,  8-C ) :   1.7005 B(  6-C , 54-H ) :   0.9628
B(  7-N , 30-C ) :   1.1938 B(  7-N , 38-C ) :   1.1940 B(  7-N , 62-H ) :   0.8970
B(  8-C , 55-H ) :   0.9689 B(  9-N , 41-C ) :   1.3947 B(  9-N , 49-C ) :   1.4265
B( 10-C , 56-H ) :   0.9766 B( 10-C , 57-H ) :   0.9830 B( 10-C , 58-H ) :   0.9834
B( 11-N , 20-C ) :   1.1313 B( 11-N , 24-C ) :   1.1127 B( 11-N , 25-C ) :   0.9586
B( 12-C , 14-C ) :   1.3511 B( 12-C , 59-H ) :   0.9747 B( 13-N , 31-C ) :   1.1527
B( 13-N , 35-C ) :   1.1470 B( 13-N , 36-C ) :   0.9462 B( 14-C , 18-C ) :   1.1417
B( 15-N , 42-C ) :   1.1079 B( 15-N , 46-C ) :   1.1200 B( 15-N , 47-C ) :   0.9624
B( 16-C , 51-C ) :   1.1767 B( 17-C , 60-H ) :   0.9632 B( 18-C , 19-C ) :   1.1461
B( 19-C , 21-C ) :   1.2377 B( 20-C , 28-C ) :   1.6250 B( 20-C , 63-H ) :   0.9702
B( 21-C , 26-C ) :   1.6203 B( 21-C , 64-H ) :   0.9715 B( 22-C , 23-C ) :   1.2903
B( 22-C , 28-C ) :   1.2687 B( 22-C , 29-C ) :   1.2205 B( 23-C , 24-C ) :   1.6170
B( 23-C , 65-H ) :   0.9705 B( 24-C , 66-H ) :   0.9694 B( 25-C , 67-H ) :   0.9760
B( 25-C , 68-H ) :   0.9828 B( 25-C , 69-H ) :   0.9822 B( 26-C , 27-C ) :   1.2324
B( 26-C , 70-H ) :   0.9711 B( 27-C , 29-C ) :   1.2173 B( 28-C , 71-H ) :   0.9718
B( 29-C , 30-C ) :   1.2377 B( 30-C , 32-C ) :   1.2863 B( 31-C , 39-C ) :   1.5993
B( 31-C , 72-H ) :   0.9685 B( 32-C , 37-C ) :   1.5729 B( 32-C , 73-H ) :   0.9783
B( 33-C , 34-C ) :   1.3003 B( 33-C , 39-C ) :   1.2936 B( 33-C , 40-C ) :   1.1931
B( 34-C , 35-C ) :   1.5958 B( 34-C , 74-H ) :   0.9698 B( 35-C , 75-H ) :   0.9686
B( 36-C , 76-H ) :   0.9766 B( 36-C , 77-H ) :   0.9817 B( 36-C , 78-H ) :   0.9825
B( 37-C , 38-C ) :   1.2900 B( 37-C , 79-H ) :   0.9769 B( 38-C , 40-C ) :   1.2286
B( 39-C , 80-H ) :   0.9708 B( 40-C , 41-C ) :   1.2424 B( 41-C , 43-C ) :   1.1940
B( 42-C , 50-C ) :   1.6357 B( 42-C , 81-H ) :   0.9697 B( 43-C , 48-C ) :   1.6577
B( 43-C , 82-H ) :   0.9724 B( 44-C , 45-C ) :   1.2632 B( 44-C , 50-C ) :   1.2689
B( 44-C , 51-C ) :   1.2641 B( 45-C , 46-C ) :   1.6366 B( 45-C , 83-H ) :   0.9717
B( 46-C , 84-H ) :   0.9701 B( 47-C , 85-H ) :   0.9762 B( 47-C , 86-H ) :   0.9829
B( 47-C , 87-H ) :   0.9825 B( 48-C , 49-C ) :   1.1971 B( 48-C , 88-H ) :   0.9747
B( 49-C , 51-C ) :   1.2330 B( 50-C , 89-H ) :   0.9710

MP2 TOTAL ENERGY:    -2130.907042393 Eh
FINAL SINGLE POINT ENERGY     -2130.907042393353

DIPOLE MOMENT
-------------
                                X             Y             Z
Electronic contribution:      1.82494      -3.62316      -0.06357
Nuclear contribution   :      0.00136       0.18593       0.07313
                        -----------------------------------------
Total Dipole Moment    :      1.82630      -3.43723       0.00956
                        -----------------------------------------
Magnitude (a.u.)       :      3.89230
Magnitude (Debye)      :      9.89345

Rotational constants in cm-1:     0.001501     0.001475     0.000761
Rotational constants in MHz :    45.012940    44.232489    22.813830

                             ****ORCA TERMINATED NORMALLY****
TOTAL RUN TIME: 0 days 1 hours 8 minutes 40 seconds 851 msec
