                         Program Version 5.0.4 -  RELEASE  -
|  1> ! PAL2
|  2> ! mp2 cc-pvdz TightSCF  NoKeepInts
|  3>
|  4> %scf
|  5>   MaxCore 2000
|  6> end
|  7> %mp2
|  8>   MaxCore 2000
|  9> end
| 10> * xyz 0 1
| 11>    C       -4.92200         5.19800         0.37700
| 12>    C        1.47400         4.04100         0.05700
| 13>    C       -2.80200         4.09300         0.04900
| 14>    C       -2.25300         5.34800        -0.25700
| 15>    C       -3.04800         6.47700        -0.23400
| 16>    C       -5.17800         7.62500         0.12900
| 17>    C        0.13200         4.30700         0.06100
| 18>    C       -0.56900         3.05600         0.04700
| 19>    C        1.64900         2.61800         0.02300
| 20>    C       -4.16700         4.04200         0.37300
| 21>    N       -4.36200         6.39200         0.07600
| 22>    N        0.38800         2.06700         0.02500
| 23>    N       -2.01000         0.39500        -0.07500
| 24>    N       -0.38800        -2.07400        -0.02700
| 25>    N        2.01000        -0.40100         0.06500
| 26>    C       -1.96000         2.86100         0.02400
| 27>    C       -2.62300         1.61500        -0.01800
| 28>    C       -5.57300        -4.32900         1.06600
| 29>    C       -4.07300         1.47100         0.05600
| 30>    C       -4.10600        -2.75600        -0.02600
| 31>    C       -4.99500        -2.75700        -1.11100
| 32>    C       -6.13200        -3.54200        -1.07600
| 33>    C       -7.65100        -5.11300         0.04000
| 34>    C       -4.32400         0.14100         0.03700
| 35>    C       -3.02500        -0.52000        -0.04800
| 36>    C       -4.42200        -3.56600         1.07500
| 37>    N       -6.40700        -4.31300         0.00100
| 38>    C       -2.86700        -1.92200        -0.04000
| 39>    C       -1.65000        -2.62400        -0.02700
| 40>    C        3.56800        -6.14200        -1.04000
| 41>    C       -1.47600        -4.04900        -0.03400
| 42>    C        2.80300        -4.09900        -0.00800
| 43>    C        3.65700        -4.38400         1.06900
| 44>    C        4.42700        -5.53000         1.05900
| 45>    C        5.24500        -7.58800         0.01400
| 46>    C       -0.13400        -4.31500        -0.02200
| 47>    C        0.56800        -3.06400        -0.02700
| 48>    C        2.77500        -5.01200        -1.07400
| 49>    N        4.37600        -6.39100         0.01700
| 50>    C        1.95900        -2.86900        -0.00900
| 51>    C        2.62100        -1.62200         0.00900
| 52>    C        5.54300         4.33900        -1.13000
| 53>    C        4.07000        -1.47900        -0.09400
| 54>    C        4.10400         2.75100        -0.02100
| 55>    C        5.02700         2.72900         1.03600
| 56>    C        6.16600         3.50900         0.97800
| 57>    C        7.61900         5.15300        -0.11500
| 58>    C        4.32100        -0.14800        -0.09200
| 59>    C        3.02500         0.51400         0.01500
| 60>    C        4.38700         3.58200        -1.11500
| 61>    C        2.86600         1.91600         0.01300
| 62>    N        6.41300         4.29600        -0.09500
| 63>    H       -5.98000         5.20400         0.60800
| 64>    H        2.27400         4.76600         0.08100
| 65>    H       -1.20400         5.45300        -0.50600
| 66>    H       -2.66800         7.46600        -0.45400
| 67>    H       -5.08000         8.07400         1.12000
| 68>    H       -4.81900         8.31700        -0.63300
| 69>    H       -6.21900         7.36600        -0.06300
| 70>    H       -0.33200         5.28200         0.06900
| 71>    H       -4.65200         3.10100         0.60500
| 72>    H        0.18200         1.07200         0.00500
| 73>    H       -0.18300        -1.08000        -0.02100
| 74>    H       -5.86400        -4.96200         1.89500
| 75>    H       -4.79400         2.27200         0.13900
| 76>    H       -4.80000        -2.16000        -1.99400
| 77>    H       -6.84100        -3.58200        -1.89300
| 78>    H       -8.42800        -4.53600         0.54600
| 79>    H       -7.95600        -5.33700        -0.98100
| 80>    H       -7.45600        -6.03700         0.58400
| 81>    H       -5.28700        -0.34400         0.10000
| 82>    H       -3.78000        -3.60100         1.94700
| 83>    H        3.58700        -6.86800        -1.84300
| 84>    H       -2.27600        -4.77400        -0.05000
| 85>    H        3.71400        -3.72400         1.92600
| 86>    H        5.09200        -5.79500         1.87100
| 87>    H        6.20500        -7.32900        -0.43900
| 88>    H        5.39300        -7.91700         1.04200
| 89>    H        4.75900        -8.37300        -0.56400
| 90>    H        0.32900        -5.29000        -0.00800
| 91>    H        2.14600        -4.84200        -1.94000
| 92>    H        5.80800         4.98600        -1.95600
| 93>    H        4.78800        -2.28100        -0.18500
| 94>    H        4.86000         2.11400         1.91200
| 95>    H        6.90100         3.53100         1.77200
| 96>    H        7.38300         6.10900         0.35600
| 97>    H        8.41400         4.65200         0.43500
| 98>    H        7.92100         5.31000        -1.15000
| 99>    H        5.28300         0.33600        -0.17900
|100>    H        3.72000         3.63200        -1.96700
|101> *
|102>
|103>                          ****END OF INPUT****

CARTESIAN COORDINATES (ANGSTROEM)
---------------------------------
  C     -4.922000    5.198000    0.377000
  C      1.474000    4.041000    0.057000
  C     -2.802000    4.093000    0.049000
  C     -2.253000    5.348000   -0.257000
  C     -3.048000    6.477000   -0.234000
  C     -5.178000    7.625000    0.129000
  C      0.132000    4.307000    0.061000
  C     -0.569000    3.056000    0.047000
  C      1.649000    2.618000    0.023000
  C     -4.167000    4.042000    0.373000
  N     -4.362000    6.392000    0.076000
  N      0.388000    2.067000    0.025000
  N     -2.010000    0.395000   -0.075000
  N     -0.388000   -2.074000   -0.027000
  N      2.010000   -0.401000    0.065000
  C     -1.960000    2.861000    0.024000
  C     -2.623000    1.615000   -0.018000
  C     -5.573000   -4.329000    1.066000
  C     -4.073000    1.471000    0.056000
  C     -4.106000   -2.756000   -0.026000
  C     -4.995000   -2.757000   -1.111000
  C     -6.132000   -3.542000   -1.076000
  C     -7.651000   -5.113000    0.040000
  C     -4.324000    0.141000    0.037000
  C     -3.025000   -0.520000   -0.048000
  C     -4.422000   -3.566000    1.075000
  N     -6.407000   -4.313000    0.001000
  C     -2.867000   -1.922000   -0.040000
  C     -1.650000   -2.624000   -0.027000
  C      3.568000   -6.142000   -1.040000
  C     -1.476000   -4.049000   -0.034000
  C      2.803000   -4.099000   -0.008000
  C      3.657000   -4.384000    1.069000
  C      4.427000   -5.530000    1.059000
  C      5.245000   -7.588000    0.014000
  C     -0.134000   -4.315000   -0.022000
  C      0.568000   -3.064000   -0.027000
  C      2.775000   -5.012000   -1.074000
  N      4.376000   -6.391000    0.017000
  C      1.959000   -2.869000   -0.009000
  C      2.621000   -1.622000    0.009000
  C      5.543000    4.339000   -1.130000
  C      4.070000   -1.479000   -0.094000
  C      4.104000    2.751000   -0.021000
  C      5.027000    2.729000    1.036000
  C      6.166000    3.509000    0.978000
  C      7.619000    5.153000   -0.115000
  C      4.321000   -0.148000   -0.092000
  C      3.025000    0.514000    0.015000
  C      4.387000    3.582000   -1.115000
  C      2.866000    1.916000    0.013000
  N      6.413000    4.296000   -0.095000
  H     -5.980000    5.204000    0.608000
  H      2.274000    4.766000    0.081000
  H     -1.204000    5.453000   -0.506000
  H     -2.668000    7.466000   -0.454000
  H     -5.080000    8.074000    1.120000
  H     -4.819000    8.317000   -0.633000
  H     -6.219000    7.366000   -0.063000
  H     -0.332000    5.282000    0.069000
  H     -4.652000    3.101000    0.605000
  H      0.182000    1.072000    0.005000
  H     -0.183000   -1.080000   -0.021000
  H     -5.864000   -4.962000    1.895000
  H     -4.794000    2.272000    0.139000
  H     -4.800000   -2.160000   -1.994000
  H     -6.841000   -3.582000   -1.893000
  H     -8.428000   -4.536000    0.546000
  H     -7.956000   -5.337000   -0.981000
  H     -7.456000   -6.037000    0.584000
  H     -5.287000   -0.344000    0.100000
  H     -3.780000   -3.601000    1.947000
  H      3.587000   -6.868000   -1.843000
  H     -2.276000   -4.774000   -0.050000
  H      3.714000   -3.724000    1.926000
  H      5.092000   -5.795000    1.871000
  H      6.205000   -7.329000   -0.439000
  H      5.393000   -7.917000    1.042000
  H      4.759000   -8.373000   -0.564000
  H      0.329000   -5.290000   -0.008000
  H      2.146000   -4.842000   -1.940000
  H      5.808000    4.986000   -1.956000
  H      4.788000   -2.281000   -0.185000
  H      4.860000    2.114000    1.912000
  H      6.901000    3.531000    1.772000
  H      7.383000    6.109000    0.356000
  H      8.414000    4.652000    0.435000
  H      7.921000    5.310000   -1.150000
  H      5.283000    0.336000   -0.179000
  H      3.720000    3.632000   -1.967000

 Total Charge           Charge          ....    0
 Multiplicity           Mult            ....    1
 Number of Electrons    NEL             ....  358
 Basis Dimension        Dim             ....  918

ORBITAL ENERGIES
----------------

  NO   OCC          E(Eh)            E(eV)
   0   2.0000     -15.679199      -426.6527
   1   2.0000     -15.633644      -425.4131
   2   2.0000     -15.632071      -425.3703
   3   2.0000     -15.588545      -424.1859
   4   2.0000     -15.525021      -422.4573
   5   2.0000     -15.515705      -422.2038
   6   2.0000     -15.453783      -420.5188
   7   2.0000     -15.439730      -420.1364
   8   2.0000     -11.328906      -308.2752
   9   2.0000     -11.327884      -308.2474
  10   2.0000     -11.327563      -308.2387
  11   2.0000     -11.299114      -307.4645
  12   2.0000     -11.298514      -307.4482
  13   2.0000     -11.292712      -307.2903
  14   2.0000     -11.291363      -307.2536
  15   2.0000     -11.286811      -307.1297
  16   2.0000     -11.286259      -307.1147
  17   2.0000     -11.281486      -306.9848
  18   2.0000     -11.270348      -306.6818
  19   2.0000     -11.262953      -306.4805
  20   2.0000     -11.261961      -306.4535
  21   2.0000     -11.251716      -306.1748
  22   2.0000     -11.250327      -306.1370
  23   2.0000     -11.237400      -305.7852
  24   2.0000     -11.236839      -305.7699
  25   2.0000     -11.230891      -305.6081
  26   2.0000     -11.230113      -305.5869
  27   2.0000     -11.229923      -305.5817
  28   2.0000     -11.229774      -305.5777
  29   2.0000     -11.210833      -305.0623
  30   2.0000     -11.209478      -305.0254
  31   2.0000     -11.194945      -304.6300
  32   2.0000     -11.191257      -304.5296
  33   2.0000     -11.191239      -304.5291
  34   2.0000     -11.188399      -304.4518
  35   2.0000     -11.188322      -304.4497
  36   2.0000     -11.186958      -304.4126
  37   2.0000     -11.179032      -304.1969
  38   2.0000     -11.174648      -304.0776
  39   2.0000     -11.174445      -304.0721
  40   2.0000     -11.171978      -304.0050
  41   2.0000     -11.170838      -303.9740
  42   2.0000     -11.168143      -303.9006
  43   2.0000     -11.161768      -303.7272
  44   2.0000     -11.160361      -303.6889
  45   2.0000     -11.156713      -303.5896
  46   2.0000     -11.156610      -303.5868
  47   2.0000     -11.153112      -303.4916
  48   2.0000     -11.147016      -303.3257
  49   2.0000     -11.135499      -303.0123
  50   2.0000     -11.129582      -302.8513
  51   2.0000     -11.117349      -302.5185
  52   2.0000      -1.359875       -37.0041
  53   2.0000      -1.320931       -35.9444
  54   2.0000      -1.319825       -35.9143
  55   2.0000      -1.281385       -34.8683
  56   2.0000      -1.226041       -33.3623
  57   2.0000      -1.210375       -32.9360
  58   2.0000      -1.173389       -31.9295
  59   2.0000      -1.150653       -31.3109
  60   2.0000      -1.143238       -31.1091
  61   2.0000      -1.110202       -30.2101
  62   2.0000      -1.108932       -30.1756
  63   2.0000      -1.081604       -29.4319
  64   2.0000      -1.077758       -29.3273
  65   2.0000      -1.045120       -28.4392
  66   2.0000      -1.044476       -28.4216
  67   2.0000      -1.040852       -28.3230
  68   2.0000      -1.014894       -27.6167
  69   2.0000      -1.013441       -27.5771
  70   2.0000      -1.009145       -27.4602
  71   2.0000      -0.993419       -27.0323
  72   2.0000      -0.985795       -26.8248
  73   2.0000      -0.981529       -26.7088
  74   2.0000      -0.972990       -26.4764
  75   2.0000      -0.962029       -26.1781
  76   2.0000      -0.954542       -25.9744
  77   2.0000      -0.945890       -25.7390
  78   2.0000      -0.937067       -25.4989
  79   2.0000      -0.917304       -24.9611
  80   2.0000      -0.910095       -24.7650
  81   2.0000      -0.896585       -24.3973
  82   2.0000      -0.876399       -23.8480
  83   2.0000      -0.872016       -23.7288
  84   2.0000      -0.870578       -23.6896
  85   2.0000      -0.859520       -23.3887
  86   2.0000      -0.843020       -22.9397
  87   2.0000      -0.836076       -22.7508
  88   2.0000      -0.827192       -22.5091
  89   2.0000      -0.796775       -21.6813
  90   2.0000      -0.789417       -21.4811
  91   2.0000      -0.761449       -20.7201
  92   2.0000      -0.752407       -20.4740
  93   2.0000      -0.733548       -19.9608
  94   2.0000      -0.726738       -19.7756
  95   2.0000      -0.723546       -19.6887
  96   2.0000      -0.718728       -19.5576
  97   2.0000      -0.716422       -19.4948
  98   2.0000      -0.712242       -19.3811
  99   2.0000      -0.698120       -18.9968
 100   2.0000      -0.697262       -18.9735
 101   2.0000      -0.692030       -18.8311
 102   2.0000      -0.685008       -18.6400
 103   2.0000      -0.683926       -18.6106
 104   2.0000      -0.678682       -18.4679
 105   2.0000      -0.674360       -18.3503
 106   2.0000      -0.672284       -18.2938
 107   2.0000      -0.660539       -17.9742
 108   2.0000      -0.658012       -17.9054
 109   2.0000      -0.652777       -17.7630
 110   2.0000      -0.652000       -17.7418
 111   2.0000      -0.645744       -17.5716
 112   2.0000      -0.645205       -17.5569
 113   2.0000      -0.637686       -17.3523
 114   2.0000      -0.636696       -17.3254
 115   2.0000      -0.628241       -17.0953
 116   2.0000      -0.622585       -16.9414
 117   2.0000      -0.621467       -16.9110
 118   2.0000      -0.613044       -16.6818
 119   2.0000      -0.612087       -16.6557
 120   2.0000      -0.611703       -16.6453
 121   2.0000      -0.610927       -16.6242
 122   2.0000      -0.601174       -16.3588
 123   2.0000      -0.587951       -15.9990
 124   2.0000      -0.581451       -15.8221
 125   2.0000      -0.580865       -15.8061
 126   2.0000      -0.580072       -15.7846
 127   2.0000      -0.571101       -15.5404
 128   2.0000      -0.568178       -15.4609
 129   2.0000      -0.559782       -15.2324
 130   2.0000      -0.553973       -15.0744
 131   2.0000      -0.547794       -14.9062
 132   2.0000      -0.542591       -14.7647
 133   2.0000      -0.541195       -14.7267
 134   2.0000      -0.538554       -14.6548
 135   2.0000      -0.536135       -14.5890
 136   2.0000      -0.531149       -14.4533
 137   2.0000      -0.519505       -14.1365
 138   2.0000      -0.516800       -14.0628
 139   2.0000      -0.514815       -14.0088
 140   2.0000      -0.512134       -13.9359
 141   2.0000      -0.510317       -13.8864
 142   2.0000      -0.508641       -13.8408
 143   2.0000      -0.504525       -13.7288
 144   2.0000      -0.502549       -13.6750
 145   2.0000      -0.496117       -13.5000
 146   2.0000      -0.489230       -13.3126
 147   2.0000      -0.481859       -13.1121
 148   2.0000      -0.477738       -12.9999
 149   2.0000      -0.467512       -12.7216
 150   2.0000      -0.466382       -12.6909
 151   2.0000      -0.456803       -12.4302
 152   2.0000      -0.451510       -12.2862
 153   2.0000      -0.444793       -12.1034
 154   2.0000      -0.438897       -11.9430
 155   2.0000      -0.427563       -11.6346
 156   2.0000      -0.410161       -11.1611
 157   2.0000      -0.403547       -10.9811
 158   2.0000      -0.390981       -10.6391
 159   2.0000      -0.387282       -10.5385
 160   2.0000      -0.381221       -10.3736
 161   2.0000      -0.378405       -10.2969
 162   2.0000      -0.369476       -10.0539
 163   2.0000      -0.356492        -9.7007
 164   2.0000      -0.355959        -9.6861
 165   2.0000      -0.341827        -9.3016
 166   2.0000      -0.337664        -9.1883
 167   2.0000      -0.324692        -8.8353
 168   2.0000      -0.321666        -8.7530
 169   2.0000      -0.305190        -8.3046
 170   2.0000      -0.299437        -8.1481
 171   2.0000      -0.285528        -7.7696
 172   2.0000      -0.279147        -7.5960
 173   2.0000      -0.263650        -7.1743
 174   2.0000      -0.241580        -6.5737
 175   2.0000      -0.189989        -5.1699
 176   2.0000      -0.180917        -4.9230
 177   2.0000      -0.079078        -2.1518
 178   2.0000      -0.059501        -1.6191
 179   0.0000       0.028325         0.7708
 180   0.0000       0.065404         1.7797
 181   0.0000       0.090351         2.4586
 182   0.0000       0.106631         2.9016
 183   0.0000       0.114662         3.1201

MULLIKEN ATOMIC CHARGES
-----------------------
   0 C :    0.212667
   1 N :   -0.455402
   2 C :   -0.072836
   3 N :   -0.340636
   4 C :   -0.061123
   5 N :   -0.567534
   6 C :   -0.117642
   7 N :   -0.340822
   8 C :    0.215041
   9 N :   -0.562246
  10 C :    0.118919
  11 N :   -0.438505
  12 C :   -0.061967
  13 N :   -0.429493
  14 C :    0.222562
  15 N :   -0.440890
  16 C :    0.230690
  17 C :   -0.109154
  18 C :   -0.183296
  19 C :    0.216807
  20 C :    0.213480
  21 C :   -0.067701
  22 C :   -0.091020
  23 C :   -0.039511
  24 C :    0.193519
  25 C :    0.114645
  26 C :   -0.089154
  27 C :    0.215480
  28 C :   -0.061759
  29 C :   -0.181411
  30 C :    0.245955
  31 C :    0.229964
  32 C :   -0.061743
  33 C :   -0.060388
  34 C :   -0.051280
  35 C :    0.228379
  36 C :    0.108285
  37 C :   -0.064315
  38 C :    0.231048
  39 C :   -0.057595
  40 C :   -0.181506
  41 C :    0.226061
  42 C :    0.197502
  43 C :   -0.072367
  44 C :   -0.089228
  45 C :   -0.061422
  46 C :    0.211823
  47 C :    0.115304
  48 C :   -0.066811
  49 C :    0.238864
  50 C :   -0.046360
  51 C :   -0.193007
  52 H :    0.036277
  53 H :   -0.017742
  54 H :    0.044111
  55 H :    0.034943
  56 H :    0.049439
  57 H :    0.046925
  58 H :    0.047573
  59 H :   -0.007549
  60 H :    0.045849
  61 H :    0.171222
  62 H :    0.175465
  63 H :    0.055105
  64 H :   -0.024508
  65 H :    0.047175
  66 H :    0.055527
  67 H :    0.062290
  68 H :    0.057156
  69 H :    0.056250
  70 H :   -0.030552
  71 H :    0.044585
  72 H :    0.071266
  73 H :   -0.007980
  74 H :    0.060357
  75 H :    0.070715
  76 H :    0.074897
  77 H :    0.067972
  78 H :    0.067285
  79 H :   -0.016673
  80 H :    0.061300
  81 H :    0.054461
  82 H :   -0.024844
  83 H :    0.042115
  84 H :    0.054382
  85 H :    0.061053
  86 H :    0.055658
  87 H :    0.057299
  88 H :   -0.014437
  89 H :    0.046761
Sum of atomic charges:   -0.0000000

LOEWDIN ATOMIC CHARGES
----------------------
   0 C :   -0.021021
   1 N :    0.120465
   2 C :   -0.101273
   3 N :    0.182816
   4 C :   -0.011569
   5 N :   -0.134159
   6 C :   -0.036747
   7 N :    0.175162
   8 C :   -0.019932
   9 N :   -0.140611
  10 C :    0.023061
  11 N :    0.141713
  12 C :   -0.111007
  13 N :    0.166122
  14 C :   -0.018997
  15 N :    0.139034
  16 C :   -0.060349
  17 C :   -0.027310
  18 C :   -0.109700
  19 C :   -0.075649
  20 C :    0.004535
  21 C :   -0.110561
  22 C :    0.036807
  23 C :   -0.014494
  24 C :   -0.012835
  25 C :    0.029756
  26 C :   -0.108497
  27 C :   -0.116746
  28 C :   -0.027769
  29 C :   -0.099860
  30 C :   -0.029650
  31 C :    0.024108
  32 C :   -0.094495
  33 C :    0.081740
  34 C :   -0.015235
  35 C :    0.023045
  36 C :    0.035213
  37 C :   -0.094072
  38 C :   -0.052392
  39 C :   -0.017554
  40 C :   -0.108578
  41 C :   -0.091071
  42 C :   -0.010223
  43 C :   -0.099176
  44 C :    0.034049
  45 C :   -0.028075
  46 C :    0.002222
  47 C :    0.029565
  48 C :   -0.094737
  49 C :   -0.069398
  50 C :   -0.018724
  51 C :   -0.108695
  52 H :    0.022643
  53 H :    0.002589
  54 H :    0.017737
  55 H :    0.022290
  56 H :    0.021867
  57 H :    0.026024
  58 H :    0.027126
  59 H :    0.008383
  60 H :    0.008643
  61 H :    0.060166
  62 H :    0.061863
  63 H :    0.030650
  64 H :   -0.000637
  65 H :    0.045927
  66 H :    0.029187
  67 H :    0.028154
  68 H :    0.031590
  69 H :    0.030239
  70 H :   -0.004943
  71 H :    0.043375
  72 H :    0.037686
  73 H :    0.007145
  74 H :    0.050656
  75 H :    0.037379
  76 H :    0.034792
  77 H :    0.036174
  78 H :    0.035864
  79 H :    0.002928
  80 H :    0.050751
  81 H :    0.029121
  82 H :   -0.002727
  83 H :    0.042591
  84 H :    0.029978
  85 H :    0.027473
  86 H :    0.030236
  87 H :    0.031445
  88 H :    0.002412
  89 H :    0.044972

  Mayer bond orders larger than 0.100000
B(  0-C ,  1-N ) :   1.0919 B(  0-C , 17-C ) :   1.7185 B(  0-C , 52-H ) :   0.9630
B(  1-N ,  8-C ) :   1.0966 B(  1-N , 10-C ) :   0.9775 B(  2-C , 12-C ) :   1.4921
B(  2-C , 16-C ) :   1.3692 B(  2-C , 53-H ) :   0.9729 B(  3-N , 14-C ) :   1.2211
B(  3-N , 16-C ) :   1.1822 B(  3-N , 61-H ) :   0.8988 B(  4-C ,  6-C ) :   1.2166
B(  4-C , 17-C ) :   1.2142 B(  4-C , 18-C ) :   1.4675 B(  5-N , 19-C ) :   1.4580
B(  5-N , 27-C ) :   1.3721 B(  6-C ,  8-C ) :   1.7118 B(  6-C , 54-H ) :   0.9132
B(  7-N , 30-C ) :   1.1957 B(  7-N , 38-C ) :   1.1895 B(  7-N , 62-H ) :   0.8968
B(  8-C , 55-H ) :   0.9642 B(  9-N , 41-C ) :   1.3944 B(  9-N , 49-C ) :   1.4250
B( 10-C , 56-H ) :   0.9775 B( 10-C , 57-H ) :   0.9823 B( 10-C , 58-H ) :   0.9841
B( 11-N , 20-C ) :   1.1309 B( 11-N , 24-C ) :   1.1066 B( 11-N , 25-C ) :   0.9604
B( 12-C , 14-C ) :   1.3574 B( 12-C , 59-H ) :   0.9459 B( 13-N , 31-C ) :   1.1611
B( 13-N , 35-C ) :   1.1601 B( 13-N , 36-C ) :   0.9415 B( 14-C , 18-C ) :   1.1209
B( 15-N , 42-C ) :   1.1081 B( 15-N , 46-C ) :   1.1247 B( 15-N , 47-C ) :   0.9611
B( 16-C , 51-C ) :   1.1681 B( 17-C , 60-H ) :   0.8970 B( 18-C , 19-C ) :   1.1204
B( 19-C , 21-C ) :   1.2522 B( 20-C , 28-C ) :   1.6290 B( 20-C , 63-H ) :   0.9703
B( 21-C , 26-C ) :   1.5842 B( 21-C , 64-H ) :   0.9276 B( 22-C , 23-C ) :   1.2890
B( 22-C , 28-C ) :   1.2634 B( 22-C , 29-C ) :   1.2258 B( 23-C , 24-C ) :   1.6206
B( 23-C , 65-H ) :   0.9703 B( 24-C , 66-H ) :   0.9695 B( 25-C , 67-H ) :   0.9761
B( 25-C , 68-H ) :   0.9828 B( 25-C , 69-H ) :   0.9823 B( 26-C , 27-C ) :   1.2586
B( 26-C , 70-H ) :   0.9681 B( 27-C , 29-C ) :   1.2066 B( 28-C , 71-H ) :   0.9720
B( 29-C , 30-C ) :   1.2463 B( 30-C , 32-C ) :   1.2793 B( 31-C , 39-C ) :   1.5880
B( 31-C , 72-H ) :   0.9681 B( 32-C , 37-C ) :   1.5794 B( 32-C , 73-H ) :   0.9786
B( 33-C , 34-C ) :   1.3067 B( 33-C , 39-C ) :   1.3040 B( 33-C , 40-C ) :   1.1767
B( 34-C , 35-C ) :   1.5857 B( 34-C , 74-H ) :   0.9696 B( 35-C , 75-H ) :   0.9681
B( 36-C , 76-H ) :   0.9768 B( 36-C , 77-H ) :   0.9816 B( 36-C , 78-H ) :   0.9823
B( 37-C , 38-C ) :   1.2853 B( 37-C , 79-H ) :   0.9764 B( 38-C , 40-C ) :   1.2336
B( 39-C , 80-H ) :   0.9705 B( 40-C , 41-C ) :   1.2505 B( 41-C , 43-C ) :   1.1843
B( 42-C , 50-C ) :   1.6327 B( 42-C , 81-H ) :   0.9696 B( 43-C , 48-C ) :   1.6686
B( 43-C , 82-H ) :   0.9721 B( 44-C , 45-C ) :   1.2639 B( 44-C , 50-C ) :   1.2728
B( 44-C , 51-C ) :   1.2602 B( 45-C , 46-C ) :   1.6342 B( 45-C , 83-H ) :   0.9718
B( 46-C , 84-H ) :   0.9700 B( 47-C , 85-H ) :   0.9762 B( 47-C , 86-H ) :   0.9829
B( 47-C , 87-H ) :   0.9824 B( 48-C , 49-C ) :   1.1878 B( 48-C , 88-H ) :   0.9748
B( 49-C , 51-C ) :   1.2446 B( 50-C , 89-H ) :   0.9709

MP2 TOTAL ENERGY:    -2130.806509612 Eh
FINAL SINGLE POINT ENERGY     -2130.806509612049

DIPOLE MOMENT
-------------
                                X             Y             Z
Electronic contribution:      2.73218      -4.30426      -0.18470
Nuclear contribution   :      0.07394       0.23576       0.18198
                        -----------------------------------------
Total Dipole Moment    :      2.80612      -4.06850      -0.00273
                        -----------------------------------------
Magnitude (a.u.)       :      4.94236
Magnitude (Debye)      :     12.56249

Rotational constants in cm-1:     0.001501     0.001479     0.000760
Rotational constants in MHz :    45.004493    44.348034    22.786103

                             ****ORCA TERMINATED NORMALLY****
TOTAL RUN TIME: 0 days 1 hours 20 minutes 55 seconds 250 msec
