                         Program Version 5.0.4 -  RELEASE  -
|  1> ! PAL2
|  2> ! mp2 cc-pvdz TightSCF  NoKeepInts
|  3>
|  4> %scf
|  5>   MaxCore 2000
|  6> end
|  7> %mp2
|  8>   MaxCore 2000
|  9> end
| 10> * xyz 0 1
| 11>    C       -3.51000         6.14900         1.09600
| 12>    C        1.47400         4.04100         0.05700
| 13>    C       -2.80200         4.09300         0.04900
| 14>    C       -3.72200         4.35800        -0.97700
| 15>    C       -4.49700         5.50000        -0.93500
| 16>    C       -5.20400         7.60800         0.08800
| 17>    C        0.13200         4.30700         0.06100
| 18>    C       -0.56900         3.05600         0.04700
| 19>    C        1.64900         2.61800         0.02300
| 20>    C       -2.70900         5.02300         1.09600
| 21>    N       -4.38700         6.37500         0.09200
| 22>    N        0.38800         2.06700         0.02500
| 23>    N       -2.01000         0.39500        -0.07500
| 24>    N       -0.38800        -2.07400        -0.02700
| 25>    N        2.01000        -0.40100         0.06500
| 26>    C       -1.96000         2.86100         0.02400
| 27>    C       -2.62300         1.61500        -0.01800
| 28>    C       -5.57300        -4.32900         1.06600
| 29>    C       -4.07300         1.47100         0.05600
| 30>    C       -4.10600        -2.75600        -0.02600
| 31>    C       -4.99500        -2.75700        -1.11100
| 32>    C       -6.13200        -3.54200        -1.07600
| 33>    C       -7.65100        -5.11300         0.04000
| 34>    C       -4.32400         0.14100         0.03700
| 35>    C       -3.02500        -0.52000        -0.04800
| 36>    C       -4.42200        -3.56600         1.07500
| 37>    N       -6.40700        -4.31300         0.00100
| 38>    C       -2.86700        -1.92200        -0.04000
| 39>    C       -1.65000        -2.62400        -0.02700
| 40>    C        3.56800        -6.14200        -1.04000
| 41>    C       -1.47600        -4.04900        -0.03400
| 42>    C        2.80300        -4.09900        -0.00800
| 43>    C        3.65700        -4.38400         1.06900
| 44>    C        4.42700        -5.53000         1.05900
| 45>    C        5.24500        -7.58800         0.01400
| 46>    C       -0.13400        -4.31500        -0.02200
| 47>    C        0.56800        -3.06400        -0.02700
| 48>    C        2.77500        -5.01200        -1.07400
| 49>    N        4.37600        -6.39100         0.01700
| 50>    C        1.95900        -2.86900        -0.00900
| 51>    C        2.62100        -1.62200         0.00900
| 52>    C        5.54300         4.33900        -1.13000
| 53>    C        4.07000        -1.47900        -0.09400
| 54>    C        4.10400         2.75100        -0.02100
| 55>    C        5.02700         2.72900         1.03600
| 56>    C        6.16600         3.50900         0.97800
| 57>    C        7.61900         5.15300        -0.11500
| 58>    C        4.32100        -0.14800        -0.09200
| 59>    C        3.02500         0.51400         0.01500
| 60>    C        4.38700         3.58200        -1.11500
| 61>    C        2.86600         1.91600         0.01300
| 62>    N        6.41300         4.29600        -0.09500
| 63>    H       -3.48100         6.88700         1.88800
| 64>    H        2.27400         4.76600         0.08100
| 65>    H       -3.83300         3.68300        -1.81700
| 66>    H       -5.21300         5.75200        -1.70700
| 67>    H       -4.68400         8.37800        -0.48600
| 68>    H       -6.16900         7.38900        -0.36900
| 69>    H       -5.34500         7.93900         1.11700
| 70>    H       -0.33200         5.28200         0.06900
| 71>    H       -2.02800         4.86800         1.92400
| 72>    H        0.18200         1.07200         0.00500
| 73>    H       -0.18300        -1.08000        -0.02100
| 74>    H       -5.86400        -4.96200         1.89500
| 75>    H       -4.79400         2.27200         0.13900
| 76>    H       -4.80000        -2.16000        -1.99400
| 77>    H       -6.84100        -3.58200        -1.89300
| 78>    H       -8.42800        -4.53600         0.54600
| 79>    H       -7.95600        -5.33700        -0.98100
| 80>    H       -7.45600        -6.03700         0.58400
| 81>    H       -5.28700        -0.34400         0.10000
| 82>    H       -3.78000        -3.60100         1.94700
| 83>    H        3.58700        -6.86800        -1.84300
| 84>    H       -2.27600        -4.77400        -0.05000
| 85>    H        3.71400        -3.72400         1.92600
| 86>    H        5.09200        -5.79500         1.87100
| 87>    H        6.20500        -7.32900        -0.43900
| 88>    H        5.39300        -7.91700         1.04200
| 89>    H        4.75900        -8.37300        -0.56400
| 90>    H        0.32900        -5.29000        -0.00800
| 91>    H        2.14600        -4.84200        -1.94000
| 92>    H        5.80800         4.98600        -1.95600
| 93>    H        4.78800        -2.28100        -0.18500
| 94>    H        4.86000         2.11400         1.91200
| 95>    H        6.90100         3.53100         1.77200
| 96>    H        7.38300         6.10900         0.35600
| 97>    H        8.41400         4.65200         0.43500
| 98>    H        7.92100         5.31000        -1.15000
| 99>    H        5.28300         0.33600        -0.17900
|100>    H        3.72000         3.63200        -1.96700
|101> *
|102>
|103>                          ****END OF INPUT****

CARTESIAN COORDINATES (ANGSTROEM)
---------------------------------
  C     -3.510000    6.149000    1.096000
  C      1.474000    4.041000    0.057000
  C     -2.802000    4.093000    0.049000
  C     -3.722000    4.358000   -0.977000
  C     -4.497000    5.500000   -0.935000
  C     -5.204000    7.608000    0.088000
  C      0.132000    4.307000    0.061000
  C     -0.569000    3.056000    0.047000
  C      1.649000    2.618000    0.023000
  C     -2.709000    5.023000    1.096000
  N     -4.387000    6.375000    0.092000
  N      0.388000    2.067000    0.025000
  N     -2.010000    0.395000   -0.075000
  N     -0.388000   -2.074000   -0.027000
  N      2.010000   -0.401000    0.065000
  C     -1.960000    2.861000    0.024000
  C     -2.623000    1.615000   -0.018000
  C     -5.573000   -4.329000    1.066000
  C     -4.073000    1.471000    0.056000
  C     -4.106000   -2.756000   -0.026000
  C     -4.995000   -2.757000   -1.111000
  C     -6.132000   -3.542000   -1.076000
  C     -7.651000   -5.113000    0.040000
  C     -4.324000    0.141000    0.037000
  C     -3.025000   -0.520000   -0.048000
  C     -4.422000   -3.566000    1.075000
  N     -6.407000   -4.313000    0.001000
  C     -2.867000   -1.922000   -0.040000
  C     -1.650000   -2.624000   -0.027000
  C      3.568000   -6.142000   -1.040000
  C     -1.476000   -4.049000   -0.034000
  C      2.803000   -4.099000   -0.008000
  C      3.657000   -4.384000    1.069000
  C      4.427000   -5.530000    1.059000
  C      5.245000   -7.588000    0.014000
  C     -0.134000   -4.315000   -0.022000
  C      0.568000   -3.064000   -0.027000
  C      2.775000   -5.012000   -1.074000
  N      4.376000   -6.391000    0.017000
  C      1.959000   -2.869000   -0.009000
  C      2.621000   -1.622000    0.009000
  C      5.543000    4.339000   -1.130000
  C      4.070000   -1.479000   -0.094000
  C      4.104000    2.751000   -0.021000
  C      5.027000    2.729000    1.036000
  C      6.166000    3.509000    0.978000
  C      7.619000    5.153000   -0.115000
  C      4.321000   -0.148000   -0.092000
  C      3.025000    0.514000    0.015000
  C      4.387000    3.582000   -1.115000
  C      2.866000    1.916000    0.013000
  N      6.413000    4.296000   -0.095000
  H     -3.481000    6.887000    1.888000
  H      2.274000    4.766000    0.081000
  H     -3.833000    3.683000   -1.817000
  H     -5.213000    5.752000   -1.707000
  H     -4.684000    8.378000   -0.486000
  H     -6.169000    7.389000   -0.369000
  H     -5.345000    7.939000    1.117000
  H     -0.332000    5.282000    0.069000
  H     -2.028000    4.868000    1.924000
  H      0.182000    1.072000    0.005000
  H     -0.183000   -1.080000   -0.021000
  H     -5.864000   -4.962000    1.895000
  H     -4.794000    2.272000    0.139000
  H     -4.800000   -2.160000   -1.994000
  H     -6.841000   -3.582000   -1.893000
  H     -8.428000   -4.536000    0.546000
  H     -7.956000   -5.337000   -0.981000
  H     -7.456000   -6.037000    0.584000
  H     -5.287000   -0.344000    0.100000
  H     -3.780000   -3.601000    1.947000
  H      3.587000   -6.868000   -1.843000
  H     -2.276000   -4.774000   -0.050000
  H      3.714000   -3.724000    1.926000
  H      5.092000   -5.795000    1.871000
  H      6.205000   -7.329000   -0.439000
  H      5.393000   -7.917000    1.042000
  H      4.759000   -8.373000   -0.564000
  H      0.329000   -5.290000   -0.008000
  H      2.146000   -4.842000   -1.940000
  H      5.808000    4.986000   -1.956000
  H      4.788000   -2.281000   -0.185000
  H      4.860000    2.114000    1.912000
  H      6.901000    3.531000    1.772000
  H      7.383000    6.109000    0.356000
  H      8.414000    4.652000    0.435000
  H      7.921000    5.310000   -1.150000
  H      5.283000    0.336000   -0.179000
  H      3.720000    3.632000   -1.967000

 Total Charge           Charge          ....    0
 Multiplicity           Mult            ....    1
 Number of Electrons    NEL             ....  358
 Basis Dimension        Dim             ....  918

ORBITAL ENERGIES
----------------

  NO   OCC          E(Eh)            E(eV)
   0   2.0000     -15.639973      -425.5853
   1   2.0000     -15.639621      -425.5757
   2   2.0000     -15.628706      -425.2787
   3   2.0000     -15.623477      -425.1364
   4   2.0000     -15.518937      -422.2918
   5   2.0000     -15.515529      -422.1990
   6   2.0000     -15.444188      -420.2577
   7   2.0000     -15.443968      -420.2517
   8   2.0000     -11.303196      -307.5756
   9   2.0000     -11.302745      -307.5633
  10   2.0000     -11.296649      -307.3974
  11   2.0000     -11.295982      -307.3793
  12   2.0000     -11.295076      -307.3546
  13   2.0000     -11.294125      -307.3288
  14   2.0000     -11.293969      -307.3245
  15   2.0000     -11.293285      -307.3059
  16   2.0000     -11.285846      -307.1035
  17   2.0000     -11.285409      -307.0916
  18   2.0000     -11.282819      -307.0211
  19   2.0000     -11.281508      -306.9854
  20   2.0000     -11.244322      -305.9735
  21   2.0000     -11.242974      -305.9369
  22   2.0000     -11.234948      -305.7185
  23   2.0000     -11.234737      -305.7127
  24   2.0000     -11.234103      -305.6955
  25   2.0000     -11.234074      -305.6947
  26   2.0000     -11.233044      -305.6667
  27   2.0000     -11.229642      -305.5741
  28   2.0000     -11.226573      -305.4906
  29   2.0000     -11.226460      -305.4875
  30   2.0000     -11.222932      -305.3915
  31   2.0000     -11.222746      -305.3864
  32   2.0000     -11.200729      -304.7873
  33   2.0000     -11.200247      -304.7742
  34   2.0000     -11.194038      -304.6053
  35   2.0000     -11.193649      -304.5947
  36   2.0000     -11.172404      -304.0166
  37   2.0000     -11.172307      -304.0139
  38   2.0000     -11.171310      -303.9868
  39   2.0000     -11.171070      -303.9803
  40   2.0000     -11.170328      -303.9601
  41   2.0000     -11.169848      -303.9470
  42   2.0000     -11.166446      -303.8544
  43   2.0000     -11.166425      -303.8539
  44   2.0000     -11.160435      -303.6909
  45   2.0000     -11.159056      -303.6534
  46   2.0000     -11.152648      -303.4790
  47   2.0000     -11.151146      -303.4381
  48   2.0000     -11.143114      -303.2196
  49   2.0000     -11.141983      -303.1888
  50   2.0000     -11.141091      -303.1645
  51   2.0000     -11.139578      -303.1233
  52   2.0000      -1.326377       -36.0925
  53   2.0000      -1.326004       -36.0824
  54   2.0000      -1.316558       -35.8254
  55   2.0000      -1.312740       -35.7215
  56   2.0000      -1.217848       -33.1393
  57   2.0000      -1.212487       -32.9934
  58   2.0000      -1.161421       -31.6039
  59   2.0000      -1.156964       -31.4826
  60   2.0000      -1.115698       -30.3597
  61   2.0000      -1.113116       -30.2894
  62   2.0000      -1.105588       -30.0846
  63   2.0000      -1.102205       -29.9925
  64   2.0000      -1.050370       -28.5820
  65   2.0000      -1.049801       -28.5665
  66   2.0000      -1.041115       -28.3302
  67   2.0000      -1.037771       -28.2392
  68   2.0000      -1.026602       -27.9353
  69   2.0000      -1.009732       -27.4762
  70   2.0000      -1.009284       -27.4640
  71   2.0000      -0.998089       -27.1594
  72   2.0000      -0.982072       -26.7235
  73   2.0000      -0.975765       -26.5519
  74   2.0000      -0.968789       -26.3621
  75   2.0000      -0.960322       -26.1317
  76   2.0000      -0.952480       -25.9183
  77   2.0000      -0.942190       -25.6383
  78   2.0000      -0.940627       -25.5958
  79   2.0000      -0.923382       -25.1265
  80   2.0000      -0.892832       -24.2952
  81   2.0000      -0.877815       -23.8866
  82   2.0000      -0.875883       -23.8340
  83   2.0000      -0.868598       -23.6358
  84   2.0000      -0.865292       -23.5458
  85   2.0000      -0.856980       -23.3196
  86   2.0000      -0.847213       -23.0538
  87   2.0000      -0.844854       -22.9896
  88   2.0000      -0.821718       -22.3601
  89   2.0000      -0.798460       -21.7272
  90   2.0000      -0.797760       -21.7081
  91   2.0000      -0.739214       -20.1150
  92   2.0000      -0.728931       -19.8352
  93   2.0000      -0.728882       -19.8339
  94   2.0000      -0.720619       -19.6090
  95   2.0000      -0.720115       -19.5953
  96   2.0000      -0.712030       -19.3753
  97   2.0000      -0.709671       -19.3111
  98   2.0000      -0.698415       -19.0048
  99   2.0000      -0.692377       -18.8405
 100   2.0000      -0.683748       -18.6057
 101   2.0000      -0.680186       -18.5088
 102   2.0000      -0.679362       -18.4864
 103   2.0000      -0.673497       -18.3268
 104   2.0000      -0.667772       -18.1710
 105   2.0000      -0.667462       -18.1626
 106   2.0000      -0.663243       -18.0477
 107   2.0000      -0.658561       -17.9204
 108   2.0000      -0.657945       -17.9036
 109   2.0000      -0.654046       -17.7975
 110   2.0000      -0.652759       -17.7625
 111   2.0000      -0.650898       -17.7118
 112   2.0000      -0.647881       -17.6297
 113   2.0000      -0.645149       -17.5554
 114   2.0000      -0.634775       -17.2731
 115   2.0000      -0.622954       -16.9514
 116   2.0000      -0.617029       -16.7902
 117   2.0000      -0.616556       -16.7773
 118   2.0000      -0.610372       -16.6091
 119   2.0000      -0.608505       -16.5583
 120   2.0000      -0.608239       -16.5510
 121   2.0000      -0.605220       -16.4689
 122   2.0000      -0.603312       -16.4169
 123   2.0000      -0.593929       -16.1616
 124   2.0000      -0.585861       -15.9421
 125   2.0000      -0.585146       -15.9226
 126   2.0000      -0.578298       -15.7363
 127   2.0000      -0.575006       -15.6467
 128   2.0000      -0.570902       -15.5350
 129   2.0000      -0.561828       -15.2881
 130   2.0000      -0.553767       -15.0688
 131   2.0000      -0.542482       -14.7617
 132   2.0000      -0.540930       -14.7195
 133   2.0000      -0.535158       -14.5624
 134   2.0000      -0.533870       -14.5274
 135   2.0000      -0.531059       -14.4508
 136   2.0000      -0.523956       -14.2576
 137   2.0000      -0.523385       -14.2420
 138   2.0000      -0.516908       -14.0658
 139   2.0000      -0.516619       -14.0579
 140   2.0000      -0.509319       -13.8593
 141   2.0000      -0.506081       -13.7712
 142   2.0000      -0.504124       -13.7179
 143   2.0000      -0.503599       -13.7036
 144   2.0000      -0.498998       -13.5784
 145   2.0000      -0.497763       -13.5448
 146   2.0000      -0.496526       -13.5111
 147   2.0000      -0.493365       -13.4252
 148   2.0000      -0.490994       -13.3606
 149   2.0000      -0.468754       -12.7554
 150   2.0000      -0.460167       -12.5218
 151   2.0000      -0.451001       -12.2724
 152   2.0000      -0.448167       -12.1952
 153   2.0000      -0.445919       -12.1341
 154   2.0000      -0.445045       -12.1103
 155   2.0000      -0.439584       -11.9617
 156   2.0000      -0.434955       -11.8357
 157   2.0000      -0.432064       -11.7571
 158   2.0000      -0.390576       -10.6281
 159   2.0000      -0.381152       -10.3717
 160   2.0000      -0.379940       -10.3387
 161   2.0000      -0.373114       -10.1529
 162   2.0000      -0.360720        -9.8157
 163   2.0000      -0.360080        -9.7983
 164   2.0000      -0.352771        -9.5994
 165   2.0000      -0.349756        -9.5174
 166   2.0000      -0.337280        -9.1778
 167   2.0000      -0.332074        -9.0362
 168   2.0000      -0.329326        -8.9614
 169   2.0000      -0.300214        -8.1692
 170   2.0000      -0.295373        -8.0375
 171   2.0000      -0.289077        -7.8662
 172   2.0000      -0.287346        -7.8191
 173   2.0000      -0.254669        -6.9299
 174   2.0000      -0.248008        -6.7486
 175   2.0000      -0.187959        -5.1146
 176   2.0000      -0.177791        -4.8379
 177   2.0000      -0.066219        -1.8019
 178   2.0000      -0.054644        -1.4869
 179   0.0000       0.030999         0.8435
 180   0.0000       0.070643         1.9223
 181   0.0000       0.093115         2.5338
 182   0.0000       0.097019         2.6400
 183   0.0000       0.133624         3.6361

MULLIKEN ATOMIC CHARGES
-----------------------
   0 C :    0.205996
   1 N :   -0.443097
   2 C :   -0.065136
   3 N :   -0.337911
   4 C :   -0.074595
   5 N :   -0.562029
   6 C :   -0.063131
   7 N :   -0.338433
   8 C :    0.203254
   9 N :   -0.562969
  10 C :    0.115044
  11 N :   -0.437254
  12 C :   -0.069044
  13 N :   -0.438627
  14 C :    0.234832
  15 N :   -0.440742
  16 C :    0.234804
  17 C :   -0.068596
  18 C :   -0.193881
  19 C :    0.225032
  20 C :    0.208972
  21 C :   -0.076943
  22 C :   -0.085963
  23 C :   -0.048214
  24 C :    0.205441
  25 C :    0.113726
  26 C :   -0.073246
  27 C :    0.221768
  28 C :   -0.052884
  29 C :   -0.184904
  30 C :    0.236581
  31 C :    0.213335
  32 C :   -0.064481
  33 C :   -0.079021
  34 C :   -0.049777
  35 C :    0.206515
  36 C :    0.113480
  37 C :   -0.066287
  38 C :    0.236764
  39 C :   -0.061359
  40 C :   -0.188167
  41 C :    0.220668
  42 C :    0.202609
  43 C :   -0.073750
  44 C :   -0.089082
  45 C :   -0.053667
  46 C :    0.203977
  47 C :    0.115609
  48 C :   -0.074228
  49 C :    0.227000
  50 C :   -0.052190
  51 C :   -0.190466
  52 H :    0.052726
  53 H :   -0.014378
  54 H :    0.044648
  55 H :    0.051167
  56 H :    0.057793
  57 H :    0.055669
  58 H :    0.055198
  59 H :   -0.012212
  60 H :    0.045529
  61 H :    0.172540
  62 H :    0.173192
  63 H :    0.057087
  64 H :   -0.018519
  65 H :    0.046527
  66 H :    0.057724
  67 H :    0.063283
  68 H :    0.058254
  69 H :    0.058949
  70 H :   -0.024954
  71 H :    0.048209
  72 H :    0.057941
  73 H :   -0.013475
  74 H :    0.048135
  75 H :    0.056979
  76 H :    0.063335
  77 H :    0.059152
  78 H :    0.058328
  79 H :   -0.013943
  80 H :    0.048430
  81 H :    0.053653
  82 H :   -0.024048
  83 H :    0.042739
  84 H :    0.053095
  85 H :    0.059078
  86 H :    0.056146
  87 H :    0.056723
  88 H :   -0.021333
  89 H :    0.045303
Sum of atomic charges:   -0.0000000

LOEWDIN ATOMIC CHARGES
----------------------
   0 C :   -0.006294
   1 N :    0.134514
   2 C :   -0.100583
   3 N :    0.178461
   4 C :    0.029032
   5 N :   -0.136919
   6 C :   -0.023753
   7 N :    0.177108
   8 C :   -0.008230
   9 N :   -0.138980
  10 C :    0.027948
  11 N :    0.145163
  12 C :   -0.102112
  13 N :    0.144446
  14 C :   -0.043408
  15 N :    0.138488
  16 C :   -0.047555
  17 C :   -0.027510
  18 C :   -0.107399
  19 C :   -0.087478
  20 C :    0.001580
  21 C :   -0.105378
  22 C :    0.043779
  23 C :   -0.019871
  24 C :   -0.001425
  25 C :    0.030544
  26 C :   -0.104451
  27 C :   -0.096943
  28 C :   -0.021271
  29 C :   -0.106070
  30 C :   -0.044372
  31 C :    0.004153
  32 C :   -0.098087
  33 C :    0.045079
  34 C :   -0.019000
  35 C :   -0.001687
  36 C :    0.030286
  37 C :   -0.099988
  38 C :   -0.042124
  39 C :   -0.024615
  40 C :   -0.108685
  41 C :   -0.094386
  42 C :   -0.006032
  43 C :   -0.104589
  44 C :    0.033902
  45 C :   -0.023160
  46 C :   -0.004845
  47 C :    0.029264
  48 C :   -0.104290
  49 C :   -0.087511
  50 C :   -0.022589
  51 C :   -0.108990
  52 H :    0.028702
  53 H :    0.004166
  54 H :    0.043121
  55 H :    0.028562
  56 H :    0.025907
  57 H :    0.029965
  58 H :    0.030728
  59 H :    0.004706
  60 H :    0.042904
  61 H :    0.060452
  62 H :    0.060656
  63 H :    0.031309
  64 H :   -0.000140
  65 H :    0.045242
  66 H :    0.030575
  67 H :    0.028743
  68 H :    0.032091
  69 H :    0.031431
  70 H :   -0.002393
  71 H :    0.045420
  72 H :    0.031466
  73 H :    0.004487
  74 H :    0.045563
  75 H :    0.030746
  76 H :    0.028797
  77 H :    0.032024
  78 H :    0.031672
  79 H :    0.004314
  80 H :    0.045079
  81 H :    0.028975
  82 H :   -0.002152
  83 H :    0.043302
  84 H :    0.029126
  85 H :    0.026564
  86 H :    0.030388
  87 H :    0.031165
  88 H :   -0.000875
  89 H :    0.044039

  Mayer bond orders larger than 0.100000
B(  0-C ,  1-N ) :   1.1136 B(  0-C , 17-C ) :   1.6463 B(  0-C , 52-H ) :   0.9691
B(  1-N ,  8-C ) :   1.1079 B(  1-N , 10-C ) :   0.9647 B(  2-C , 12-C ) :   1.5338
B(  2-C , 16-C ) :   1.3256 B(  2-C , 53-H ) :   0.9777 B(  3-N , 14-C ) :   1.2047
B(  3-N , 16-C ) :   1.1946 B(  3-N , 61-H ) :   0.8986 B(  4-C ,  6-C ) :   1.2578
B(  4-C , 17-C ) :   1.2553 B(  4-C , 18-C ) :   1.2911 B(  5-N , 19-C ) :   1.4235
B(  5-N , 27-C ) :   1.4024 B(  6-C ,  8-C ) :   1.6470 B(  6-C , 54-H ) :   0.9704
B(  7-N , 30-C ) :   1.1925 B(  7-N , 38-C ) :   1.2007 B(  7-N , 62-H ) :   0.8981
B(  8-C , 55-H ) :   0.9704 B(  9-N , 41-C ) :   1.4057 B(  9-N , 49-C ) :   1.4182
B( 10-C , 56-H ) :   0.9763 B( 10-C , 57-H ) :   0.9825 B( 10-C , 58-H ) :   0.9831
B( 11-N , 20-C ) :   1.1262 B( 11-N , 24-C ) :   1.1228 B( 11-N , 25-C ) :   0.9578
B( 12-C , 14-C ) :   1.3280 B( 12-C , 59-H ) :   0.9769 B( 13-N , 31-C ) :   1.1285
B( 13-N , 35-C ) :   1.1211 B( 13-N , 36-C ) :   0.9578 B( 14-C , 18-C ) :   1.1895
B( 15-N , 42-C ) :   1.1147 B( 15-N , 46-C ) :   1.1153 B( 15-N , 47-C ) :   0.9623
B( 16-C , 51-C ) :   1.1984 B( 17-C , 60-H ) :   0.9709 B( 18-C , 19-C ) :   1.2027
B( 19-C , 21-C ) :   1.2168 B( 20-C , 28-C ) :   1.6223 B( 20-C , 63-H ) :   0.9702
B( 21-C , 26-C ) :   1.6380 B( 21-C , 64-H ) :   0.9733 B( 22-C , 23-C ) :   1.2849
B( 22-C , 28-C ) :   1.2750 B( 22-C , 29-C ) :   1.2267 B( 23-C , 24-C ) :   1.6172
B( 23-C , 65-H ) :   0.9709 B( 24-C , 66-H ) :   0.9691 B( 25-C , 67-H ) :   0.9762
B( 25-C , 68-H ) :   0.9829 B( 25-C , 69-H ) :   0.9821 B( 26-C , 27-C ) :   1.2136
B( 26-C , 70-H ) :   0.9730 B( 27-C , 29-C ) :   1.2264 B( 28-C , 71-H ) :   0.9714
B( 29-C , 30-C ) :   1.2171 B( 30-C , 32-C ) :   1.3069 B( 31-C , 39-C ) :   1.6260
B( 31-C , 72-H ) :   0.9694 B( 32-C , 37-C ) :   1.5515 B( 32-C , 73-H ) :   0.9778
B( 33-C , 34-C ) :   1.2790 B( 33-C , 39-C ) :   1.2717 B( 33-C , 40-C ) :   1.2407
B( 34-C , 35-C ) :   1.6229 B( 34-C , 74-H ) :   0.9703 B( 35-C , 75-H ) :   0.9695
B( 36-C , 76-H ) :   0.9763 B( 36-C , 77-H ) :   0.9820 B( 36-C , 78-H ) :   0.9830
B( 37-C , 38-C ) :   1.3087 B( 37-C , 79-H ) :   0.9777 B( 38-C , 40-C ) :   1.2122
B( 39-C , 80-H ) :   0.9714 B( 40-C , 41-C ) :   1.2209 B( 41-C , 43-C ) :   1.2127
B( 42-C , 50-C ) :   1.6338 B( 42-C , 81-H ) :   0.9696 B( 43-C , 48-C ) :   1.6387
B( 43-C , 82-H ) :   0.9735 B( 44-C , 45-C ) :   1.2696 B( 44-C , 50-C ) :   1.2673
B( 44-C , 51-C ) :   1.2568 B( 45-C , 46-C ) :   1.6330 B( 45-C , 83-H ) :   0.9712
B( 46-C , 84-H ) :   0.9702 B( 47-C , 85-H ) :   0.9761 B( 47-C , 86-H ) :   0.9828
B( 47-C , 87-H ) :   0.9826 B( 48-C , 49-C ) :   1.2129 B( 48-C , 88-H ) :   0.9739
B( 49-C , 51-C ) :   1.2188 B( 50-C , 89-H ) :   0.9713

MP2 TOTAL ENERGY:    -2130.915352596 Eh
FINAL SINGLE POINT ENERGY     -2130.915352595721

DIPOLE MOMENT
-------------
                                X             Y             Z
Electronic contribution:     -0.02683      -1.21578      -0.05726
Nuclear contribution   :      0.02299       0.20579       0.07050
                        -----------------------------------------
Total Dipole Moment    :     -0.00384      -1.00999       0.01323
                        -----------------------------------------
Magnitude (a.u.)       :      1.01008
Magnitude (Debye)      :      2.56743

Rotational constants in cm-1:     0.001500     0.001473     0.000762
Rotational constants in MHz :    44.958459    44.167300    22.846203

                             ****ORCA TERMINATED NORMALLY****
TOTAL RUN TIME: 0 days 1 hours 7 minutes 23 seconds 481 msec
