                         Program Version 5.0.4 -  RELEASE  -
|  1> ! PAL2
|  2> ! mp2 cc-pvdz TightSCF  NoKeepInts
|  3>
|  4> %scf
|  5>   MaxCore 2000
|  6> end
|  7> %mp2
|  8>   MaxCore 2000
|  9> end
| 10> * xyz 0 1
| 11>    C       -3.59200         6.13500        -0.96700
| 12>    C        1.47400         4.04100         0.05700
| 13>    C       -2.80200         4.09300         0.04900
| 14>    C       -3.61200         4.39000         1.15600
| 15>    C       -4.38100         5.53700         1.16400
| 16>    C       -5.22600         7.59300         0.13900
| 17>    C        0.13200         4.30700         0.06100
| 18>    C       -0.56900         3.05600         0.04700
| 19>    C        1.64900         2.61800         0.02300
| 20>    C       -2.81000         4.99700        -1.02400
| 21>    N       -4.36200         6.39200         0.11500
| 22>    N        0.38800         2.06700         0.02500
| 23>    N       -2.01000         0.39500        -0.07500
| 24>    N       -0.38800        -2.07400        -0.02700
| 25>    N        2.01000        -0.40100         0.06500
| 26>    C       -1.96000         2.86100         0.02400
| 27>    C       -2.62300         1.61500        -0.01800
| 28>    C       -5.57300        -4.32900         1.06600
| 29>    C       -4.07300         1.47100         0.05600
| 30>    C       -4.10600        -2.75600        -0.02600
| 31>    C       -4.99500        -2.75700        -1.11100
| 32>    C       -6.13200        -3.54200        -1.07600
| 33>    C       -7.65100        -5.11300         0.04000
| 34>    C       -4.32400         0.14100         0.03700
| 35>    C       -3.02500        -0.52000        -0.04800
| 36>    C       -4.42200        -3.56600         1.07500
| 37>    N       -6.40700        -4.31300         0.00100
| 38>    C       -2.86700        -1.92200        -0.04000
| 39>    C       -1.65000        -2.62400        -0.02700
| 40>    C        3.56800        -6.14200        -1.04000
| 41>    C       -1.47600        -4.04900        -0.03400
| 42>    C        2.80300        -4.09900        -0.00800
| 43>    C        3.65700        -4.38400         1.06900
| 44>    C        4.42700        -5.53000         1.05900
| 45>    C        5.24500        -7.58800         0.01400
| 46>    C       -0.13400        -4.31500        -0.02200
| 47>    C        0.56800        -3.06400        -0.02700
| 48>    C        2.77500        -5.01200        -1.07400
| 49>    N        4.37600        -6.39100         0.01700
| 50>    C        1.95900        -2.86900        -0.00900
| 51>    C        2.62100        -1.62200         0.00900
| 52>    C        5.54300         4.33900        -1.13000
| 53>    C        4.07000        -1.47900        -0.09400
| 54>    C        4.10400         2.75100        -0.02100
| 55>    C        5.02700         2.72900         1.03600
| 56>    C        6.16600         3.50900         0.97800
| 57>    C        7.61900         5.15300        -0.11500
| 58>    C        4.32100        -0.14800        -0.09200
| 59>    C        3.02500         0.51400         0.01500
| 60>    C        4.38700         3.58200        -1.11500
| 61>    C        2.86600         1.91600         0.01300
| 62>    N        6.41300         4.29600        -0.09500
| 63>    H       -3.62100         6.86500        -1.76600
| 64>    H        2.27400         4.76600         0.08100
| 65>    H       -3.65600         3.72700         2.01100
| 66>    H       -5.02800         5.80300         1.99000
| 67>    H       -6.21800         7.32400        -0.23200
| 68>    H       -5.29400         7.95600         1.16400
| 69>    H       -4.78200         8.35700        -0.49900
| 70>    H       -0.33200         5.28200         0.06900
| 71>    H       -2.19500         4.83100        -1.90100
| 72>    H        0.18200         1.07200         0.00500
| 73>    H       -0.18300        -1.08000        -0.02100
| 74>    H       -5.86400        -4.96200         1.89500
| 75>    H       -4.79400         2.27200         0.13900
| 76>    H       -4.80000        -2.16000        -1.99400
| 77>    H       -6.84100        -3.58200        -1.89300
| 78>    H       -8.42800        -4.53600         0.54600
| 79>    H       -7.95600        -5.33700        -0.98100
| 80>    H       -7.45600        -6.03700         0.58400
| 81>    H       -5.28700        -0.34400         0.10000
| 82>    H       -3.78000        -3.60100         1.94700
| 83>    H        3.58700        -6.86800        -1.84300
| 84>    H       -2.27600        -4.77400        -0.05000
| 85>    H        3.71400        -3.72400         1.92600
| 86>    H        5.09200        -5.79500         1.87100
| 87>    H        6.20500        -7.32900        -0.43900
| 88>    H        5.39300        -7.91700         1.04200
| 89>    H        4.75900        -8.37300        -0.56400
| 90>    H        0.32900        -5.29000        -0.00800
| 91>    H        2.14600        -4.84200        -1.94000
| 92>    H        5.80800         4.98600        -1.95600
| 93>    H        4.78800        -2.28100        -0.18500
| 94>    H        4.86000         2.11400         1.91200
| 95>    H        6.90100         3.53100         1.77200
| 96>    H        7.38300         6.10900         0.35600
| 97>    H        8.41400         4.65200         0.43500
| 98>    H        7.92100         5.31000        -1.15000
| 99>    H        5.28300         0.33600        -0.17900
|100>    H        3.72000         3.63200        -1.96700
|101> *
|102>
|103>                          ****END OF INPUT****

CARTESIAN COORDINATES (ANGSTROEM)
---------------------------------
  C     -3.592000    6.135000   -0.967000
  C      1.474000    4.041000    0.057000
  C     -2.802000    4.093000    0.049000
  C     -3.612000    4.390000    1.156000
  C     -4.381000    5.537000    1.164000
  C     -5.226000    7.593000    0.139000
  C      0.132000    4.307000    0.061000
  C     -0.569000    3.056000    0.047000
  C      1.649000    2.618000    0.023000
  C     -2.810000    4.997000   -1.024000
  N     -4.362000    6.392000    0.115000
  N      0.388000    2.067000    0.025000
  N     -2.010000    0.395000   -0.075000
  N     -0.388000   -2.074000   -0.027000
  N      2.010000   -0.401000    0.065000
  C     -1.960000    2.861000    0.024000
  C     -2.623000    1.615000   -0.018000
  C     -5.573000   -4.329000    1.066000
  C     -4.073000    1.471000    0.056000
  C     -4.106000   -2.756000   -0.026000
  C     -4.995000   -2.757000   -1.111000
  C     -6.132000   -3.542000   -1.076000
  C     -7.651000   -5.113000    0.040000
  C     -4.324000    0.141000    0.037000
  C     -3.025000   -0.520000   -0.048000
  C     -4.422000   -3.566000    1.075000
  N     -6.407000   -4.313000    0.001000
  C     -2.867000   -1.922000   -0.040000
  C     -1.650000   -2.624000   -0.027000
  C      3.568000   -6.142000   -1.040000
  C     -1.476000   -4.049000   -0.034000
  C      2.803000   -4.099000   -0.008000
  C      3.657000   -4.384000    1.069000
  C      4.427000   -5.530000    1.059000
  C      5.245000   -7.588000    0.014000
  C     -0.134000   -4.315000   -0.022000
  C      0.568000   -3.064000   -0.027000
  C      2.775000   -5.012000   -1.074000
  N      4.376000   -6.391000    0.017000
  C      1.959000   -2.869000   -0.009000
  C      2.621000   -1.622000    0.009000
  C      5.543000    4.339000   -1.130000
  C      4.070000   -1.479000   -0.094000
  C      4.104000    2.751000   -0.021000
  C      5.027000    2.729000    1.036000
  C      6.166000    3.509000    0.978000
  C      7.619000    5.153000   -0.115000
  C      4.321000   -0.148000   -0.092000
  C      3.025000    0.514000    0.015000
  C      4.387000    3.582000   -1.115000
  C      2.866000    1.916000    0.013000
  N      6.413000    4.296000   -0.095000
  H     -3.621000    6.865000   -1.766000
  H      2.274000    4.766000    0.081000
  H     -3.656000    3.727000    2.011000
  H     -5.028000    5.803000    1.990000
  H     -6.218000    7.324000   -0.232000
  H     -5.294000    7.956000    1.164000
  H     -4.782000    8.357000   -0.499000
  H     -0.332000    5.282000    0.069000
  H     -2.195000    4.831000   -1.901000
  H      0.182000    1.072000    0.005000
  H     -0.183000   -1.080000   -0.021000
  H     -5.864000   -4.962000    1.895000
  H     -4.794000    2.272000    0.139000
  H     -4.800000   -2.160000   -1.994000
  H     -6.841000   -3.582000   -1.893000
  H     -8.428000   -4.536000    0.546000
  H     -7.956000   -5.337000   -0.981000
  H     -7.456000   -6.037000    0.584000
  H     -5.287000   -0.344000    0.100000
  H     -3.780000   -3.601000    1.947000
  H      3.587000   -6.868000   -1.843000
  H     -2.276000   -4.774000   -0.050000
  H      3.714000   -3.724000    1.926000
  H      5.092000   -5.795000    1.871000
  H      6.205000   -7.329000   -0.439000
  H      5.393000   -7.917000    1.042000
  H      4.759000   -8.373000   -0.564000
  H      0.329000   -5.290000   -0.008000
  H      2.146000   -4.842000   -1.940000
  H      5.808000    4.986000   -1.956000
  H      4.788000   -2.281000   -0.185000
  H      4.860000    2.114000    1.912000
  H      6.901000    3.531000    1.772000
  H      7.383000    6.109000    0.356000
  H      8.414000    4.652000    0.435000
  H      7.921000    5.310000   -1.150000
  H      5.283000    0.336000   -0.179000
  H      3.720000    3.632000   -1.967000

 Total Charge           Charge          ....    0
 Multiplicity           Mult            ....    1
 Number of Electrons    NEL             ....  358
 Basis Dimension        Dim             ....  918

ORBITAL ENERGIES
----------------

  NO   OCC          E(Eh)            E(eV)
   0   2.0000     -15.651000      -425.8854
   1   2.0000     -15.637915      -425.5293
   2   2.0000     -15.627955      -425.2583
   3   2.0000     -15.618099      -424.9901
   4   2.0000     -15.517449      -422.2512
   5   2.0000     -15.514034      -422.1583
   6   2.0000     -15.445654      -420.2976
   7   2.0000     -15.438784      -420.1107
   8   2.0000     -11.309838      -307.7563
   9   2.0000     -11.304761      -307.6182
  10   2.0000     -11.303427      -307.5819
  11   2.0000     -11.301746      -307.5361
  12   2.0000     -11.295426      -307.3642
  13   2.0000     -11.294306      -307.3337
  14   2.0000     -11.292031      -307.2718
  15   2.0000     -11.289503      -307.2030
  16   2.0000     -11.286256      -307.1147
  17   2.0000     -11.283279      -307.0336
  18   2.0000     -11.278037      -306.8910
  19   2.0000     -11.275489      -306.8217
  20   2.0000     -11.253443      -306.2218
  21   2.0000     -11.242523      -305.9246
  22   2.0000     -11.241965      -305.9094
  23   2.0000     -11.241151      -305.8873
  24   2.0000     -11.233188      -305.6706
  25   2.0000     -11.232359      -305.6480
  26   2.0000     -11.232168      -305.6428
  27   2.0000     -11.225957      -305.4738
  28   2.0000     -11.225730      -305.4677
  29   2.0000     -11.223474      -305.4062
  30   2.0000     -11.218969      -305.2837
  31   2.0000     -11.218129      -305.2608
  32   2.0000     -11.199072      -304.7422
  33   2.0000     -11.198710      -304.7324
  34   2.0000     -11.193203      -304.5825
  35   2.0000     -11.192954      -304.5758
  36   2.0000     -11.177461      -304.1542
  37   2.0000     -11.176917      -304.1394
  38   2.0000     -11.174679      -304.0785
  39   2.0000     -11.169017      -303.9244
  40   2.0000     -11.165876      -303.8389
  41   2.0000     -11.163544      -303.7755
  42   2.0000     -11.163417      -303.7720
  43   2.0000     -11.160452      -303.6913
  44   2.0000     -11.159519      -303.6659
  45   2.0000     -11.156247      -303.5769
  46   2.0000     -11.152698      -303.4803
  47   2.0000     -11.149378      -303.3900
  48   2.0000     -11.149254      -303.3866
  49   2.0000     -11.147612      -303.3420
  50   2.0000     -11.134976      -302.9981
  51   2.0000     -11.133092      -302.9468
  52   2.0000      -1.335410       -36.3384
  53   2.0000      -1.324540       -36.0426
  54   2.0000      -1.315792       -35.8045
  55   2.0000      -1.307630       -35.5824
  56   2.0000      -1.216467       -33.1017
  57   2.0000      -1.211167       -32.9575
  58   2.0000      -1.164161       -31.6784
  59   2.0000      -1.152336       -31.3567
  60   2.0000      -1.122095       -30.5337
  61   2.0000      -1.111994       -30.2589
  62   2.0000      -1.105274       -30.0760
  63   2.0000      -1.097148       -29.8549
  64   2.0000      -1.058698       -28.8086
  65   2.0000      -1.048329       -28.5265
  66   2.0000      -1.040344       -28.3092
  67   2.0000      -1.032803       -28.1040
  68   2.0000      -1.027623       -27.9630
  69   2.0000      -1.011734       -27.5307
  70   2.0000      -1.007151       -27.4060
  71   2.0000      -0.996263       -27.1097
  72   2.0000      -0.980598       -26.6834
  73   2.0000      -0.974938       -26.5294
  74   2.0000      -0.969686       -26.3865
  75   2.0000      -0.961046       -26.1514
  76   2.0000      -0.950201       -25.8563
  77   2.0000      -0.946832       -25.7646
  78   2.0000      -0.934931       -25.4408
  79   2.0000      -0.922507       -25.1027
  80   2.0000      -0.892593       -24.2887
  81   2.0000      -0.883741       -24.0478
  82   2.0000      -0.875219       -23.8159
  83   2.0000      -0.867461       -23.6048
  84   2.0000      -0.861201       -23.4345
  85   2.0000      -0.857801       -23.3419
  86   2.0000      -0.851638       -23.1743
  87   2.0000      -0.839242       -22.8369
  88   2.0000      -0.822137       -22.3715
  89   2.0000      -0.797451       -21.6997
  90   2.0000      -0.796861       -21.6837
  91   2.0000      -0.739732       -20.1291
  92   2.0000      -0.731133       -19.8951
  93   2.0000      -0.727103       -19.7855
  94   2.0000      -0.722539       -19.6613
  95   2.0000      -0.717016       -19.5110
  96   2.0000      -0.710682       -19.3386
  97   2.0000      -0.708306       -19.2740
  98   2.0000      -0.698030       -18.9944
  99   2.0000      -0.691272       -18.8105
 100   2.0000      -0.688002       -18.7215
 101   2.0000      -0.682059       -18.5598
 102   2.0000      -0.679238       -18.4830
 103   2.0000      -0.671934       -18.2843
 104   2.0000      -0.669351       -18.2140
 105   2.0000      -0.665527       -18.1099
 106   2.0000      -0.664255       -18.0753
 107   2.0000      -0.660314       -17.9681
 108   2.0000      -0.659227       -17.9385
 109   2.0000      -0.655794       -17.8451
 110   2.0000      -0.651033       -17.7155
 111   2.0000      -0.648736       -17.6530
 112   2.0000      -0.646678       -17.5970
 113   2.0000      -0.641811       -17.4646
 114   2.0000      -0.633517       -17.2389
 115   2.0000      -0.624748       -17.0002
 116   2.0000      -0.623391       -16.9633
 117   2.0000      -0.615411       -16.7462
 118   2.0000      -0.611750       -16.6466
 119   2.0000      -0.608285       -16.5523
 120   2.0000      -0.607485       -16.5305
 121   2.0000      -0.601598       -16.3703
 122   2.0000      -0.600019       -16.3274
 123   2.0000      -0.593843       -16.1593
 124   2.0000      -0.592232       -16.1154
 125   2.0000      -0.584032       -15.8923
 126   2.0000      -0.577715       -15.7204
 127   2.0000      -0.571495       -15.5512
 128   2.0000      -0.569744       -15.5035
 129   2.0000      -0.563296       -15.3281
 130   2.0000      -0.553532       -15.0624
 131   2.0000      -0.546751       -14.8778
 132   2.0000      -0.540049       -14.6955
 133   2.0000      -0.534941       -14.5565
 134   2.0000      -0.532110       -14.4795
 135   2.0000      -0.528232       -14.3739
 136   2.0000      -0.525497       -14.2995
 137   2.0000      -0.522987       -14.2312
 138   2.0000      -0.519491       -14.1361
 139   2.0000      -0.514951       -14.0125
 140   2.0000      -0.509282       -13.8583
 141   2.0000      -0.504590       -13.7306
 142   2.0000      -0.503690       -13.7061
 143   2.0000      -0.501954       -13.6589
 144   2.0000      -0.498460       -13.5638
 145   2.0000      -0.496293       -13.5048
 146   2.0000      -0.495090       -13.4721
 147   2.0000      -0.493489       -13.4285
 148   2.0000      -0.488773       -13.3002
 149   2.0000      -0.467298       -12.7158
 150   2.0000      -0.460438       -12.5292
 151   2.0000      -0.452038       -12.3006
 152   2.0000      -0.446782       -12.1576
 153   2.0000      -0.445228       -12.1153
 154   2.0000      -0.443148       -12.0587
 155   2.0000      -0.439776       -11.9669
 156   2.0000      -0.433910       -11.8073
 157   2.0000      -0.427845       -11.6423
 158   2.0000      -0.393004       -10.6942
 159   2.0000      -0.380990       -10.3673
 160   2.0000      -0.375784       -10.2256
 161   2.0000      -0.370713       -10.0876
 162   2.0000      -0.367271        -9.9939
 163   2.0000      -0.358815        -9.7638
 164   2.0000      -0.352057        -9.5800
 165   2.0000      -0.345780        -9.4091
 166   2.0000      -0.337925        -9.1954
 167   2.0000      -0.333629        -9.0785
 168   2.0000      -0.324980        -8.8432
 169   2.0000      -0.300046        -8.1647
 170   2.0000      -0.293834        -7.9956
 171   2.0000      -0.288283        -7.8446
 172   2.0000      -0.286643        -7.8000
 173   2.0000      -0.257314        -7.0019
 174   2.0000      -0.244345        -6.6490
 175   2.0000      -0.186730        -5.0812
 176   2.0000      -0.176516        -4.8032
 177   2.0000      -0.063951        -1.7402
 178   2.0000      -0.052621        -1.4319
 179   0.0000       0.032588         0.8868
 180   0.0000       0.068730         1.8702
 181   0.0000       0.092268         2.5107
 182   0.0000       0.095490         2.5984
 183   0.0000       0.126093         3.4312

MULLIKEN ATOMIC CHARGES
-----------------------
   0 C :    0.214584
   1 N :   -0.434985
   2 C :   -0.065239
   3 N :   -0.339053
   4 C :   -0.071303
   5 N :   -0.564525
   6 C :   -0.050024
   7 N :   -0.337318
   8 C :    0.212453
   9 N :   -0.564146
  10 C :    0.111642
  11 N :   -0.437677
  12 C :   -0.066474
  13 N :   -0.443455
  14 C :    0.237236
  15 N :   -0.440551
  16 C :    0.240190
  17 C :   -0.055159
  18 C :   -0.205684
  19 C :    0.239329
  20 C :    0.203122
  21 C :   -0.078751
  22 C :   -0.086418
  23 C :   -0.054016
  24 C :    0.210262
  25 C :    0.113900
  26 C :   -0.070791
  27 C :    0.230955
  28 C :   -0.048389
  29 C :   -0.189837
  30 C :    0.231156
  31 C :    0.202847
  32 C :   -0.066418
  33 C :   -0.088335
  34 C :   -0.050937
  35 C :    0.196527
  36 C :    0.116322
  37 C :   -0.067964
  38 C :    0.238547
  39 C :   -0.062053
  40 C :   -0.194402
  41 C :    0.220461
  42 C :    0.206916
  43 C :   -0.074251
  44 C :   -0.088719
  45 C :   -0.047940
  46 C :    0.198512
  47 C :    0.115680
  48 C :   -0.076547
  49 C :    0.220837
  50 C :   -0.057052
  51 C :   -0.188616
  52 H :    0.061806
  53 H :   -0.012290
  54 H :    0.052637
  55 H :    0.060820
  56 H :    0.066351
  57 H :    0.062304
  58 H :    0.060846
  59 H :   -0.017379
  60 H :    0.050385
  61 H :    0.174252
  62 H :    0.171196
  63 H :    0.056051
  64 H :   -0.023780
  65 H :    0.046111
  66 H :    0.057563
  67 H :    0.061909
  68 H :    0.057972
  69 H :    0.059305
  70 H :   -0.021838
  71 H :    0.048038
  72 H :    0.050286
  73 H :   -0.016626
  74 H :    0.041062
  75 H :    0.049299
  76 H :    0.056828
  77 H :    0.054224
  78 H :    0.053503
  79 H :   -0.013422
  80 H :    0.041358
  81 H :    0.053085
  82 H :   -0.022819
  83 H :    0.043793
  84 H :    0.052775
  85 H :    0.058244
  86 H :    0.056792
  87 H :    0.056343
  88 H :   -0.024488
  89 H :    0.043054
Sum of atomic charges:   -0.0000000

LOEWDIN ATOMIC CHARGES
----------------------
   0 C :    0.007599
   1 N :    0.151412
   2 C :   -0.100533
   3 N :    0.176696
   4 C :    0.055783
   5 N :   -0.141876
   6 C :   -0.017348
   7 N :    0.177881
   8 C :    0.006393
   9 N :   -0.139121
  10 C :    0.031808
  11 N :    0.144171
  12 C :   -0.101063
  13 N :    0.132631
  14 C :   -0.049042
  15 N :    0.138489
  16 C :   -0.038032
  17 C :   -0.020760
  18 C :   -0.111571
  19 C :   -0.087517
  20 C :   -0.003834
  21 C :   -0.103655
  22 C :    0.042763
  23 C :   -0.023712
  24 C :    0.002718
  25 C :    0.030310
  26 C :   -0.100169
  27 C :   -0.082622
  28 C :   -0.018921
  29 C :   -0.112186
  30 C :   -0.051487
  31 C :   -0.008139
  32 C :   -0.101552
  33 C :    0.025351
  34 C :   -0.022470
  35 C :   -0.013622
  36 C :    0.027575
  37 C :   -0.104110
  38 C :   -0.038876
  39 C :   -0.027815
  40 C :   -0.110569
  41 C :   -0.092062
  42 C :   -0.002546
  43 C :   -0.106841
  44 C :    0.034078
  45 C :   -0.019425
  46 C :   -0.009687
  47 C :    0.029194
  48 C :   -0.106912
  49 C :   -0.098176
  50 C :   -0.026047
  51 C :   -0.107951
  52 H :    0.032810
  53 H :    0.005156
  54 H :    0.047306
  55 H :    0.032708
  56 H :    0.030306
  57 H :    0.033102
  58 H :    0.033209
  59 H :    0.002835
  60 H :    0.046524
  61 H :    0.061286
  62 H :    0.059606
  63 H :    0.030639
  64 H :   -0.002320
  65 H :    0.044713
  66 H :    0.030712
  67 H :    0.028125
  68 H :    0.031950
  69 H :    0.031536
  70 H :   -0.000836
  71 H :    0.045599
  72 H :    0.027884
  73 H :    0.002981
  74 H :    0.042535
  75 H :    0.027163
  76 H :    0.025457
  77 H :    0.029716
  78 H :    0.029412
  79 H :    0.004624
  80 H :    0.042072
  81 H :    0.028901
  82 H :   -0.001460
  83 H :    0.044067
  84 H :    0.028775
  85 H :    0.026186
  86 H :    0.030643
  87 H :    0.030981
  88 H :   -0.002384
  89 H :    0.042875

  Mayer bond orders larger than 0.100000
B(  0-C ,  1-N ) :   1.1367 B(  0-C , 17-C ) :   1.6072 B(  0-C , 52-H ) :   0.9691
B(  1-N ,  8-C ) :   1.1326 B(  1-N , 10-C ) :   0.9530 B(  2-C , 12-C ) :   1.5457
B(  2-C , 16-C ) :   1.3126 B(  2-C , 53-H ) :   0.9781 B(  3-N , 14-C ) :   1.1949
B(  3-N , 16-C ) :   1.1984 B(  3-N , 61-H ) :   0.8973 B(  4-C ,  6-C ) :   1.2878
B(  4-C , 17-C ) :   1.2905 B(  4-C , 18-C ) :   1.2119 B(  5-N , 19-C ) :   1.4028
B(  5-N , 27-C ) :   1.4179 B(  6-C ,  8-C ) :   1.6089 B(  6-C , 54-H ) :   0.9710
B(  7-N , 30-C ) :   1.1920 B(  7-N , 38-C ) :   1.2053 B(  7-N , 62-H ) :   0.8993
B(  8-C , 55-H ) :   0.9694 B(  9-N , 41-C ) :   1.4178 B(  9-N , 49-C ) :   1.4069
B( 10-C , 56-H ) :   0.9763 B( 10-C , 57-H ) :   0.9815 B( 10-C , 58-H ) :   0.9832
B( 11-N , 20-C ) :   1.1189 B( 11-N , 24-C ) :   1.1282 B( 11-N , 25-C ) :   0.9584
B( 12-C , 14-C ) :   1.3125 B( 12-C , 59-H ) :   0.9773 B( 13-N , 31-C ) :   1.1100
B( 13-N , 35-C ) :   1.1033 B( 13-N , 36-C ) :   0.9667 B( 14-C , 18-C ) :   1.2116
B( 15-N , 42-C ) :   1.1205 B( 15-N , 46-C ) :   1.1087 B( 15-N , 47-C ) :   0.9626
B( 16-C , 51-C ) :   1.2098 B( 17-C , 60-H ) :   0.9716 B( 18-C , 19-C ) :   1.2408
B( 19-C , 21-C ) :   1.1967 B( 20-C , 28-C ) :   1.6230 B( 20-C , 63-H ) :   0.9704
B( 21-C , 26-C ) :   1.6534 B( 21-C , 64-H ) :   0.9722 B( 22-C , 23-C ) :   1.2773
B( 22-C , 28-C ) :   1.2774 B( 22-C , 29-C ) :   1.2368 B( 23-C , 24-C ) :   1.6212
B( 23-C , 65-H ) :   0.9712 B( 24-C , 66-H ) :   0.9690 B( 25-C , 67-H ) :   0.9762
B( 25-C , 68-H ) :   0.9830 B( 25-C , 69-H ) :   0.9820 B( 26-C , 27-C ) :   1.1994
B( 26-C , 70-H ) :   0.9739 B( 27-C , 29-C ) :   1.2345 B( 28-C , 71-H ) :   0.9712
B( 29-C , 30-C ) :   1.1977 B( 30-C , 32-C ) :   1.3267 B( 31-C , 39-C ) :   1.6470
B( 31-C , 72-H ) :   0.9701 B( 32-C , 37-C ) :   1.5314 B( 32-C , 73-H ) :   0.9775
B( 33-C , 34-C ) :   1.2615 B( 33-C , 39-C ) :   1.2552 B( 33-C , 40-C ) :   1.2818
B( 34-C , 35-C ) :   1.6446 B( 34-C , 74-H ) :   0.9707 B( 35-C , 75-H ) :   0.9701
B( 36-C , 76-H ) :   0.9761 B( 36-C , 77-H ) :   0.9823 B( 36-C , 78-H ) :   0.9833
B( 37-C , 38-C ) :   1.3266 B( 37-C , 79-H ) :   0.9782 B( 38-C , 40-C ) :   1.1966
B( 39-C , 80-H ) :   0.9717 B( 40-C , 41-C ) :   1.2046 B( 41-C , 43-C ) :   1.2243
B( 42-C , 50-C ) :   1.6340 B( 42-C , 81-H ) :   0.9696 B( 43-C , 48-C ) :   1.6273
B( 43-C , 82-H ) :   0.9744 B( 44-C , 45-C ) :   1.2756 B( 44-C , 50-C ) :   1.2634
B( 44-C , 51-C ) :   1.2503 B( 45-C , 46-C ) :   1.6306 B( 45-C , 83-H ) :   0.9709
B( 46-C , 84-H ) :   0.9703 B( 47-C , 85-H ) :   0.9761 B( 47-C , 86-H ) :   0.9827
B( 47-C , 87-H ) :   0.9827 B( 48-C , 49-C ) :   1.2220 B( 48-C , 88-H ) :   0.9734
B( 49-C , 51-C ) :   1.2150 B( 50-C , 89-H ) :   0.9716

MP2 TOTAL ENERGY:    -2130.907371433 Eh
FINAL SINGLE POINT ENERGY     -2130.907371433092

DIPOLE MOMENT
-------------
                                X             Y             Z
Electronic contribution:     -1.37774       0.97533      -0.14503
Nuclear contribution   :     -0.04484       0.15531       0.18261
                        -----------------------------------------
Total Dipole Moment    :     -1.42258       1.13064       0.03758
                        -----------------------------------------
Magnitude (a.u.)       :      1.81755
Magnitude (Debye)      :      4.61985

Rotational constants in cm-1:     0.001499     0.001473     0.000762
Rotational constants in MHz :    44.929329    44.168445    22.852990

                             ****ORCA TERMINATED NORMALLY****
TOTAL RUN TIME: 0 days 1 hours 30 minutes 29 seconds 438 msec
