                         Program Version 5.0.4 -  RELEASE  -
|  1> ! PAL2
|  2> ! mp2 cc-pvdz TightSCF  NoKeepInts
|  3>
|  4> %scf
|  5>   MaxCore 2000
|  6> end
|  7> %mp2
|  8>   MaxCore 2000
|  9> end
| 10> * xyz 0 1
| 11>    C       -4.50000         5.51300        -0.91300
| 12>    C        1.47400         4.04100         0.05700
| 13>    C       -2.80200         4.09300         0.04900
| 14>    C       -2.67500         5.03300         1.08400
| 15>    C       -3.45800         6.16900         1.08800
| 16>    C       -5.20300         7.60800         0.15300
| 17>    C        0.13200         4.30700         0.06100
| 18>    C       -0.56900         3.05600         0.04700
| 19>    C        1.64900         2.61800         0.02300
| 20>    C       -3.74300         4.35900        -0.95800
| 21>    N       -4.35200         6.39900         0.09900
| 22>    N        0.38800         2.06700         0.02500
| 23>    N       -2.01000         0.39500        -0.07500
| 24>    N       -0.38800        -2.07400        -0.02700
| 25>    N        2.01000        -0.40100         0.06500
| 26>    C       -1.96000         2.86100         0.02400
| 27>    C       -2.62300         1.61500        -0.01800
| 28>    C       -5.57300        -4.32900         1.06600
| 29>    C       -4.07300         1.47100         0.05600
| 30>    C       -4.10600        -2.75600        -0.02600
| 31>    C       -4.99500        -2.75700        -1.11100
| 32>    C       -6.13200        -3.54200        -1.07600
| 33>    C       -7.65100        -5.11300         0.04000
| 34>    C       -4.32400         0.14100         0.03700
| 35>    C       -3.02500        -0.52000        -0.04800
| 36>    C       -4.42200        -3.56600         1.07500
| 37>    N       -6.40700        -4.31300         0.00100
| 38>    C       -2.86700        -1.92200        -0.04000
| 39>    C       -1.65000        -2.62400        -0.02700
| 40>    C        3.56800        -6.14200        -1.04000
| 41>    C       -1.47600        -4.04900        -0.03400
| 42>    C        2.80300        -4.09900        -0.00800
| 43>    C        3.65700        -4.38400         1.06900
| 44>    C        4.42700        -5.53000         1.05900
| 45>    C        5.24500        -7.58800         0.01400
| 46>    C       -0.13400        -4.31500        -0.02200
| 47>    C        0.56800        -3.06400        -0.02700
| 48>    C        2.77500        -5.01200        -1.07400
| 49>    N        4.37600        -6.39100         0.01700
| 50>    C        1.95900        -2.86900        -0.00900
| 51>    C        2.62100        -1.62200         0.00900
| 52>    C        5.54300         4.33900        -1.13000
| 53>    C        4.07000        -1.47900        -0.09400
| 54>    C        4.10400         2.75100        -0.02100
| 55>    C        5.02700         2.72900         1.03600
| 56>    C        6.16600         3.50900         0.97800
| 57>    C        7.61900         5.15300        -0.11500
| 58>    C        4.32100        -0.14800        -0.09200
| 59>    C        3.02500         0.51400         0.01500
| 60>    C        4.38700         3.58200        -1.11500
| 61>    C        2.86600         1.91600         0.01300
| 62>    N        6.41300         4.29600        -0.09500
| 63>    H       -5.22800         5.76500        -1.67400
| 64>    H        2.27400         4.76600         0.08100
| 65>    H       -1.97300         4.87900         1.89500
| 66>    H       -3.40200         6.91700         1.86900
| 67>    H       -6.08700         7.39400         0.75900
| 68>    H       -4.63000         8.42100         0.59800
| 69>    H       -5.50000         7.87300        -0.86200
| 70>    H       -0.33200         5.28200         0.06900
| 71>    H       -3.87800         3.67900        -1.79100
| 72>    H        0.18200         1.07200         0.00500
| 73>    H       -0.18300        -1.08000        -0.02100
| 74>    H       -5.86400        -4.96200         1.89500
| 75>    H       -4.79400         2.27200         0.13900
| 76>    H       -4.80000        -2.16000        -1.99400
| 77>    H       -6.84100        -3.58200        -1.89300
| 78>    H       -8.42800        -4.53600         0.54600
| 79>    H       -7.95600        -5.33700        -0.98100
| 80>    H       -7.45600        -6.03700         0.58400
| 81>    H       -5.28700        -0.34400         0.10000
| 82>    H       -3.78000        -3.60100         1.94700
| 83>    H        3.58700        -6.86800        -1.84300
| 84>    H       -2.27600        -4.77400        -0.05000
| 85>    H        3.71400        -3.72400         1.92600
| 86>    H        5.09200        -5.79500         1.87100
| 87>    H        6.20500        -7.32900        -0.43900
| 88>    H        5.39300        -7.91700         1.04200
| 89>    H        4.75900        -8.37300        -0.56400
| 90>    H        0.32900        -5.29000        -0.00800
| 91>    H        2.14600        -4.84200        -1.94000
| 92>    H        5.80800         4.98600        -1.95600
| 93>    H        4.78800        -2.28100        -0.18500
| 94>    H        4.86000         2.11400         1.91200
| 95>    H        6.90100         3.53100         1.77200
| 96>    H        7.38300         6.10900         0.35600
| 97>    H        8.41400         4.65200         0.43500
| 98>    H        7.92100         5.31000        -1.15000
| 99>    H        5.28300         0.33600        -0.17900
|100>    H        3.72000         3.63200        -1.96700
|101> *
|102>
|103>                          ****END OF INPUT****

CARTESIAN COORDINATES (ANGSTROEM)
---------------------------------
  C     -4.500000    5.513000   -0.913000
  C      1.474000    4.041000    0.057000
  C     -2.802000    4.093000    0.049000
  C     -2.675000    5.033000    1.084000
  C     -3.458000    6.169000    1.088000
  C     -5.203000    7.608000    0.153000
  C      0.132000    4.307000    0.061000
  C     -0.569000    3.056000    0.047000
  C      1.649000    2.618000    0.023000
  C     -3.743000    4.359000   -0.958000
  N     -4.352000    6.399000    0.099000
  N      0.388000    2.067000    0.025000
  N     -2.010000    0.395000   -0.075000
  N     -0.388000   -2.074000   -0.027000
  N      2.010000   -0.401000    0.065000
  C     -1.960000    2.861000    0.024000
  C     -2.623000    1.615000   -0.018000
  C     -5.573000   -4.329000    1.066000
  C     -4.073000    1.471000    0.056000
  C     -4.106000   -2.756000   -0.026000
  C     -4.995000   -2.757000   -1.111000
  C     -6.132000   -3.542000   -1.076000
  C     -7.651000   -5.113000    0.040000
  C     -4.324000    0.141000    0.037000
  C     -3.025000   -0.520000   -0.048000
  C     -4.422000   -3.566000    1.075000
  N     -6.407000   -4.313000    0.001000
  C     -2.867000   -1.922000   -0.040000
  C     -1.650000   -2.624000   -0.027000
  C      3.568000   -6.142000   -1.040000
  C     -1.476000   -4.049000   -0.034000
  C      2.803000   -4.099000   -0.008000
  C      3.657000   -4.384000    1.069000
  C      4.427000   -5.530000    1.059000
  C      5.245000   -7.588000    0.014000
  C     -0.134000   -4.315000   -0.022000
  C      0.568000   -3.064000   -0.027000
  C      2.775000   -5.012000   -1.074000
  N      4.376000   -6.391000    0.017000
  C      1.959000   -2.869000   -0.009000
  C      2.621000   -1.622000    0.009000
  C      5.543000    4.339000   -1.130000
  C      4.070000   -1.479000   -0.094000
  C      4.104000    2.751000   -0.021000
  C      5.027000    2.729000    1.036000
  C      6.166000    3.509000    0.978000
  C      7.619000    5.153000   -0.115000
  C      4.321000   -0.148000   -0.092000
  C      3.025000    0.514000    0.015000
  C      4.387000    3.582000   -1.115000
  C      2.866000    1.916000    0.013000
  N      6.413000    4.296000   -0.095000
  H     -5.228000    5.765000   -1.674000
  H      2.274000    4.766000    0.081000
  H     -1.973000    4.879000    1.895000
  H     -3.402000    6.917000    1.869000
  H     -6.087000    7.394000    0.759000
  H     -4.630000    8.421000    0.598000
  H     -5.500000    7.873000   -0.862000
  H     -0.332000    5.282000    0.069000
  H     -3.878000    3.679000   -1.791000
  H      0.182000    1.072000    0.005000
  H     -0.183000   -1.080000   -0.021000
  H     -5.864000   -4.962000    1.895000
  H     -4.794000    2.272000    0.139000
  H     -4.800000   -2.160000   -1.994000
  H     -6.841000   -3.582000   -1.893000
  H     -8.428000   -4.536000    0.546000
  H     -7.956000   -5.337000   -0.981000
  H     -7.456000   -6.037000    0.584000
  H     -5.287000   -0.344000    0.100000
  H     -3.780000   -3.601000    1.947000
  H      3.587000   -6.868000   -1.843000
  H     -2.276000   -4.774000   -0.050000
  H      3.714000   -3.724000    1.926000
  H      5.092000   -5.795000    1.871000
  H      6.205000   -7.329000   -0.439000
  H      5.393000   -7.917000    1.042000
  H      4.759000   -8.373000   -0.564000
  H      0.329000   -5.290000   -0.008000
  H      2.146000   -4.842000   -1.940000
  H      5.808000    4.986000   -1.956000
  H      4.788000   -2.281000   -0.185000
  H      4.860000    2.114000    1.912000
  H      6.901000    3.531000    1.772000
  H      7.383000    6.109000    0.356000
  H      8.414000    4.652000    0.435000
  H      7.921000    5.310000   -1.150000
  H      5.283000    0.336000   -0.179000
  H      3.720000    3.632000   -1.967000

 Total Charge           Charge          ....    0
 Multiplicity           Mult            ....    1
 Number of Electrons    NEL             ....  358
 Basis Dimension        Dim             ....  918

ORBITAL ENERGIES
----------------

  NO   OCC          E(Eh)            E(eV)
   0   2.0000     -15.642834      -425.6632
   1   2.0000     -15.639796      -425.5805
   2   2.0000     -15.628554      -425.2746
   3   2.0000     -15.619948      -425.0404
   4   2.0000     -15.519594      -422.3096
   5   2.0000     -15.515551      -422.1996
   6   2.0000     -15.444653      -420.2704
   7   2.0000     -15.444068      -420.2544
   8   2.0000     -11.304984      -307.6243
   9   2.0000     -11.302847      -307.5661
  10   2.0000     -11.299071      -307.4634
  11   2.0000     -11.296399      -307.3906
  12   2.0000     -11.295922      -307.3777
  13   2.0000     -11.295440      -307.3645
  14   2.0000     -11.294052      -307.3268
  15   2.0000     -11.291337      -307.2529
  16   2.0000     -11.285944      -307.1061
  17   2.0000     -11.285156      -307.0847
  18   2.0000     -11.279693      -306.9360
  19   2.0000     -11.279104      -306.9200
  20   2.0000     -11.247055      -306.0479
  21   2.0000     -11.243158      -305.9419
  22   2.0000     -11.237027      -305.7751
  23   2.0000     -11.236149      -305.7512
  24   2.0000     -11.234916      -305.7176
  25   2.0000     -11.234282      -305.7004
  26   2.0000     -11.232934      -305.6637
  27   2.0000     -11.226908      -305.4997
  28   2.0000     -11.226536      -305.4896
  29   2.0000     -11.226408      -305.4861
  30   2.0000     -11.220526      -305.3260
  31   2.0000     -11.220103      -305.3145
  32   2.0000     -11.201711      -304.8141
  33   2.0000     -11.201149      -304.7988
  34   2.0000     -11.193573      -304.5926
  35   2.0000     -11.193149      -304.5811
  36   2.0000     -11.173838      -304.0556
  37   2.0000     -11.172653      -304.0234
  38   2.0000     -11.172336      -304.0147
  39   2.0000     -11.172239      -304.0121
  40   2.0000     -11.169558      -303.9391
  41   2.0000     -11.169105      -303.9268
  42   2.0000     -11.166559      -303.8575
  43   2.0000     -11.165719      -303.8347
  44   2.0000     -11.161504      -303.7200
  45   2.0000     -11.160160      -303.6834
  46   2.0000     -11.152081      -303.4635
  47   2.0000     -11.150350      -303.4165
  48   2.0000     -11.144345      -303.2530
  49   2.0000     -11.142079      -303.1914
  50   2.0000     -11.141335      -303.1711
  51   2.0000     -11.138596      -303.0966
  52   2.0000      -1.328829       -36.1593
  53   2.0000      -1.326155       -36.0865
  54   2.0000      -1.316460       -35.8227
  55   2.0000      -1.309804       -35.6416
  56   2.0000      -1.218629       -33.1606
  57   2.0000      -1.212257       -32.9872
  58   2.0000      -1.161798       -31.6141
  59   2.0000      -1.157010       -31.4838
  60   2.0000      -1.117219       -30.4011
  61   2.0000      -1.113739       -30.3064
  62   2.0000      -1.105554       -30.0837
  63   2.0000      -1.100142       -29.9364
  64   2.0000      -1.052667       -28.6445
  65   2.0000      -1.049955       -28.5707
  66   2.0000      -1.041046       -28.3283
  67   2.0000      -1.035389       -28.1744
  68   2.0000      -1.027141       -27.9499
  69   2.0000      -1.010238       -27.4900
  70   2.0000      -1.009354       -27.4659
  71   2.0000      -0.997426       -27.1414
  72   2.0000      -0.982925       -26.7467
  73   2.0000      -0.975363       -26.5410
  74   2.0000      -0.969647       -26.3854
  75   2.0000      -0.959715       -26.1152
  76   2.0000      -0.952451       -25.9175
  77   2.0000      -0.942842       -25.6560
  78   2.0000      -0.940262       -25.5858
  79   2.0000      -0.923305       -25.1244
  80   2.0000      -0.893258       -24.3068
  81   2.0000      -0.879365       -23.9287
  82   2.0000      -0.876374       -23.8473
  83   2.0000      -0.868478       -23.6325
  84   2.0000      -0.863670       -23.5017
  85   2.0000      -0.857042       -23.3213
  86   2.0000      -0.847841       -23.0709
  87   2.0000      -0.844002       -22.9665
  88   2.0000      -0.821717       -22.3601
  89   2.0000      -0.798568       -21.7301
  90   2.0000      -0.797636       -21.7048
  91   2.0000      -0.739468       -20.1219
  92   2.0000      -0.729974       -19.8636
  93   2.0000      -0.729280       -19.8447
  94   2.0000      -0.720940       -19.6178
  95   2.0000      -0.719939       -19.5905
  96   2.0000      -0.712155       -19.3787
  97   2.0000      -0.708825       -19.2881
  98   2.0000      -0.698717       -19.0131
  99   2.0000      -0.692952       -18.8562
 100   2.0000      -0.684699       -18.6316
 101   2.0000      -0.680461       -18.5163
 102   2.0000      -0.679666       -18.4947
 103   2.0000      -0.673174       -18.3180
 104   2.0000      -0.668142       -18.1811
 105   2.0000      -0.666372       -18.1329
 106   2.0000      -0.662722       -18.0336
 107   2.0000      -0.660262       -17.9666
 108   2.0000      -0.657924       -17.9030
 109   2.0000      -0.655333       -17.8325
 110   2.0000      -0.652431       -17.7536
 111   2.0000      -0.650303       -17.6956
 112   2.0000      -0.646869       -17.6022
 113   2.0000      -0.643706       -17.5161
 114   2.0000      -0.634756       -17.2726
 115   2.0000      -0.622842       -16.9484
 116   2.0000      -0.619111       -16.8469
 117   2.0000      -0.616698       -16.7812
 118   2.0000      -0.610560       -16.6142
 119   2.0000      -0.608947       -16.5703
 120   2.0000      -0.608158       -16.5488
 121   2.0000      -0.604177       -16.4405
 122   2.0000      -0.602127       -16.3847
 123   2.0000      -0.593332       -16.1454
 124   2.0000      -0.587629       -15.9902
 125   2.0000      -0.585355       -15.9283
 126   2.0000      -0.578216       -15.7341
 127   2.0000      -0.573381       -15.6025
 128   2.0000      -0.571423       -15.5492
 129   2.0000      -0.561033       -15.2665
 130   2.0000      -0.553839       -15.0707
 131   2.0000      -0.543726       -14.7955
 132   2.0000      -0.541510       -14.7352
 133   2.0000      -0.535370       -14.5682
 134   2.0000      -0.533666       -14.5218
 135   2.0000      -0.530229       -14.4283
 136   2.0000      -0.524231       -14.2651
 137   2.0000      -0.523166       -14.2361
 138   2.0000      -0.518186       -14.1006
 139   2.0000      -0.517034       -14.0692
 140   2.0000      -0.509321       -13.8593
 141   2.0000      -0.505262       -13.7489
 142   2.0000      -0.504156       -13.7188
 143   2.0000      -0.503399       -13.6982
 144   2.0000      -0.499447       -13.5906
 145   2.0000      -0.498197       -13.5566
 146   2.0000      -0.496093       -13.4994
 147   2.0000      -0.492944       -13.4137
 148   2.0000      -0.490790       -13.3551
 149   2.0000      -0.469019       -12.7627
 150   2.0000      -0.460446       -12.5294
 151   2.0000      -0.451366       -12.2823
 152   2.0000      -0.448390       -12.2013
 153   2.0000      -0.446082       -12.1385
 154   2.0000      -0.445211       -12.1148
 155   2.0000      -0.439372       -11.9559
 156   2.0000      -0.435194       -11.8422
 157   2.0000      -0.431938       -11.7536
 158   2.0000      -0.391362       -10.6495
 159   2.0000      -0.381670       -10.3858
 160   2.0000      -0.379949       -10.3389
 161   2.0000      -0.372651       -10.1404
 162   2.0000      -0.362664        -9.8686
 163   2.0000      -0.360222        -9.8022
 164   2.0000      -0.352745        -9.5987
 165   2.0000      -0.347786        -9.4637
 166   2.0000      -0.337262        -9.1774
 167   2.0000      -0.332418        -9.0455
 168   2.0000      -0.329456        -8.9650
 169   2.0000      -0.300223        -8.1695
 170   2.0000      -0.296293        -8.0625
 171   2.0000      -0.288690        -7.8557
 172   2.0000      -0.287267        -7.8169
 173   2.0000      -0.254949        -6.9375
 174   2.0000      -0.248033        -6.7493
 175   2.0000      -0.188154        -5.1199
 176   2.0000      -0.178014        -4.8440
 177   2.0000      -0.066761        -1.8167
 178   2.0000      -0.054912        -1.4942
 179   0.0000       0.030764         0.8371
 180   0.0000       0.070484         1.9180
 181   0.0000       0.093079         2.5328
 182   0.0000       0.097649         2.6572
 183   0.0000       0.131602         3.5811

MULLIKEN ATOMIC CHARGES
-----------------------
   0 C :    0.205152
   1 N :   -0.444846
   2 C :   -0.064859
   3 N :   -0.337493
   4 C :   -0.073097
   5 N :   -0.561933
   6 C :   -0.070450
   7 N :   -0.338559
   8 C :    0.204149
   9 N :   -0.562941
  10 C :    0.115237
  11 N :   -0.437204
  12 C :   -0.070451
  13 N :   -0.437986
  14 C :    0.235082
  15 N :   -0.440849
  16 C :    0.234075
  17 C :   -0.068958
  18 C :   -0.193884
  19 C :    0.224718
  20 C :    0.209674
  21 C :   -0.077446
  22 C :   -0.086037
  23 C :   -0.047473
  24 C :    0.204786
  25 C :    0.113714
  26 C :   -0.073446
  27 C :    0.220789
  28 C :   -0.053518
  29 C :   -0.184279
  30 C :    0.237243
  31 C :    0.214693
  32 C :   -0.064257
  33 C :   -0.077752
  34 C :   -0.049692
  35 C :    0.207892
  36 C :    0.113107
  37 C :   -0.066134
  38 C :    0.236514
  39 C :   -0.061229
  40 C :   -0.187506
  41 C :    0.220849
  42 C :    0.201997
  43 C :   -0.073671
  44 C :   -0.089330
  45 C :   -0.054332
  46 C :    0.204407
  47 C :    0.115642
  48 C :   -0.073757
  49 C :    0.227872
  50 C :   -0.051710
  51 C :   -0.190742
  52 H :    0.051222
  53 H :   -0.014557
  54 H :    0.046286
  55 H :    0.050260
  56 H :    0.057503
  57 H :    0.054865
  58 H :    0.054147
  59 H :   -0.010607
  60 H :    0.043699
  61 H :    0.172381
  62 H :    0.173417
  63 H :    0.057176
  64 H :   -0.018065
  65 H :    0.046729
  66 H :    0.057779
  67 H :    0.063421
  68 H :    0.058305
  69 H :    0.058886
  70 H :   -0.025265
  71 H :    0.048160
  72 H :    0.058936
  73 H :   -0.013080
  74 H :    0.049047
  75 H :    0.057982
  76 H :    0.064189
  77 H :    0.059795
  78 H :    0.058963
  79 H :   -0.014050
  80 H :    0.049360
  81 H :    0.053598
  82 H :   -0.024164
  83 H :    0.042523
  84 H :    0.053038
  85 H :    0.059093
  86 H :    0.056010
  87 H :    0.056690
  88 H :   -0.020806
  89 H :    0.045364
Sum of atomic charges:   -0.0000000

LOEWDIN ATOMIC CHARGES
----------------------
   0 C :   -0.008293
   1 N :    0.132100
   2 C :   -0.100678
   3 N :    0.178952
   4 C :    0.026098
   5 N :   -0.136399
   6 C :   -0.026609
   7 N :    0.177027
   8 C :   -0.009773
   9 N :   -0.139083
  10 C :    0.027569
  11 N :    0.145261
  12 C :   -0.102340
  13 N :    0.146001
  14 C :   -0.042745
  15 N :    0.138298
  16 C :   -0.048538
  17 C :   -0.027277
  18 C :   -0.106705
  19 C :   -0.087207
  20 C :    0.002212
  21 C :   -0.105640
  22 C :    0.043775
  23 C :   -0.019339
  24 C :   -0.001975
  25 C :    0.030569
  26 C :   -0.104672
  27 C :   -0.098647
  28 C :   -0.021631
  29 C :   -0.105410
  30 C :   -0.043435
  31 C :    0.005745
  32 C :   -0.097717
  33 C :    0.047686
  34 C :   -0.018594
  35 C :   -0.000071
  36 C :    0.030644
  37 C :   -0.099551
  38 C :   -0.042594
  39 C :   -0.024178
  40 C :   -0.108557
  41 C :   -0.094492
  42 C :   -0.006592
  43 C :   -0.104242
  44 C :    0.033485
  45 C :   -0.023637
  46 C :   -0.004516
  47 C :    0.029237
  48 C :   -0.103713
  49 C :   -0.086097
  50 C :   -0.022316
  51 C :   -0.109098
  52 H :    0.028056
  53 H :    0.004084
  54 H :    0.042974
  55 H :    0.028311
  56 H :    0.025769
  57 H :    0.029475
  58 H :    0.030271
  59 H :    0.005119
  60 H :    0.042419
  61 H :    0.060392
  62 H :    0.060774
  63 H :    0.031374
  64 H :    0.000050
  65 H :    0.045365
  66 H :    0.030571
  67 H :    0.028805
  68 H :    0.032116
  69 H :    0.031409
  70 H :   -0.002546
  71 H :    0.045362
  72 H :    0.031933
  73 H :    0.004675
  74 H :    0.045952
  75 H :    0.031219
  76 H :    0.029237
  77 H :    0.032326
  78 H :    0.031970
  79 H :    0.004254
  80 H :    0.045479
  81 H :    0.028929
  82 H :   -0.002223
  83 H :    0.043173
  84 H :    0.029120
  85 H :    0.026564
  86 H :    0.030330
  87 H :    0.031151
  88 H :   -0.000624
  89 H :    0.044087

  Mayer bond orders larger than 0.100000
B(  0-C ,  1-N ) :   1.1085 B(  0-C , 17-C ) :   1.6518 B(  0-C , 52-H ) :   0.9692
B(  1-N ,  8-C ) :   1.1068 B(  1-N , 10-C ) :   0.9659 B(  2-C , 12-C ) :   1.5321
B(  2-C , 16-C ) :   1.3279 B(  2-C , 53-H ) :   0.9776 B(  3-N , 14-C ) :   1.2060
B(  3-N , 16-C ) :   1.1945 B(  3-N , 61-H ) :   0.8987 B(  4-C ,  6-C ) :   1.2507
B(  4-C , 17-C ) :   1.2531 B(  4-C , 18-C ) :   1.3029 B(  5-N , 19-C ) :   1.4262
B(  5-N , 27-C ) :   1.4003 B(  6-C ,  8-C ) :   1.6529 B(  6-C , 54-H ) :   0.9705
B(  7-N , 30-C ) :   1.1926 B(  7-N , 38-C ) :   1.2001 B(  7-N , 62-H ) :   0.8980
B(  8-C , 55-H ) :   0.9702 B(  9-N , 41-C ) :   1.4043 B(  9-N , 49-C ) :   1.4193
B( 10-C , 56-H ) :   0.9763 B( 10-C , 57-H ) :   0.9826 B( 10-C , 58-H ) :   0.9831
B( 11-N , 20-C ) :   1.1272 B( 11-N , 24-C ) :   1.1220 B( 11-N , 25-C ) :   0.9577
B( 12-C , 14-C ) :   1.3302 B( 12-C , 59-H ) :   0.9768 B( 13-N , 31-C ) :   1.1309
B( 13-N , 35-C ) :   1.1235 B( 13-N , 36-C ) :   0.9566 B( 14-C , 18-C ) :   1.1847
B( 15-N , 42-C ) :   1.1138 B( 15-N , 46-C ) :   1.1157 B( 15-N , 47-C ) :   0.9623
B( 16-C , 51-C ) :   1.1961 B( 17-C , 60-H ) :   0.9703 B( 18-C , 19-C ) :   1.1980
B( 19-C , 21-C ) :   1.2190 B( 20-C , 28-C ) :   1.6222 B( 20-C , 63-H ) :   0.9702
B( 21-C , 26-C ) :   1.6366 B( 21-C , 64-H ) :   0.9731 B( 22-C , 23-C ) :   1.2859
B( 22-C , 28-C ) :   1.2746 B( 22-C , 29-C ) :   1.2253 B( 23-C , 24-C ) :   1.6167
B( 23-C , 65-H ) :   0.9708 B( 24-C , 66-H ) :   0.9692 B( 25-C , 67-H ) :   0.9762
B( 25-C , 68-H ) :   0.9829 B( 25-C , 69-H ) :   0.9821 B( 26-C , 27-C ) :   1.2150
B( 26-C , 70-H ) :   0.9729 B( 27-C , 29-C ) :   1.2259 B( 28-C , 71-H ) :   0.9715
B( 29-C , 30-C ) :   1.2192 B( 30-C , 32-C ) :   1.3047 B( 31-C , 39-C ) :   1.6233
B( 31-C , 72-H ) :   0.9694 B( 32-C , 37-C ) :   1.5537 B( 32-C , 73-H ) :   0.9779
B( 33-C , 34-C ) :   1.2813 B( 33-C , 39-C ) :   1.2738 B( 33-C , 40-C ) :   1.2356
B( 34-C , 35-C ) :   1.6201 B( 34-C , 74-H ) :   0.9703 B( 35-C , 75-H ) :   0.9694
B( 36-C , 76-H ) :   0.9763 B( 36-C , 77-H ) :   0.9820 B( 36-C , 78-H ) :   0.9830
B( 37-C , 38-C ) :   1.3067 B( 37-C , 79-H ) :   0.9776 B( 38-C , 40-C ) :   1.2140
B( 39-C , 80-H ) :   0.9714 B( 40-C , 41-C ) :   1.2231 B( 41-C , 43-C ) :   1.2109
B( 42-C , 50-C ) :   1.6341 B( 42-C , 81-H ) :   0.9696 B( 43-C , 48-C ) :   1.6405
B( 43-C , 82-H ) :   0.9734 B( 44-C , 45-C ) :   1.2688 B( 44-C , 50-C ) :   1.2674
B( 44-C , 51-C ) :   1.2580 B( 45-C , 46-C ) :   1.6335 B( 45-C , 83-H ) :   0.9713
B( 46-C , 84-H ) :   0.9702 B( 47-C , 85-H ) :   0.9761 B( 47-C , 86-H ) :   0.9828
B( 47-C , 87-H ) :   0.9826 B( 48-C , 49-C ) :   1.2114 B( 48-C , 88-H ) :   0.9740
B( 49-C , 51-C ) :   1.2200 B( 50-C , 89-H ) :   0.9712

MP2 TOTAL ENERGY:    -2130.915735188 Eh
FINAL SINGLE POINT ENERGY     -2130.915735188178

DIPOLE MOMENT
-------------
                                X             Y             Z
Electronic contribution:      0.18232      -1.46065      -0.20906
Nuclear contribution   :      0.00630       0.18878       0.22705
                        -----------------------------------------
Total Dipole Moment    :      0.18862      -1.27187       0.01799
                        -----------------------------------------
Magnitude (a.u.)       :      1.28591
Magnitude (Debye)      :      3.26851

Rotational constants in cm-1:     0.001498     0.001475     0.000762
Rotational constants in MHz :    44.918592    44.211014    22.844282

                             ****ORCA TERMINATED NORMALLY****
TOTAL RUN TIME: 0 days 1 hours 9 minutes 28 seconds 859 msec
