                         Program Version 5.0.4 -  RELEASE  -
|  1> ! PAL2
|  2> ! mp2 cc-pvdz TightSCF  NoKeepInts
|  3>
|  4> %scf
|  5>   MaxCore 2000
|  6> end
|  7> %mp2
|  8>   MaxCore 2000
|  9> end
| 10> * xyz 0 1
| 11>    C       -4.92100         5.19900         0.38400
| 12>    C        1.47400         4.04100         0.05700
| 13>    C       -2.80200         4.09300         0.04900
| 14>    C       -2.25500         5.34700        -0.26400
| 15>    C       -3.04900         6.47600        -0.24100
| 16>    C       -5.17800         7.62500         0.12900
| 17>    C        0.13200         4.30700         0.06100
| 18>    C       -0.56900         3.05600         0.04700
| 19>    C        1.64900         2.61800         0.02300
| 20>    C       -4.16500         4.04300         0.38000
| 21>    N       -4.36200         6.39200         0.07600
| 22>    N        0.38800         2.06700         0.02500
| 23>    N       -2.01000         0.39500        -0.07500
| 24>    N       -0.38800        -2.07400        -0.02700
| 25>    N        2.01000        -0.40100         0.06500
| 26>    C       -1.96000         2.86100         0.02400
| 27>    C       -2.62300         1.61500        -0.01800
| 28>    C       -5.57300        -4.32900         1.06600
| 29>    C       -4.07300         1.47100         0.05600
| 30>    C       -4.10600        -2.75600        -0.02600
| 31>    C       -4.99500        -2.75700        -1.11100
| 32>    C       -6.13200        -3.54200        -1.07600
| 33>    C       -7.65100        -5.11300         0.04000
| 34>    C       -4.32400         0.14100         0.03700
| 35>    C       -3.02500        -0.52000        -0.04800
| 36>    C       -4.42200        -3.56600         1.07500
| 37>    N       -6.40700        -4.31300         0.00100
| 38>    C       -2.86700        -1.92200        -0.04000
| 39>    C       -1.65000        -2.62400        -0.02700
| 40>    C        3.56800        -6.14200        -1.04000
| 41>    C       -1.47600        -4.04900        -0.03400
| 42>    C        2.80300        -4.09900        -0.00800
| 43>    C        3.65700        -4.38400         1.06900
| 44>    C        4.42700        -5.53000         1.05900
| 45>    C        5.24500        -7.58800         0.01400
| 46>    C       -0.13400        -4.31500        -0.02200
| 47>    C        0.56800        -3.06400        -0.02700
| 48>    C        2.77500        -5.01200        -1.07400
| 49>    N        4.37600        -6.39100         0.01700
| 50>    C        1.95900        -2.86900        -0.00900
| 51>    C        2.62100        -1.62200         0.00900
| 52>    C        5.54300         4.33900        -1.13000
| 53>    C        4.07000        -1.47900        -0.09400
| 54>    C        4.10400         2.75100        -0.02100
| 55>    C        5.02700         2.72900         1.03600
| 56>    C        6.16600         3.50900         0.97800
| 57>    C        7.61900         5.15300        -0.11500
| 58>    C        4.32100        -0.14800        -0.09200
| 59>    C        3.02500         0.51400         0.01500
| 60>    C        4.38700         3.58200        -1.11500
| 61>    C        2.86600         1.91600         0.01300
| 62>    N        6.41300         4.29600        -0.09500
| 63>    H       -5.97700         5.20600         0.62000
| 64>    H        2.27400         4.76600         0.08100
| 65>    H       -1.20700         5.45200        -0.51800
| 66>    H       -2.67100         7.46400        -0.46700
| 67>    H       -5.07500         8.07800         1.11800
| 68>    H       -4.82300         8.31400        -0.63800
| 69>    H       -6.22000         7.36500        -0.05700
| 70>    H       -0.33200         5.28200         0.06900
| 71>    H       -4.64900         3.10300         0.61700
| 72>    H        0.18200         1.07200         0.00500
| 73>    H       -0.18300        -1.08000        -0.02100
| 74>    H       -5.86400        -4.96200         1.89500
| 75>    H       -4.79400         2.27200         0.13900
| 76>    H       -4.80000        -2.16000        -1.99400
| 77>    H       -6.84100        -3.58200        -1.89300
| 78>    H       -8.42800        -4.53600         0.54600
| 79>    H       -7.95600        -5.33700        -0.98100
| 80>    H       -7.45600        -6.03700         0.58400
| 81>    H       -5.28700        -0.34400         0.10000
| 82>    H       -3.78000        -3.60100         1.94700
| 83>    H        3.58700        -6.86800        -1.84300
| 84>    H       -2.27600        -4.77400        -0.05000
| 85>    H        3.71400        -3.72400         1.92600
| 86>    H        5.09200        -5.79500         1.87100
| 87>    H        6.20500        -7.32900        -0.43900
| 88>    H        5.39300        -7.91700         1.04200
| 89>    H        4.75900        -8.37300        -0.56400
| 90>    H        0.32900        -5.29000        -0.00800
| 91>    H        2.14600        -4.84200        -1.94000
| 92>    H        5.80800         4.98600        -1.95600
| 93>    H        4.78800        -2.28100        -0.18500
| 94>    H        4.86000         2.11400         1.91200
| 95>    H        6.90100         3.53100         1.77200
| 96>    H        7.38300         6.10900         0.35600
| 97>    H        8.41400         4.65200         0.43500
| 98>    H        7.92100         5.31000        -1.15000
| 99>    H        5.28300         0.33600        -0.17900
|100>    H        3.72000         3.63200        -1.96700
|101> *
|102>
|103>                          ****END OF INPUT****

CARTESIAN COORDINATES (ANGSTROEM)
---------------------------------
  C     -4.921000    5.199000    0.384000
  C      1.474000    4.041000    0.057000
  C     -2.802000    4.093000    0.049000
  C     -2.255000    5.347000   -0.264000
  C     -3.049000    6.476000   -0.241000
  C     -5.178000    7.625000    0.129000
  C      0.132000    4.307000    0.061000
  C     -0.569000    3.056000    0.047000
  C      1.649000    2.618000    0.023000
  C     -4.165000    4.043000    0.380000
  N     -4.362000    6.392000    0.076000
  N      0.388000    2.067000    0.025000
  N     -2.010000    0.395000   -0.075000
  N     -0.388000   -2.074000   -0.027000
  N      2.010000   -0.401000    0.065000
  C     -1.960000    2.861000    0.024000
  C     -2.623000    1.615000   -0.018000
  C     -5.573000   -4.329000    1.066000
  C     -4.073000    1.471000    0.056000
  C     -4.106000   -2.756000   -0.026000
  C     -4.995000   -2.757000   -1.111000
  C     -6.132000   -3.542000   -1.076000
  C     -7.651000   -5.113000    0.040000
  C     -4.324000    0.141000    0.037000
  C     -3.025000   -0.520000   -0.048000
  C     -4.422000   -3.566000    1.075000
  N     -6.407000   -4.313000    0.001000
  C     -2.867000   -1.922000   -0.040000
  C     -1.650000   -2.624000   -0.027000
  C      3.568000   -6.142000   -1.040000
  C     -1.476000   -4.049000   -0.034000
  C      2.803000   -4.099000   -0.008000
  C      3.657000   -4.384000    1.069000
  C      4.427000   -5.530000    1.059000
  C      5.245000   -7.588000    0.014000
  C     -0.134000   -4.315000   -0.022000
  C      0.568000   -3.064000   -0.027000
  C      2.775000   -5.012000   -1.074000
  N      4.376000   -6.391000    0.017000
  C      1.959000   -2.869000   -0.009000
  C      2.621000   -1.622000    0.009000
  C      5.543000    4.339000   -1.130000
  C      4.070000   -1.479000   -0.094000
  C      4.104000    2.751000   -0.021000
  C      5.027000    2.729000    1.036000
  C      6.166000    3.509000    0.978000
  C      7.619000    5.153000   -0.115000
  C      4.321000   -0.148000   -0.092000
  C      3.025000    0.514000    0.015000
  C      4.387000    3.582000   -1.115000
  C      2.866000    1.916000    0.013000
  N      6.413000    4.296000   -0.095000
  H     -5.977000    5.206000    0.620000
  H      2.274000    4.766000    0.081000
  H     -1.207000    5.452000   -0.518000
  H     -2.671000    7.464000   -0.467000
  H     -5.075000    8.078000    1.118000
  H     -4.823000    8.314000   -0.638000
  H     -6.220000    7.365000   -0.057000
  H     -0.332000    5.282000    0.069000
  H     -4.649000    3.103000    0.617000
  H      0.182000    1.072000    0.005000
  H     -0.183000   -1.080000   -0.021000
  H     -5.864000   -4.962000    1.895000
  H     -4.794000    2.272000    0.139000
  H     -4.800000   -2.160000   -1.994000
  H     -6.841000   -3.582000   -1.893000
  H     -8.428000   -4.536000    0.546000
  H     -7.956000   -5.337000   -0.981000
  H     -7.456000   -6.037000    0.584000
  H     -5.287000   -0.344000    0.100000
  H     -3.780000   -3.601000    1.947000
  H      3.587000   -6.868000   -1.843000
  H     -2.276000   -4.774000   -0.050000
  H      3.714000   -3.724000    1.926000
  H      5.092000   -5.795000    1.871000
  H      6.205000   -7.329000   -0.439000
  H      5.393000   -7.917000    1.042000
  H      4.759000   -8.373000   -0.564000
  H      0.329000   -5.290000   -0.008000
  H      2.146000   -4.842000   -1.940000
  H      5.808000    4.986000   -1.956000
  H      4.788000   -2.281000   -0.185000
  H      4.860000    2.114000    1.912000
  H      6.901000    3.531000    1.772000
  H      7.383000    6.109000    0.356000
  H      8.414000    4.652000    0.435000
  H      7.921000    5.310000   -1.150000
  H      5.283000    0.336000   -0.179000
  H      3.720000    3.632000   -1.967000

 Total Charge           Charge          ....    0
 Multiplicity           Mult            ....    1
 Number of Electrons    NEL             ....  358
 Basis Dimension        Dim             ....  918

ORBITAL ENERGIES
----------------

  NO   OCC          E(Eh)            E(eV)
   0   2.0000     -15.679165      -426.6518
   1   2.0000     -15.633664      -425.4136
   2   2.0000     -15.632067      -425.3702
   3   2.0000     -15.588430      -424.1827
   4   2.0000     -15.525032      -422.4576
   5   2.0000     -15.515731      -422.2045
   6   2.0000     -15.453787      -420.5189
   7   2.0000     -15.439762      -420.1373
   8   2.0000     -11.328881      -308.2745
   9   2.0000     -11.327856      -308.2466
  10   2.0000     -11.327543      -308.2381
  11   2.0000     -11.299127      -307.4649
  12   2.0000     -11.298512      -307.4481
  13   2.0000     -11.292726      -307.2907
  14   2.0000     -11.291358      -307.2535
  15   2.0000     -11.286813      -307.1298
  16   2.0000     -11.286282      -307.1153
  17   2.0000     -11.281455      -306.9840
  18   2.0000     -11.270365      -306.6822
  19   2.0000     -11.262934      -306.4800
  20   2.0000     -11.261942      -306.4530
  21   2.0000     -11.251644      -306.1728
  22   2.0000     -11.250385      -306.1385
  23   2.0000     -11.237419      -305.7857
  24   2.0000     -11.236836      -305.7699
  25   2.0000     -11.230907      -305.6085
  26   2.0000     -11.230126      -305.5873
  27   2.0000     -11.229922      -305.5817
  28   2.0000     -11.229774      -305.5777
  29   2.0000     -11.210835      -305.0623
  30   2.0000     -11.209489      -305.0257
  31   2.0000     -11.194954      -304.6302
  32   2.0000     -11.191261      -304.5297
  33   2.0000     -11.191201      -304.5281
  34   2.0000     -11.188428      -304.4526
  35   2.0000     -11.188316      -304.4496
  36   2.0000     -11.186959      -304.4126
  37   2.0000     -11.179331      -304.2051
  38   2.0000     -11.174967      -304.0863
  39   2.0000     -11.174448      -304.0722
  40   2.0000     -11.171983      -304.0051
  41   2.0000     -11.170837      -303.9739
  42   2.0000     -11.168146      -303.9007
  43   2.0000     -11.161763      -303.7270
  44   2.0000     -11.160331      -303.6880
  45   2.0000     -11.156742      -303.5904
  46   2.0000     -11.156604      -303.5866
  47   2.0000     -11.153253      -303.4955
  48   2.0000     -11.147035      -303.3263
  49   2.0000     -11.135568      -303.0142
  50   2.0000     -11.129592      -302.8516
  51   2.0000     -11.117376      -302.5192
  52   2.0000      -1.359847       -37.0033
  53   2.0000      -1.320948       -35.9448
  54   2.0000      -1.319823       -35.9142
  55   2.0000      -1.281117       -34.8610
  56   2.0000      -1.226048       -33.3625
  57   2.0000      -1.210385       -32.9362
  58   2.0000      -1.173388       -31.9295
  59   2.0000      -1.150663       -31.3111
  60   2.0000      -1.143218       -31.1085
  61   2.0000      -1.110210       -30.2104
  62   2.0000      -1.108937       -30.1757
  63   2.0000      -1.081580       -29.4313
  64   2.0000      -1.077796       -29.3283
  65   2.0000      -1.045136       -28.4396
  66   2.0000      -1.044475       -28.4216
  67   2.0000      -1.040842       -28.3228
  68   2.0000      -1.014895       -27.6167
  69   2.0000      -1.013377       -27.5754
  70   2.0000      -1.009150       -27.4604
  71   2.0000      -0.993420       -27.0323
  72   2.0000      -0.985772       -26.8242
  73   2.0000      -0.981523       -26.7086
  74   2.0000      -0.972955       -26.4755
  75   2.0000      -0.962013       -26.1777
  76   2.0000      -0.954534       -25.9742
  77   2.0000      -0.945822       -25.7371
  78   2.0000      -0.936960       -25.4960
  79   2.0000      -0.917269       -24.9602
  80   2.0000      -0.910071       -24.7643
  81   2.0000      -0.896513       -24.3954
  82   2.0000      -0.876371       -23.8473
  83   2.0000      -0.872027       -23.7291
  84   2.0000      -0.870561       -23.6892
  85   2.0000      -0.859421       -23.3860
  86   2.0000      -0.842876       -22.9358
  87   2.0000      -0.836038       -22.7497
  88   2.0000      -0.827119       -22.5070
  89   2.0000      -0.796790       -21.6818
  90   2.0000      -0.789514       -21.4838
  91   2.0000      -0.760834       -20.7033
  92   2.0000      -0.752354       -20.4726
  93   2.0000      -0.733546       -19.9608
  94   2.0000      -0.726696       -19.7744
  95   2.0000      -0.723460       -19.6864
  96   2.0000      -0.718654       -19.5556
  97   2.0000      -0.716326       -19.4922
  98   2.0000      -0.712123       -19.3778
  99   2.0000      -0.698109       -18.9965
 100   2.0000      -0.697179       -18.9712
 101   2.0000      -0.691794       -18.8247
 102   2.0000      -0.684981       -18.6393
 103   2.0000      -0.683905       -18.6100
 104   2.0000      -0.678683       -18.4679
 105   2.0000      -0.674357       -18.3502
 106   2.0000      -0.672260       -18.2931
 107   2.0000      -0.660526       -17.9738
 108   2.0000      -0.658000       -17.9051
 109   2.0000      -0.652787       -17.7632
 110   2.0000      -0.651992       -17.7416
 111   2.0000      -0.645723       -17.5710
 112   2.0000      -0.645192       -17.5566
 113   2.0000      -0.637664       -17.3517
 114   2.0000      -0.636721       -17.3260
 115   2.0000      -0.628200       -17.0942
 116   2.0000      -0.622539       -16.9402
 117   2.0000      -0.621350       -16.9078
 118   2.0000      -0.613049       -16.6819
 119   2.0000      -0.612101       -16.6561
 120   2.0000      -0.611701       -16.6452
 121   2.0000      -0.610901       -16.6234
 122   2.0000      -0.601181       -16.3590
 123   2.0000      -0.587913       -15.9979
 124   2.0000      -0.581465       -15.8225
 125   2.0000      -0.580865       -15.8061
 126   2.0000      -0.580054       -15.7841
 127   2.0000      -0.571119       -15.5409
 128   2.0000      -0.568188       -15.4612
 129   2.0000      -0.559756       -15.2317
 130   2.0000      -0.553834       -15.0706
 131   2.0000      -0.547791       -14.9061
 132   2.0000      -0.542581       -14.7644
 133   2.0000      -0.541255       -14.7283
 134   2.0000      -0.538547       -14.6546
 135   2.0000      -0.536117       -14.5885
 136   2.0000      -0.531152       -14.4534
 137   2.0000      -0.519593       -14.1388
 138   2.0000      -0.516821       -14.0634
 139   2.0000      -0.514828       -14.0092
 140   2.0000      -0.512154       -13.9364
 141   2.0000      -0.510334       -13.8869
 142   2.0000      -0.508649       -13.8410
 143   2.0000      -0.504482       -13.7277
 144   2.0000      -0.502573       -13.6757
 145   2.0000      -0.496096       -13.4995
 146   2.0000      -0.489329       -13.3153
 147   2.0000      -0.481887       -13.1128
 148   2.0000      -0.477797       -13.0015
 149   2.0000      -0.467506       -12.7215
 150   2.0000      -0.466404       -12.6915
 151   2.0000      -0.456832       -12.4310
 152   2.0000      -0.451517       -12.2864
 153   2.0000      -0.444788       -12.1033
 154   2.0000      -0.438962       -11.9448
 155   2.0000      -0.427579       -11.6350
 156   2.0000      -0.410310       -11.1651
 157   2.0000      -0.404085       -10.9957
 158   2.0000      -0.391075       -10.6417
 159   2.0000      -0.387264       -10.5380
 160   2.0000      -0.381847       -10.3906
 161   2.0000      -0.378429       -10.2976
 162   2.0000      -0.369576       -10.0567
 163   2.0000      -0.356503        -9.7009
 164   2.0000      -0.355962        -9.6862
 165   2.0000      -0.341831        -9.3017
 166   2.0000      -0.337682        -9.1888
 167   2.0000      -0.324712        -8.8359
 168   2.0000      -0.321660        -8.7528
 169   2.0000      -0.305194        -8.3048
 170   2.0000      -0.299460        -8.1487
 171   2.0000      -0.285517        -7.7693
 172   2.0000      -0.279207        -7.5976
 173   2.0000      -0.263664        -7.1747
 174   2.0000      -0.241569        -6.5734
 175   2.0000      -0.189988        -5.1698
 176   2.0000      -0.180902        -4.9226
 177   2.0000      -0.079021        -2.1503
 178   2.0000      -0.059498        -1.6190
 179   0.0000       0.028312         0.7704
 180   0.0000       0.065398         1.7796
 181   0.0000       0.090353         2.4586
 182   0.0000       0.106650         2.9021
 183   0.0000       0.114518         3.1162

MULLIKEN ATOMIC CHARGES
-----------------------
   0 C :    0.213035
   1 N :   -0.455922
   2 C :   -0.072711
   3 N :   -0.340544
   4 C :   -0.059971
   5 N :   -0.567458
   6 C :   -0.117765
   7 N :   -0.340814
   8 C :    0.215119
   9 N :   -0.562243
  10 C :    0.118609
  11 N :   -0.438503
  12 C :   -0.062684
  13 N :   -0.429503
  14 C :    0.222821
  15 N :   -0.440894
  16 C :    0.230605
  17 C :   -0.109672
  18 C :   -0.183506
  19 C :    0.216928
  20 C :    0.213477
  21 C :   -0.068550
  22 C :   -0.091015
  23 C :   -0.039518
  24 C :    0.193545
  25 C :    0.114642
  26 C :   -0.089088
  27 C :    0.215371
  28 C :   -0.061750
  29 C :   -0.181402
  30 C :    0.245982
  31 C :    0.229948
  32 C :   -0.061760
  33 C :   -0.060415
  34 C :   -0.051276
  35 C :    0.228351
  36 C :    0.108291
  37 C :   -0.064300
  38 C :    0.231046
  39 C :   -0.057600
  40 C :   -0.181485
  41 C :    0.226051
  42 C :    0.197514
  43 C :   -0.072354
  44 C :   -0.089229
  45 C :   -0.061411
  46 C :    0.211812
  47 C :    0.115305
  48 C :   -0.066827
  49 C :    0.238876
  50 C :   -0.046374
  51 C :   -0.193012
  52 H :    0.036117
  53 H :   -0.017720
  54 H :    0.044361
  55 H :    0.034825
  56 H :    0.049487
  57 H :    0.046927
  58 H :    0.047578
  59 H :   -0.007112
  60 H :    0.045763
  61 H :    0.171222
  62 H :    0.175464
  63 H :    0.055110
  64 H :   -0.023771
  65 H :    0.047185
  66 H :    0.055539
  67 H :    0.062296
  68 H :    0.057160
  69 H :    0.056255
  70 H :   -0.030548
  71 H :    0.044589
  72 H :    0.071254
  73 H :   -0.007983
  74 H :    0.060345
  75 H :    0.070702
  76 H :    0.074886
  77 H :    0.067964
  78 H :    0.067277
  79 H :   -0.016663
  80 H :    0.061287
  81 H :    0.054458
  82 H :   -0.024837
  83 H :    0.042114
  84 H :    0.054380
  85 H :    0.061053
  86 H :    0.055658
  87 H :    0.057296
  88 H :   -0.014438
  89 H :    0.046748
Sum of atomic charges:   -0.0000000

LOEWDIN ATOMIC CHARGES
----------------------
   0 C :   -0.020680
   1 N :    0.120036
   2 C :   -0.101315
   3 N :    0.182852
   4 C :   -0.011752
   5 N :   -0.134106
   6 C :   -0.037086
   7 N :    0.175168
   8 C :   -0.019939
   9 N :   -0.140607
  10 C :    0.022876
  11 N :    0.141722
  12 C :   -0.111403
  13 N :    0.166100
  14 C :   -0.019246
  15 N :    0.139030
  16 C :   -0.060299
  17 C :   -0.027849
  18 C :   -0.109347
  19 C :   -0.075853
  20 C :    0.004534
  21 C :   -0.111166
  22 C :    0.036813
  23 C :   -0.014497
  24 C :   -0.012804
  25 C :    0.029759
  26 C :   -0.108544
  27 C :   -0.116712
  28 C :   -0.027761
  29 C :   -0.099897
  30 C :   -0.029637
  31 C :    0.024088
  32 C :   -0.094509
  33 C :    0.081691
  34 C :   -0.015236
  35 C :    0.023016
  36 C :    0.035209
  37 C :   -0.094061
  38 C :   -0.052392
  39 C :   -0.017561
  40 C :   -0.108547
  41 C :   -0.091085
  42 C :   -0.010215
  43 C :   -0.099168
  44 C :    0.034034
  45 C :   -0.028069
  46 C :    0.002211
  47 C :    0.029564
  48 C :   -0.094750
  49 C :   -0.069396
  50 C :   -0.018737
  51 C :   -0.108722
  52 H :    0.022478
  53 H :    0.002597
  54 H :    0.018888
  55 H :    0.022232
  56 H :    0.021860
  57 H :    0.026033
  58 H :    0.027125
  59 H :    0.008570
  60 H :    0.009774
  61 H :    0.060163
  62 H :    0.061861
  63 H :    0.030652
  64 H :   -0.000373
  65 H :    0.045931
  66 H :    0.029193
  67 H :    0.028157
  68 H :    0.031593
  69 H :    0.030241
  70 H :   -0.004940
  71 H :    0.043377
  72 H :    0.037680
  73 H :    0.007143
  74 H :    0.050651
  75 H :    0.037373
  76 H :    0.034786
  77 H :    0.036170
  78 H :    0.035860
  79 H :    0.002932
  80 H :    0.050745
  81 H :    0.029120
  82 H :   -0.002724
  83 H :    0.042592
  84 H :    0.029977
  85 H :    0.027473
  86 H :    0.030236
  87 H :    0.031444
  88 H :    0.002411
  89 H :    0.044966

  Mayer bond orders larger than 0.100000
B(  0-C ,  1-N ) :   1.0919 B(  0-C , 17-C ) :   1.7178 B(  0-C , 52-H ) :   0.9631
B(  1-N ,  8-C ) :   1.0956 B(  1-N , 10-C ) :   0.9776 B(  2-C , 12-C ) :   1.4926
B(  2-C , 16-C ) :   1.3688 B(  2-C , 53-H ) :   0.9730 B(  3-N , 14-C ) :   1.2210
B(  3-N , 16-C ) :   1.1825 B(  3-N , 61-H ) :   0.8988 B(  4-C ,  6-C ) :   1.2160
B(  4-C , 17-C ) :   1.2142 B(  4-C , 18-C ) :   1.4668 B(  5-N , 19-C ) :   1.4577
B(  5-N , 27-C ) :   1.3724 B(  6-C ,  8-C ) :   1.7121 B(  6-C , 54-H ) :   0.9148
B(  7-N , 30-C ) :   1.1957 B(  7-N , 38-C ) :   1.1895 B(  7-N , 62-H ) :   0.8968
B(  8-C , 55-H ) :   0.9643 B(  9-N , 41-C ) :   1.3944 B(  9-N , 49-C ) :   1.4251
B( 10-C , 56-H ) :   0.9775 B( 10-C , 57-H ) :   0.9823 B( 10-C , 58-H ) :   0.9842
B( 11-N , 20-C ) :   1.1309 B( 11-N , 24-C ) :   1.1066 B( 11-N , 25-C ) :   0.9603
B( 12-C , 14-C ) :   1.3574 B( 12-C , 59-H ) :   0.9471 B( 13-N , 31-C ) :   1.1610
B( 13-N , 35-C ) :   1.1600 B( 13-N , 36-C ) :   0.9415 B( 14-C , 18-C ) :   1.1211
B( 15-N , 42-C ) :   1.1081 B( 15-N , 46-C ) :   1.1246 B( 15-N , 47-C ) :   0.9611
B( 16-C , 51-C ) :   1.1681 B( 17-C , 60-H ) :   0.8990 B( 18-C , 19-C ) :   1.1207
B( 19-C , 21-C ) :   1.2521 B( 20-C , 28-C ) :   1.6290 B( 20-C , 63-H ) :   0.9703
B( 21-C , 26-C ) :   1.5847 B( 21-C , 64-H ) :   0.9291 B( 22-C , 23-C ) :   1.2890
B( 22-C , 28-C ) :   1.2635 B( 22-C , 29-C ) :   1.2258 B( 23-C , 24-C ) :   1.6206
B( 23-C , 65-H ) :   0.9703 B( 24-C , 66-H ) :   0.9695 B( 25-C , 67-H ) :   0.9761
B( 25-C , 68-H ) :   0.9828 B( 25-C , 69-H ) :   0.9823 B( 26-C , 27-C ) :   1.2582
B( 26-C , 70-H ) :   0.9682 B( 27-C , 29-C ) :   1.2067 B( 28-C , 71-H ) :   0.9720
B( 29-C , 30-C ) :   1.2463 B( 30-C , 32-C ) :   1.2793 B( 31-C , 39-C ) :   1.5881
B( 31-C , 72-H ) :   0.9681 B( 32-C , 37-C ) :   1.5794 B( 32-C , 73-H ) :   0.9786
B( 33-C , 34-C ) :   1.3067 B( 33-C , 39-C ) :   1.3039 B( 33-C , 40-C ) :   1.1768
B( 34-C , 35-C ) :   1.5857 B( 34-C , 74-H ) :   0.9696 B( 35-C , 75-H ) :   0.9681
B( 36-C , 76-H ) :   0.9768 B( 36-C , 77-H ) :   0.9816 B( 36-C , 78-H ) :   0.9823
B( 37-C , 38-C ) :   1.2854 B( 37-C , 79-H ) :   0.9764 B( 38-C , 40-C ) :   1.2336
B( 39-C , 80-H ) :   0.9705 B( 40-C , 41-C ) :   1.2505 B( 41-C , 43-C ) :   1.1843
B( 42-C , 50-C ) :   1.6327 B( 42-C , 81-H ) :   0.9696 B( 43-C , 48-C ) :   1.6686
B( 43-C , 82-H ) :   0.9721 B( 44-C , 45-C ) :   1.2639 B( 44-C , 50-C ) :   1.2728
B( 44-C , 51-C ) :   1.2602 B( 45-C , 46-C ) :   1.6342 B( 45-C , 83-H ) :   0.9718
B( 46-C , 84-H ) :   0.9700 B( 47-C , 85-H ) :   0.9762 B( 47-C , 86-H ) :   0.9829
B( 47-C , 87-H ) :   0.9824 B( 48-C , 49-C ) :   1.1878 B( 48-C , 88-H ) :   0.9748
B( 49-C , 51-C ) :   1.2445 B( 50-C , 89-H ) :   0.9709

MP2 TOTAL ENERGY:    -2130.808981996 Eh
FINAL SINGLE POINT ENERGY     -2130.808981996004

DIPOLE MOMENT
-------------
                                X             Y             Z
Electronic contribution:      2.73080      -4.30550      -0.18331
Nuclear contribution   :      0.07394       0.23664       0.18021
                        -----------------------------------------
Total Dipole Moment    :      2.80474      -4.06886      -0.00311
                        -----------------------------------------
Magnitude (a.u.)       :      4.94188
Magnitude (Debye)      :     12.56126

Rotational constants in cm-1:     0.001501     0.001479     0.000760
Rotational constants in MHz :    45.003901    44.347507    22.786354

                             ****ORCA TERMINATED NORMALLY****
TOTAL RUN TIME: 0 days 1 hours 22 minutes 50 seconds 726 msec
