                         Program Version 5.0.4 -  RELEASE  -
|  1> ! PAL2
|  2> ! mp2 cc-pvdz TightSCF  NoKeepInts
|  3>
|  4> %scf
|  5>   MaxCore 2000
|  6> end
|  7> %mp2
|  8>   MaxCore 2000
|  9> end
| 10> * xyz 0 1
| 11>    C       -3.78600         5.95800         1.22300
| 12>    C        1.47400         4.04100         0.05700
| 13>    C       -2.80200         4.09300         0.04900
| 14>    C       -3.43800         4.55500        -1.11300
| 15>    C       -4.21800         5.69400        -1.07100
| 16>    C       -5.19600         7.61400         0.08900
| 17>    C        0.13200         4.30700         0.06100
| 18>    C       -0.56900         3.05600         0.04700
| 19>    C        1.64900         2.61800         0.02300
| 20>    C       -2.99200         4.82700         1.23000
| 21>    N       -4.38600         6.37600         0.08600
| 22>    N        0.38800         2.06700         0.02500
| 23>    N       -2.01000         0.39500        -0.07500
| 24>    N       -0.38800        -2.07400        -0.02700
| 25>    N        2.01000        -0.40100         0.06500
| 26>    C       -1.96000         2.86100         0.02400
| 27>    C       -2.62300         1.61500        -0.01800
| 28>    C       -5.57300        -4.32900         1.06600
| 29>    C       -4.07300         1.47100         0.05600
| 30>    C       -4.10600        -2.75600        -0.02600
| 31>    C       -4.99500        -2.75700        -1.11100
| 32>    C       -6.13200        -3.54200        -1.07600
| 33>    C       -7.65100        -5.11300         0.04000
| 34>    C       -4.32400         0.14100         0.03700
| 35>    C       -3.02500        -0.52000        -0.04800
| 36>    C       -4.42200        -3.56600         1.07500
| 37>    N       -6.40700        -4.31300         0.00100
| 38>    C       -2.86700        -1.92200        -0.04000
| 39>    C       -1.65000        -2.62400        -0.02700
| 40>    C        3.56800        -6.14200        -1.04000
| 41>    C       -1.47600        -4.04900        -0.03400
| 42>    C        2.80300        -4.09900        -0.00800
| 43>    C        3.65700        -4.38400         1.06900
| 44>    C        4.42700        -5.53000         1.05900
| 45>    C        5.24500        -7.58800         0.01400
| 46>    C       -0.13400        -4.31500        -0.02200
| 47>    C        0.56800        -3.06400        -0.02700
| 48>    C        2.77500        -5.01200        -1.07400
| 49>    N        4.37600        -6.39100         0.01700
| 50>    C        1.95900        -2.86900        -0.00900
| 51>    C        2.62100        -1.62200         0.00900
| 52>    C        5.54300         4.33900        -1.13000
| 53>    C        4.07000        -1.47900        -0.09400
| 54>    C        4.10400         2.75100        -0.02100
| 55>    C        5.02700         2.72900         1.03600
| 56>    C        6.16600         3.50900         0.97800
| 57>    C        7.61900         5.15300        -0.11500
| 58>    C        4.32100        -0.14800        -0.09200
| 59>    C        3.02500         0.51400         0.01500
| 60>    C        4.38700         3.58200        -1.11500
| 61>    C        2.86600         1.91600         0.01300
| 62>    N        6.41300         4.29600        -0.09500
| 63>    H       -3.97000         6.54800         2.11300
| 64>    H        2.27400         4.76600         0.08100
| 65>    H       -3.32200         4.03700        -2.05800
| 66>    H       -4.72000         6.09300        -1.94300
| 67>    H       -4.56100         8.45600        -0.19300
| 68>    H       -6.01100         7.50200        -0.62600
| 69>    H       -5.59700         7.76700         1.09100
| 70>    H       -0.33200         5.28200         0.06900
| 71>    H       -2.53900         4.51400         2.16300
| 72>    H        0.18200         1.07200         0.00500
| 73>    H       -0.18300        -1.08000        -0.02100
| 74>    H       -5.86400        -4.96200         1.89500
| 75>    H       -4.79400         2.27200         0.13900
| 76>    H       -4.80000        -2.16000        -1.99400
| 77>    H       -6.84100        -3.58200        -1.89300
| 78>    H       -8.42800        -4.53600         0.54600
| 79>    H       -7.95600        -5.33700        -0.98100
| 80>    H       -7.45600        -6.03700         0.58400
| 81>    H       -5.28700        -0.34400         0.10000
| 82>    H       -3.78000        -3.60100         1.94700
| 83>    H        3.58700        -6.86800        -1.84300
| 84>    H       -2.27600        -4.77400        -0.05000
| 85>    H        3.71400        -3.72400         1.92600
| 86>    H        5.09200        -5.79500         1.87100
| 87>    H        6.20500        -7.32900        -0.43900
| 88>    H        5.39300        -7.91700         1.04200
| 89>    H        4.75900        -8.37300        -0.56400
| 90>    H        0.32900        -5.29000        -0.00800
| 91>    H        2.14600        -4.84200        -1.94000
| 92>    H        5.80800         4.98600        -1.95600
| 93>    H        4.78800        -2.28100        -0.18500
| 94>    H        4.86000         2.11400         1.91200
| 95>    H        6.90100         3.53100         1.77200
| 96>    H        7.38300         6.10900         0.35600
| 97>    H        8.41400         4.65200         0.43500
| 98>    H        7.92100         5.31000        -1.15000
| 99>    H        5.28300         0.33600        -0.17900
|100>    H        3.72000         3.63200        -1.96700
|101> *
|102>
|103>                          ****END OF INPUT****

CARTESIAN COORDINATES (ANGSTROEM)
---------------------------------
  C     -3.786000    5.958000    1.223000
  C      1.474000    4.041000    0.057000
  C     -2.802000    4.093000    0.049000
  C     -3.438000    4.555000   -1.113000
  C     -4.218000    5.694000   -1.071000
  C     -5.196000    7.614000    0.089000
  C      0.132000    4.307000    0.061000
  C     -0.569000    3.056000    0.047000
  C      1.649000    2.618000    0.023000
  C     -2.992000    4.827000    1.230000
  N     -4.386000    6.376000    0.086000
  N      0.388000    2.067000    0.025000
  N     -2.010000    0.395000   -0.075000
  N     -0.388000   -2.074000   -0.027000
  N      2.010000   -0.401000    0.065000
  C     -1.960000    2.861000    0.024000
  C     -2.623000    1.615000   -0.018000
  C     -5.573000   -4.329000    1.066000
  C     -4.073000    1.471000    0.056000
  C     -4.106000   -2.756000   -0.026000
  C     -4.995000   -2.757000   -1.111000
  C     -6.132000   -3.542000   -1.076000
  C     -7.651000   -5.113000    0.040000
  C     -4.324000    0.141000    0.037000
  C     -3.025000   -0.520000   -0.048000
  C     -4.422000   -3.566000    1.075000
  N     -6.407000   -4.313000    0.001000
  C     -2.867000   -1.922000   -0.040000
  C     -1.650000   -2.624000   -0.027000
  C      3.568000   -6.142000   -1.040000
  C     -1.476000   -4.049000   -0.034000
  C      2.803000   -4.099000   -0.008000
  C      3.657000   -4.384000    1.069000
  C      4.427000   -5.530000    1.059000
  C      5.245000   -7.588000    0.014000
  C     -0.134000   -4.315000   -0.022000
  C      0.568000   -3.064000   -0.027000
  C      2.775000   -5.012000   -1.074000
  N      4.376000   -6.391000    0.017000
  C      1.959000   -2.869000   -0.009000
  C      2.621000   -1.622000    0.009000
  C      5.543000    4.339000   -1.130000
  C      4.070000   -1.479000   -0.094000
  C      4.104000    2.751000   -0.021000
  C      5.027000    2.729000    1.036000
  C      6.166000    3.509000    0.978000
  C      7.619000    5.153000   -0.115000
  C      4.321000   -0.148000   -0.092000
  C      3.025000    0.514000    0.015000
  C      4.387000    3.582000   -1.115000
  C      2.866000    1.916000    0.013000
  N      6.413000    4.296000   -0.095000
  H     -3.970000    6.548000    2.113000
  H      2.274000    4.766000    0.081000
  H     -3.322000    4.037000   -2.058000
  H     -4.720000    6.093000   -1.943000
  H     -4.561000    8.456000   -0.193000
  H     -6.011000    7.502000   -0.626000
  H     -5.597000    7.767000    1.091000
  H     -0.332000    5.282000    0.069000
  H     -2.539000    4.514000    2.163000
  H      0.182000    1.072000    0.005000
  H     -0.183000   -1.080000   -0.021000
  H     -5.864000   -4.962000    1.895000
  H     -4.794000    2.272000    0.139000
  H     -4.800000   -2.160000   -1.994000
  H     -6.841000   -3.582000   -1.893000
  H     -8.428000   -4.536000    0.546000
  H     -7.956000   -5.337000   -0.981000
  H     -7.456000   -6.037000    0.584000
  H     -5.287000   -0.344000    0.100000
  H     -3.780000   -3.601000    1.947000
  H      3.587000   -6.868000   -1.843000
  H     -2.276000   -4.774000   -0.050000
  H      3.714000   -3.724000    1.926000
  H      5.092000   -5.795000    1.871000
  H      6.205000   -7.329000   -0.439000
  H      5.393000   -7.917000    1.042000
  H      4.759000   -8.373000   -0.564000
  H      0.329000   -5.290000   -0.008000
  H      2.146000   -4.842000   -1.940000
  H      5.808000    4.986000   -1.956000
  H      4.788000   -2.281000   -0.185000
  H      4.860000    2.114000    1.912000
  H      6.901000    3.531000    1.772000
  H      7.383000    6.109000    0.356000
  H      8.414000    4.652000    0.435000
  H      7.921000    5.310000   -1.150000
  H      5.283000    0.336000   -0.179000
  H      3.720000    3.632000   -1.967000

 Total Charge           Charge          ....    0
 Multiplicity           Mult            ....    1
 Number of Electrons    NEL             ....  358
 Basis Dimension        Dim             ....  918

ORBITAL ENERGIES
----------------

  NO   OCC          E(Eh)            E(eV)
   0   2.0000     -15.683637      -426.7735
   1   2.0000     -15.635109      -425.4529
   2   2.0000     -15.623682      -425.1420
   3   2.0000     -15.596674      -424.4071
   4   2.0000     -15.518096      -422.2689
   5   2.0000     -15.509143      -422.0252
   6   2.0000     -15.448458      -420.3739
   7   2.0000     -15.432312      -419.9346
   8   2.0000     -11.329768      -308.2987
   9   2.0000     -11.329038      -308.2788
  10   2.0000     -11.329016      -308.2782
  11   2.0000     -11.300197      -307.4940
  12   2.0000     -11.294281      -307.3330
  13   2.0000     -11.292683      -307.2895
  14   2.0000     -11.287680      -307.1534
  15   2.0000     -11.284024      -307.0539
  16   2.0000     -11.281338      -306.9808
  17   2.0000     -11.277673      -306.8811
  18   2.0000     -11.275938      -306.8339
  19   2.0000     -11.263997      -306.5089
  20   2.0000     -11.263829      -306.5044
  21   2.0000     -11.260167      -306.4047
  22   2.0000     -11.256722      -306.3110
  23   2.0000     -11.238560      -305.8168
  24   2.0000     -11.231275      -305.6185
  25   2.0000     -11.230446      -305.5960
  26   2.0000     -11.227824      -305.5246
  27   2.0000     -11.222428      -305.3778
  28   2.0000     -11.222240      -305.3727
  29   2.0000     -11.203860      -304.8725
  30   2.0000     -11.203600      -304.8655
  31   2.0000     -11.203504      -304.8628
  32   2.0000     -11.202750      -304.8423
  33   2.0000     -11.201858      -304.8181
  34   2.0000     -11.186837      -304.4093
  35   2.0000     -11.186784      -304.4079
  36   2.0000     -11.185592      -304.3754
  37   2.0000     -11.185151      -304.3634
  38   2.0000     -11.183720      -304.3245
  39   2.0000     -11.168041      -303.8978
  40   2.0000     -11.167633      -303.8867
  41   2.0000     -11.162351      -303.7430
  42   2.0000     -11.159946      -303.6776
  43   2.0000     -11.159415      -303.6631
  44   2.0000     -11.154368      -303.5258
  45   2.0000     -11.153250      -303.4954
  46   2.0000     -11.152664      -303.4794
  47   2.0000     -11.148668      -303.3707
  48   2.0000     -11.147398      -303.3361
  49   2.0000     -11.140472      -303.1477
  50   2.0000     -11.124694      -302.7183
  51   2.0000     -11.121208      -302.6234
  52   2.0000      -1.362382       -37.0723
  53   2.0000      -1.322249       -35.9802
  54   2.0000      -1.311977       -35.7007
  55   2.0000      -1.289173       -35.0802
  56   2.0000      -1.219472       -33.1835
  57   2.0000      -1.205853       -32.8129
  58   2.0000      -1.169974       -31.8366
  59   2.0000      -1.144170       -31.1345
  60   2.0000      -1.142890       -31.0996
  61   2.0000      -1.110476       -30.2176
  62   2.0000      -1.101248       -29.9665
  63   2.0000      -1.082831       -29.4653
  64   2.0000      -1.081177       -29.4203
  65   2.0000      -1.046255       -28.4701
  66   2.0000      -1.039156       -28.2769
  67   2.0000      -1.036609       -28.2076
  68   2.0000      -1.015446       -27.6317
  69   2.0000      -1.013651       -27.5829
  70   2.0000      -1.005447       -27.3596
  71   2.0000      -0.988543       -26.8996
  72   2.0000      -0.984959       -26.8021
  73   2.0000      -0.977977       -26.6121
  74   2.0000      -0.968587       -26.3566
  75   2.0000      -0.959560       -26.1110
  76   2.0000      -0.951330       -25.8870
  77   2.0000      -0.944779       -25.7087
  78   2.0000      -0.926207       -25.2034
  79   2.0000      -0.918295       -24.9881
  80   2.0000      -0.909626       -24.7522
  81   2.0000      -0.888751       -24.1841
  82   2.0000      -0.874995       -23.8098
  83   2.0000      -0.870615       -23.6906
  84   2.0000      -0.863762       -23.5042
  85   2.0000      -0.851482       -23.1700
  86   2.0000      -0.842262       -22.9191
  87   2.0000      -0.831303       -22.6209
  88   2.0000      -0.822237       -22.3742
  89   2.0000      -0.795951       -21.6589
  90   2.0000      -0.791740       -21.5443
  91   2.0000      -0.752996       -20.4901
  92   2.0000      -0.733757       -19.9665
  93   2.0000      -0.726981       -19.7821
  94   2.0000      -0.721543       -19.6342
  95   2.0000      -0.716582       -19.4992
  96   2.0000      -0.714638       -19.4463
  97   2.0000      -0.708035       -19.2666
  98   2.0000      -0.699214       -19.0266
  99   2.0000      -0.695321       -18.9206
 100   2.0000      -0.693831       -18.8801
 101   2.0000      -0.686704       -18.6862
 102   2.0000      -0.681813       -18.5531
 103   2.0000      -0.677031       -18.4230
 104   2.0000      -0.672060       -18.2877
 105   2.0000      -0.669062       -18.2061
 106   2.0000      -0.666245       -18.1294
 107   2.0000      -0.655625       -17.8405
 108   2.0000      -0.653626       -17.7861
 109   2.0000      -0.650474       -17.7003
 110   2.0000      -0.646782       -17.5998
 111   2.0000      -0.646443       -17.5906
 112   2.0000      -0.645775       -17.5724
 113   2.0000      -0.639028       -17.3888
 114   2.0000      -0.634022       -17.2526
 115   2.0000      -0.627359       -17.0713
 116   2.0000      -0.622627       -16.9425
 117   2.0000      -0.615895       -16.7594
 118   2.0000      -0.613099       -16.6833
 119   2.0000      -0.612859       -16.6767
 120   2.0000      -0.608981       -16.5712
 121   2.0000      -0.604450       -16.4479
 122   2.0000      -0.594187       -16.1686
 123   2.0000      -0.588306       -16.0086
 124   2.0000      -0.584727       -15.9112
 125   2.0000      -0.582016       -15.8375
 126   2.0000      -0.575783       -15.6679
 127   2.0000      -0.573615       -15.6089
 128   2.0000      -0.571424       -15.5492
 129   2.0000      -0.558925       -15.2091
 130   2.0000      -0.555492       -15.1157
 131   2.0000      -0.547843       -14.9076
 132   2.0000      -0.545255       -14.8371
 133   2.0000      -0.538570       -14.6552
 134   2.0000      -0.534725       -14.5506
 135   2.0000      -0.531457       -14.4617
 136   2.0000      -0.520497       -14.1634
 137   2.0000      -0.518213       -14.1013
 138   2.0000      -0.514001       -13.9867
 139   2.0000      -0.512563       -13.9475
 140   2.0000      -0.509539       -13.8653
 141   2.0000      -0.508292       -13.8313
 142   2.0000      -0.502104       -13.6629
 143   2.0000      -0.500219       -13.6116
 144   2.0000      -0.495673       -13.4879
 145   2.0000      -0.494090       -13.4449
 146   2.0000      -0.493451       -13.4275
 147   2.0000      -0.483120       -13.1464
 148   2.0000      -0.480948       -13.0873
 149   2.0000      -0.463987       -12.6257
 150   2.0000      -0.462937       -12.5972
 151   2.0000      -0.456590       -12.4244
 152   2.0000      -0.449823       -12.2403
 153   2.0000      -0.442014       -12.0278
 154   2.0000      -0.438451       -11.9309
 155   2.0000      -0.436929       -11.8894
 156   2.0000      -0.426185       -11.5971
 157   2.0000      -0.419261       -11.4087
 158   2.0000      -0.402293       -10.9470
 159   2.0000      -0.387998       -10.5580
 160   2.0000      -0.383779       -10.4431
 161   2.0000      -0.372235       -10.1290
 162   2.0000      -0.359467        -9.7816
 163   2.0000      -0.357203        -9.7200
 164   2.0000      -0.348931        -9.4949
 165   2.0000      -0.339208        -9.2303
 166   2.0000      -0.337424        -9.1818
 167   2.0000      -0.330865        -9.0033
 168   2.0000      -0.317909        -8.6507
 169   2.0000      -0.299306        -8.1445
 170   2.0000      -0.298402        -8.1199
 171   2.0000      -0.284915        -7.7529
 172   2.0000      -0.281664        -7.6645
 173   2.0000      -0.262007        -7.1296
 174   2.0000      -0.236118        -6.4251
 175   2.0000      -0.184872        -5.0306
 176   2.0000      -0.174677        -4.7532
 177   2.0000      -0.062262        -1.6942
 178   2.0000      -0.051684        -1.4064
 179   0.0000       0.033964         0.9242
 180   0.0000       0.062263         1.6943
 181   0.0000       0.090760         2.4697
 182   0.0000       0.096918         2.6373
 183   0.0000       0.107172         2.9163

MULLIKEN ATOMIC CHARGES
-----------------------
   0 C :    0.222875
   1 N :   -0.423160
   2 C :   -0.067442
   3 N :   -0.342173
   4 C :   -0.081553
   5 N :   -0.564484
   6 C :   -0.032904
   7 N :   -0.337228
   8 C :    0.222089
   9 N :   -0.565033
  10 C :    0.107631
  11 N :   -0.438536
  12 C :   -0.059698
  13 N :   -0.447855
  14 C :    0.223294
  15 N :   -0.441018
  16 C :    0.250259
  17 C :   -0.034045
  18 C :   -0.178667
  19 C :    0.226233
  20 C :    0.195263
  21 C :   -0.066886
  22 C :   -0.087750
  23 C :   -0.061823
  24 C :    0.215576
  25 C :    0.114254
  26 C :   -0.069703
  27 C :    0.240209
  28 C :   -0.042954
  29 C :   -0.193610
  30 C :    0.225218
  31 C :    0.194447
  32 C :   -0.065143
  33 C :   -0.096908
  34 C :   -0.050098
  35 C :    0.185371
  36 C :    0.119078
  37 C :   -0.069184
  38 C :    0.242553
  39 C :   -0.064447
  40 C :   -0.199542
  41 C :    0.216934
  42 C :    0.210061
  43 C :   -0.076188
  44 C :   -0.089962
  45 C :   -0.042554
  46 C :    0.190911
  47 C :    0.116209
  48 C :   -0.080772
  49 C :    0.213004
  50 C :   -0.062525
  51 C :   -0.189663
  52 H :    0.073166
  53 H :   -0.009819
  54 H :    0.058417
  55 H :    0.071361
  56 H :    0.075831
  57 H :    0.069469
  58 H :    0.068465
  59 H :   -0.024922
  60 H :    0.059238
  61 H :    0.175658
  62 H :    0.169463
  63 H :    0.054735
  64 H :   -0.030611
  65 H :    0.043002
  66 H :    0.056448
  67 H :    0.060370
  68 H :    0.057046
  69 H :    0.059454
  70 H :   -0.017555
  71 H :    0.047915
  72 H :    0.042818
  73 H :   -0.018240
  74 H :    0.034300
  75 H :    0.041582
  76 H :    0.050615
  77 H :    0.049444
  78 H :    0.048647
  79 H :   -0.012094
  80 H :    0.034161
  81 H :    0.051821
  82 H :   -0.023305
  83 H :    0.043247
  84 H :    0.050895
  85 H :    0.056082
  86 H :    0.056628
  87 H :    0.055445
  88 H :   -0.028621
  89 H :    0.041483
Sum of atomic charges:   -0.0000000

LOEWDIN ATOMIC CHARGES
----------------------
   0 C :    0.023475
   1 N :    0.173051
   2 C :   -0.100231
   3 N :    0.172985
   4 C :    0.086642
   5 N :   -0.144656
   6 C :   -0.012601
   7 N :    0.177466
   8 C :    0.023136
   9 N :   -0.138425
  10 C :    0.036173
  11 N :    0.142264
  12 C :   -0.097645
  13 N :    0.121430
  14 C :   -0.057620
  15 N :    0.136658
  16 C :   -0.025924
  17 C :   -0.013158
  18 C :   -0.115935
  19 C :   -0.089930
  20 C :   -0.011322
  21 C :   -0.099962
  22 C :    0.039272
  23 C :   -0.029658
  24 C :    0.006763
  25 C :    0.029909
  26 C :   -0.097316
  27 C :   -0.066859
  28 C :   -0.016052
  29 C :   -0.114995
  30 C :   -0.059888
  31 C :   -0.018577
  32 C :   -0.100451
  33 C :    0.006764
  34 C :   -0.024620
  35 C :   -0.026599
  36 C :    0.024960
  37 C :   -0.107108
  38 C :   -0.032314
  39 C :   -0.031981
  40 C :   -0.111885
  41 C :   -0.094471
  42 C :   -0.000337
  43 C :   -0.111477
  44 C :    0.031336
  45 C :   -0.016482
  46 C :   -0.016980
  47 C :    0.028682
  48 C :   -0.112930
  49 C :   -0.109494
  50 C :   -0.029831
  51 C :   -0.109052
  52 H :    0.037914
  53 H :    0.006340
  54 H :    0.051603
  55 H :    0.037570
  56 H :    0.035142
  57 H :    0.036503
  58 H :    0.036915
  59 H :    0.000832
  60 H :    0.051756
  61 H :    0.061903
  62 H :    0.058630
  63 H :    0.029788
  64 H :   -0.003740
  65 H :    0.042994
  66 H :    0.030472
  67 H :    0.027396
  68 H :    0.031517
  69 H :    0.031540
  70 H :    0.001151
  71 H :    0.045832
  72 H :    0.024478
  73 H :    0.002243
  74 H :    0.039778
  75 H :    0.023540
  76 H :    0.022268
  77 H :    0.027483
  78 H :    0.027154
  79 H :    0.005340
  80 H :    0.038942
  81 H :    0.028501
  82 H :   -0.001566
  83 H :    0.044138
  84 H :    0.027685
  85 H :    0.025163
  86 H :    0.030510
  87 H :    0.030552
  88 H :   -0.004358
  89 H :    0.041896

  Mayer bond orders larger than 0.100000
B(  0-C ,  1-N ) :   1.1697 B(  0-C , 17-C ) :   1.5623 B(  0-C , 52-H ) :   0.9678
B(  1-N ,  8-C ) :   1.1662 B(  1-N , 10-C ) :   0.9394 B(  2-C , 12-C ) :   1.5634
B(  2-C , 16-C ) :   1.2905 B(  2-C , 53-H ) :   0.9788 B(  3-N , 14-C ) :   1.1830
B(  3-N , 16-C ) :   1.2011 B(  3-N , 61-H ) :   0.8965 B(  4-C ,  6-C ) :   1.3263
B(  4-C , 17-C ) :   1.3257 B(  4-C , 18-C ) :   1.1204 B(  5-N , 19-C ) :   1.3802
B(  5-N , 27-C ) :   1.4368 B(  6-C ,  8-C ) :   1.5621 B(  6-C , 54-H ) :   0.9710
B(  7-N , 30-C ) :   1.1866 B(  7-N , 38-C ) :   1.2115 B(  7-N , 62-H ) :   0.9003
B(  8-C , 55-H ) :   0.9689 B(  9-N , 41-C ) :   1.4255 B(  9-N , 49-C ) :   1.4015
B( 10-C , 56-H ) :   0.9764 B( 10-C , 57-H ) :   0.9814 B( 10-C , 58-H ) :   0.9821
B( 11-N , 20-C ) :   1.1082 B( 11-N , 24-C ) :   1.1338 B( 11-N , 25-C ) :   0.9597
B( 12-C , 14-C ) :   1.2916 B( 12-C , 59-H ) :   0.9777 B( 13-N , 31-C ) :   1.0950
B( 13-N , 35-C ) :   1.0851 B( 13-N , 36-C ) :   0.9753 B( 14-C , 18-C ) :   1.2434
B( 15-N , 42-C ) :   1.1240 B( 15-N , 46-C ) :   1.0993 B( 15-N , 47-C ) :   0.9644
B( 16-C , 51-C ) :   1.2309 B( 17-C , 60-H ) :   0.9713 B( 18-C , 19-C ) :   1.2804
B( 19-C , 21-C ) :   1.1810 B( 20-C , 28-C ) :   1.6245 B( 20-C , 63-H ) :   0.9706
B( 21-C , 26-C ) :   1.6664 B( 21-C , 64-H ) :   0.9731 B( 22-C , 23-C ) :   1.2662
B( 22-C , 28-C ) :   1.2805 B( 22-C , 29-C ) :   1.2462 B( 23-C , 24-C ) :   1.6270
B( 23-C , 65-H ) :   0.9718 B( 24-C , 66-H ) :   0.9690 B( 25-C , 67-H ) :   0.9763
B( 25-C , 68-H ) :   0.9832 B( 25-C , 69-H ) :   0.9819 B( 26-C , 27-C ) :   1.1857
B( 26-C , 70-H ) :   0.9748 B( 27-C , 29-C ) :   1.2348 B( 28-C , 71-H ) :   0.9710
B( 29-C , 30-C ) :   1.1894 B( 30-C , 32-C ) :   1.3369 B( 31-C , 39-C ) :   1.6674
B( 31-C , 72-H ) :   0.9705 B( 32-C , 37-C ) :   1.5221 B( 32-C , 73-H ) :   0.9773
B( 33-C , 34-C ) :   1.2462 B( 33-C , 39-C ) :   1.2383 B( 33-C , 40-C ) :   1.3214
B( 34-C , 35-C ) :   1.6653 B( 34-C , 74-H ) :   0.9708 B( 35-C , 75-H ) :   0.9706
B( 36-C , 76-H ) :   0.9758 B( 36-C , 77-H ) :   0.9824 B( 36-C , 78-H ) :   0.9836
B( 37-C , 38-C ) :   1.3338 B( 37-C , 79-H ) :   0.9788 B( 38-C , 40-C ) :   1.1890
B( 39-C , 80-H ) :   0.9720 B( 40-C , 41-C ) :   1.1838 B( 41-C , 43-C ) :   1.2439
B( 42-C , 50-C ) :   1.6378 B( 42-C , 81-H ) :   0.9696 B( 43-C , 48-C ) :   1.6072
B( 43-C , 82-H ) :   0.9750 B( 44-C , 45-C ) :   1.2784 B( 44-C , 50-C ) :   1.2564
B( 44-C , 51-C ) :   1.2502 B( 45-C , 46-C ) :   1.6315 B( 45-C , 83-H ) :   0.9705
B( 46-C , 84-H ) :   0.9706 B( 47-C , 85-H ) :   0.9761 B( 47-C , 86-H ) :   0.9826
B( 47-C , 87-H ) :   0.9828 B( 48-C , 49-C ) :   1.2397 B( 48-C , 88-H ) :   0.9729
B( 49-C , 51-C ) :   1.1980 B( 50-C , 89-H ) :   0.9719

MP2 TOTAL ENERGY:    -2130.892754053 Eh
FINAL SINGLE POINT ENERGY     -2130.892754052582

DIPOLE MOMENT
-------------
                                X             Y             Z
Electronic contribution:     -3.17332       3.12008      -0.05908
Nuclear contribution   :      0.04389       0.21733       0.07854
                        -----------------------------------------
Total Dipole Moment    :     -3.12943       3.33741       0.01947
                        -----------------------------------------
Magnitude (a.u.)       :      4.57516
Magnitude (Debye)      :     11.62912

Rotational constants in cm-1:     0.001499     0.001472     0.000763
Rotational constants in MHz :    44.926093    44.129189    22.864288

                             ****ORCA TERMINATED NORMALLY****
TOTAL RUN TIME: 0 days 1 hours 21 minutes 30 seconds 304 msec
