                         Program Version 5.0.4 -  RELEASE  -
|  1> ! PAL2
|  2> ! mp2 cc-pvdz TightSCF  NoKeepInts
|  3>
|  4> %scf
|  5>   MaxCore 2000
|  6> end
|  7> %mp2
|  8>   MaxCore 2000
|  9> end
| 10> * xyz 0 1
| 11>    C       -4.31900         5.63900        -1.01600
| 12>    C        1.47400         4.04100         0.05700
| 13>    C       -2.80200         4.09300         0.04900
| 14>    C       -2.86000         4.90300         1.19300
| 15>    C       -3.64100         6.04200         1.19700
| 16>    C       -5.20900         7.60400         0.15200
| 17>    C        0.13200         4.30700         0.06100
| 18>    C       -0.56900         3.05600         0.04700
| 19>    C        1.64900         2.61800         0.02300
| 20>    C       -3.55800         4.48700        -1.06600
| 21>    N       -4.35300         6.39800         0.10300
| 22>    N        0.38800         2.06700         0.02500
| 23>    N       -2.01000         0.39500        -0.07500
| 24>    N       -0.38800        -2.07400        -0.02700
| 25>    N        2.01000        -0.40100         0.06500
| 26>    C       -1.96000         2.86100         0.02400
| 27>    C       -2.62300         1.61500        -0.01800
| 28>    C       -5.57300        -4.32900         1.06600
| 29>    C       -4.07300         1.47100         0.05600
| 30>    C       -4.10600        -2.75600        -0.02600
| 31>    C       -4.99500        -2.75700        -1.11100
| 32>    C       -6.13200        -3.54200        -1.07600
| 33>    C       -7.65100        -5.11300         0.04000
| 34>    C       -4.32400         0.14100         0.03700
| 35>    C       -3.02500        -0.52000        -0.04800
| 36>    C       -4.42200        -3.56600         1.07500
| 37>    N       -6.40700        -4.31300         0.00100
| 38>    C       -2.86700        -1.92200        -0.04000
| 39>    C       -1.65000        -2.62400        -0.02700
| 40>    C        3.56800        -6.14200        -1.04000
| 41>    C       -1.47600        -4.04900        -0.03400
| 42>    C        2.80300        -4.09900        -0.00800
| 43>    C        3.65700        -4.38400         1.06900
| 44>    C        4.42700        -5.53000         1.05900
| 45>    C        5.24500        -7.58800         0.01400
| 46>    C       -0.13400        -4.31500        -0.02200
| 47>    C        0.56800        -3.06400        -0.02700
| 48>    C        2.77500        -5.01200        -1.07400
| 49>    N        4.37600        -6.39100         0.01700
| 50>    C        1.95900        -2.86900        -0.00900
| 51>    C        2.62100        -1.62200         0.00900
| 52>    C        5.54300         4.33900        -1.13000
| 53>    C        4.07000        -1.47900        -0.09400
| 54>    C        4.10400         2.75100        -0.02100
| 55>    C        5.02700         2.72900         1.03600
| 56>    C        6.16600         3.50900         0.97800
| 57>    C        7.61900         5.15300        -0.11500
| 58>    C        4.32100        -0.14800        -0.09200
| 59>    C        3.02500         0.51400         0.01500
| 60>    C        4.38700         3.58200        -1.11500
| 61>    C        2.86600         1.91600         0.01300
| 62>    N        6.41300         4.29600        -0.09500
| 63>    H       -4.90700         5.98800        -1.85500
| 64>    H        2.27400         4.76600         0.08100
| 65>    H       -2.30700         4.64700         2.08900
| 66>    H       -3.72400         6.69300         2.05800
| 67>    H       -6.18200         7.33300         0.56800
| 68>    H       -4.72700         8.35100         0.78200
| 69>    H       -5.32900         7.99000        -0.86000
| 70>    H       -0.33200         5.28200         0.06900
| 71>    H       -3.54300         3.91100        -1.98400
| 72>    H        0.18200         1.07200         0.00500
| 73>    H       -0.18300        -1.08000        -0.02100
| 74>    H       -5.86400        -4.96200         1.89500
| 75>    H       -4.79400         2.27200         0.13900
| 76>    H       -4.80000        -2.16000        -1.99400
| 77>    H       -6.84100        -3.58200        -1.89300
| 78>    H       -8.42800        -4.53600         0.54600
| 79>    H       -7.95600        -5.33700        -0.98100
| 80>    H       -7.45600        -6.03700         0.58400
| 81>    H       -5.28700        -0.34400         0.10000
| 82>    H       -3.78000        -3.60100         1.94700
| 83>    H        3.58700        -6.86800        -1.84300
| 84>    H       -2.27600        -4.77400        -0.05000
| 85>    H        3.71400        -3.72400         1.92600
| 86>    H        5.09200        -5.79500         1.87100
| 87>    H        6.20500        -7.32900        -0.43900
| 88>    H        5.39300        -7.91700         1.04200
| 89>    H        4.75900        -8.37300        -0.56400
| 90>    H        0.32900        -5.29000        -0.00800
| 91>    H        2.14600        -4.84200        -1.94000
| 92>    H        5.80800         4.98600        -1.95600
| 93>    H        4.78800        -2.28100        -0.18500
| 94>    H        4.86000         2.11400         1.91200
| 95>    H        6.90100         3.53100         1.77200
| 96>    H        7.38300         6.10900         0.35600
| 97>    H        8.41400         4.65200         0.43500
| 98>    H        7.92100         5.31000        -1.15000
| 99>    H        5.28300         0.33600        -0.17900
|100>    H        3.72000         3.63200        -1.96700
|101> *
|102>
|103>                          ****END OF INPUT****

CARTESIAN COORDINATES (ANGSTROEM)
---------------------------------
  C     -4.319000    5.639000   -1.016000
  C      1.474000    4.041000    0.057000
  C     -2.802000    4.093000    0.049000
  C     -2.860000    4.903000    1.193000
  C     -3.641000    6.042000    1.197000
  C     -5.209000    7.604000    0.152000
  C      0.132000    4.307000    0.061000
  C     -0.569000    3.056000    0.047000
  C      1.649000    2.618000    0.023000
  C     -3.558000    4.487000   -1.066000
  N     -4.353000    6.398000    0.103000
  N      0.388000    2.067000    0.025000
  N     -2.010000    0.395000   -0.075000
  N     -0.388000   -2.074000   -0.027000
  N      2.010000   -0.401000    0.065000
  C     -1.960000    2.861000    0.024000
  C     -2.623000    1.615000   -0.018000
  C     -5.573000   -4.329000    1.066000
  C     -4.073000    1.471000    0.056000
  C     -4.106000   -2.756000   -0.026000
  C     -4.995000   -2.757000   -1.111000
  C     -6.132000   -3.542000   -1.076000
  C     -7.651000   -5.113000    0.040000
  C     -4.324000    0.141000    0.037000
  C     -3.025000   -0.520000   -0.048000
  C     -4.422000   -3.566000    1.075000
  N     -6.407000   -4.313000    0.001000
  C     -2.867000   -1.922000   -0.040000
  C     -1.650000   -2.624000   -0.027000
  C      3.568000   -6.142000   -1.040000
  C     -1.476000   -4.049000   -0.034000
  C      2.803000   -4.099000   -0.008000
  C      3.657000   -4.384000    1.069000
  C      4.427000   -5.530000    1.059000
  C      5.245000   -7.588000    0.014000
  C     -0.134000   -4.315000   -0.022000
  C      0.568000   -3.064000   -0.027000
  C      2.775000   -5.012000   -1.074000
  N      4.376000   -6.391000    0.017000
  C      1.959000   -2.869000   -0.009000
  C      2.621000   -1.622000    0.009000
  C      5.543000    4.339000   -1.130000
  C      4.070000   -1.479000   -0.094000
  C      4.104000    2.751000   -0.021000
  C      5.027000    2.729000    1.036000
  C      6.166000    3.509000    0.978000
  C      7.619000    5.153000   -0.115000
  C      4.321000   -0.148000   -0.092000
  C      3.025000    0.514000    0.015000
  C      4.387000    3.582000   -1.115000
  C      2.866000    1.916000    0.013000
  N      6.413000    4.296000   -0.095000
  H     -4.907000    5.988000   -1.855000
  H      2.274000    4.766000    0.081000
  H     -2.307000    4.647000    2.089000
  H     -3.724000    6.693000    2.058000
  H     -6.182000    7.333000    0.568000
  H     -4.727000    8.351000    0.782000
  H     -5.329000    7.990000   -0.860000
  H     -0.332000    5.282000    0.069000
  H     -3.543000    3.911000   -1.984000
  H      0.182000    1.072000    0.005000
  H     -0.183000   -1.080000   -0.021000
  H     -5.864000   -4.962000    1.895000
  H     -4.794000    2.272000    0.139000
  H     -4.800000   -2.160000   -1.994000
  H     -6.841000   -3.582000   -1.893000
  H     -8.428000   -4.536000    0.546000
  H     -7.956000   -5.337000   -0.981000
  H     -7.456000   -6.037000    0.584000
  H     -5.287000   -0.344000    0.100000
  H     -3.780000   -3.601000    1.947000
  H      3.587000   -6.868000   -1.843000
  H     -2.276000   -4.774000   -0.050000
  H      3.714000   -3.724000    1.926000
  H      5.092000   -5.795000    1.871000
  H      6.205000   -7.329000   -0.439000
  H      5.393000   -7.917000    1.042000
  H      4.759000   -8.373000   -0.564000
  H      0.329000   -5.290000   -0.008000
  H      2.146000   -4.842000   -1.940000
  H      5.808000    4.986000   -1.956000
  H      4.788000   -2.281000   -0.185000
  H      4.860000    2.114000    1.912000
  H      6.901000    3.531000    1.772000
  H      7.383000    6.109000    0.356000
  H      8.414000    4.652000    0.435000
  H      7.921000    5.310000   -1.150000
  H      5.283000    0.336000   -0.179000
  H      3.720000    3.632000   -1.967000

 Total Charge           Charge          ....    0
 Multiplicity           Mult            ....    1
 Number of Electrons    NEL             ....  358
 Basis Dimension        Dim             ....  918

ORBITAL ENERGIES
----------------

  NO   OCC          E(Eh)            E(eV)
   0   2.0000     -15.654870      -425.9907
   1   2.0000     -15.639206      -425.5644
   2   2.0000     -15.626488      -425.2183
   3   2.0000     -15.615361      -424.9156
   4   2.0000     -15.516442      -422.2238
   5   2.0000     -15.513662      -422.1482
   6   2.0000     -15.446270      -420.3144
   7   2.0000     -15.437384      -420.0726
   8   2.0000     -11.312027      -307.8159
   9   2.0000     -11.307224      -307.6852
  10   2.0000     -11.306320      -307.6606
  11   2.0000     -11.302554      -307.5581
  12   2.0000     -11.295896      -307.3770
  13   2.0000     -11.294446      -307.3375
  14   2.0000     -11.292733      -307.2909
  15   2.0000     -11.287752      -307.1554
  16   2.0000     -11.284999      -307.0804
  17   2.0000     -11.281838      -306.9944
  18   2.0000     -11.275980      -306.8350
  19   2.0000     -11.272783      -306.7480
  20   2.0000     -11.256296      -306.2994
  21   2.0000     -11.244796      -305.9865
  22   2.0000     -11.244544      -305.9796
  23   2.0000     -11.242489      -305.9237
  24   2.0000     -11.234178      -305.6975
  25   2.0000     -11.233421      -305.6769
  26   2.0000     -11.230647      -305.6014
  27   2.0000     -11.224532      -305.4351
  28   2.0000     -11.224418      -305.4319
  29   2.0000     -11.220806      -305.3337
  30   2.0000     -11.216919      -305.2279
  31   2.0000     -11.216091      -305.2053
  32   2.0000     -11.198793      -304.7346
  33   2.0000     -11.198673      -304.7314
  34   2.0000     -11.193139      -304.5808
  35   2.0000     -11.192992      -304.5768
  36   2.0000     -11.178368      -304.1788
  37   2.0000     -11.178345      -304.1782
  38   2.0000     -11.175073      -304.0892
  39   2.0000     -11.170189      -303.9563
  40   2.0000     -11.164081      -303.7901
  41   2.0000     -11.161031      -303.7071
  42   2.0000     -11.160801      -303.7008
  43   2.0000     -11.160146      -303.6830
  44   2.0000     -11.158918      -303.6496
  45   2.0000     -11.155899      -303.5674
  46   2.0000     -11.153335      -303.4977
  47   2.0000     -11.150637      -303.4243
  48   2.0000     -11.149019      -303.3802
  49   2.0000     -11.148416      -303.3638
  50   2.0000     -11.132179      -302.9220
  51   2.0000     -11.130362      -302.8726
  52   2.0000      -1.338636       -36.4261
  53   2.0000      -1.325663       -36.0731
  54   2.0000      -1.314466       -35.7684
  55   2.0000      -1.305250       -35.5177
  56   2.0000      -1.216041       -33.0902
  57   2.0000      -1.211029       -32.9538
  58   2.0000      -1.164904       -31.6987
  59   2.0000      -1.150350       -31.3026
  60   2.0000      -1.124246       -30.5923
  61   2.0000      -1.113088       -30.2887
  62   2.0000      -1.103877       -30.0380
  63   2.0000      -1.095062       -29.7982
  64   2.0000      -1.061359       -28.8810
  65   2.0000      -1.049419       -28.5561
  66   2.0000      -1.039006       -28.2728
  67   2.0000      -1.030557       -28.0429
  68   2.0000      -1.028375       -27.9835
  69   2.0000      -1.012557       -27.5531
  70   2.0000      -1.006482       -27.3878
  71   2.0000      -0.995228       -27.0815
  72   2.0000      -0.980520       -26.6813
  73   2.0000      -0.975054       -26.5326
  74   2.0000      -0.970436       -26.4069
  75   2.0000      -0.960902       -26.1475
  76   2.0000      -0.949203       -25.8291
  77   2.0000      -0.947553       -25.7842
  78   2.0000      -0.932724       -25.3807
  79   2.0000      -0.922034       -25.0898
  80   2.0000      -0.892522       -24.2868
  81   2.0000      -0.885801       -24.1039
  82   2.0000      -0.876085       -23.8395
  83   2.0000      -0.866272       -23.5725
  84   2.0000      -0.860384       -23.4122
  85   2.0000      -0.857721       -23.3398
  86   2.0000      -0.852030       -23.1849
  87   2.0000      -0.837571       -22.7915
  88   2.0000      -0.822221       -22.3738
  89   2.0000      -0.797153       -21.6916
  90   2.0000      -0.796188       -21.6654
  91   2.0000      -0.740462       -20.1490
  92   2.0000      -0.731352       -19.9011
  93   2.0000      -0.726995       -19.7825
  94   2.0000      -0.723050       -19.6752
  95   2.0000      -0.716290       -19.4912
  96   2.0000      -0.710228       -19.3263
  97   2.0000      -0.707254       -19.2453
  98   2.0000      -0.698337       -19.0027
  99   2.0000      -0.691331       -18.8121
 100   2.0000      -0.689721       -18.7683
 101   2.0000      -0.682322       -18.5669
 102   2.0000      -0.679939       -18.5021
 103   2.0000      -0.671782       -18.2801
 104   2.0000      -0.669395       -18.2152
 105   2.0000      -0.667361       -18.1598
 106   2.0000      -0.662842       -18.0368
 107   2.0000      -0.660974       -17.9860
 108   2.0000      -0.657840       -17.9007
 109   2.0000      -0.656497       -17.8642
 110   2.0000      -0.650622       -17.7043
 111   2.0000      -0.647921       -17.6308
 112   2.0000      -0.645179       -17.5562
 113   2.0000      -0.640050       -17.4167
 114   2.0000      -0.633032       -17.2257
 115   2.0000      -0.627113       -17.0646
 116   2.0000      -0.623069       -16.9546
 117   2.0000      -0.616405       -16.7732
 118   2.0000      -0.612719       -16.6729
 119   2.0000      -0.607947       -16.5431
 120   2.0000      -0.606535       -16.5047
 121   2.0000      -0.599951       -16.3255
 122   2.0000      -0.598215       -16.2783
 123   2.0000      -0.594772       -16.1846
 124   2.0000      -0.592960       -16.1352
 125   2.0000      -0.584878       -15.9153
 126   2.0000      -0.576638       -15.6911
 127   2.0000      -0.570092       -15.5130
 128   2.0000      -0.569423       -15.4948
 129   2.0000      -0.563385       -15.3305
 130   2.0000      -0.554093       -15.0776
 131   2.0000      -0.547585       -14.9006
 132   2.0000      -0.540593       -14.7103
 133   2.0000      -0.534174       -14.5356
 134   2.0000      -0.531623       -14.4662
 135   2.0000      -0.528382       -14.3780
 136   2.0000      -0.525797       -14.3077
 137   2.0000      -0.522714       -14.2238
 138   2.0000      -0.519595       -14.1389
 139   2.0000      -0.514930       -14.0120
 140   2.0000      -0.508977       -13.8500
 141   2.0000      -0.505123       -13.7451
 142   2.0000      -0.502665       -13.6782
 143   2.0000      -0.500401       -13.6166
 144   2.0000      -0.498436       -13.5631
 145   2.0000      -0.496286       -13.5046
 146   2.0000      -0.494044       -13.4436
 147   2.0000      -0.493116       -13.4184
 148   2.0000      -0.487928       -13.2772
 149   2.0000      -0.466509       -12.6944
 150   2.0000      -0.460447       -12.5294
 151   2.0000      -0.452475       -12.3125
 152   2.0000      -0.447595       -12.1797
 153   2.0000      -0.443616       -12.0714
 154   2.0000      -0.441931       -12.0256
 155   2.0000      -0.440059       -11.9746
 156   2.0000      -0.432889       -11.7795
 157   2.0000      -0.425987       -11.5917
 158   2.0000      -0.391152       -10.6438
 159   2.0000      -0.385104       -10.4792
 160   2.0000      -0.373990       -10.1768
 161   2.0000      -0.369855       -10.0643
 162   2.0000      -0.369088       -10.0434
 163   2.0000      -0.359752        -9.7894
 164   2.0000      -0.350853        -9.5472
 165   2.0000      -0.343859        -9.3569
 166   2.0000      -0.338094        -9.2000
 167   2.0000      -0.334345        -9.0980
 168   2.0000      -0.323372        -8.7994
 169   2.0000      -0.299952        -8.1621
 170   2.0000      -0.293751        -7.9934
 171   2.0000      -0.288213        -7.8427
 172   2.0000      -0.286147        -7.7865
 173   2.0000      -0.257673        -7.0116
 174   2.0000      -0.242397        -6.5960
 175   2.0000      -0.186371        -5.0714
 176   2.0000      -0.176032        -4.7901
 177   2.0000      -0.063211        -1.7201
 178   2.0000      -0.052791        -1.4365
 179   0.0000       0.032779         0.8920
 180   0.0000       0.068055         1.8519
 181   0.0000       0.092316         2.5120
 182   0.0000       0.095733         2.6050
 183   0.0000       0.123809         3.3690

MULLIKEN ATOMIC CHARGES
-----------------------
   0 C :    0.214481
   1 N :   -0.432895
   2 C :   -0.066868
   3 N :   -0.340255
   4 C :   -0.084065
   5 N :   -0.563507
   6 C :   -0.042768
   7 N :   -0.337621
   8 C :    0.211469
   9 N :   -0.564001
  10 C :    0.111334
  11 N :   -0.437462
  12 C :   -0.063061
  13 N :   -0.443955
  14 C :    0.229058
  15 N :   -0.440740
  16 C :    0.243148
  17 C :   -0.045866
  18 C :   -0.186628
  19 C :    0.226033
  20 C :    0.202674
  21 C :   -0.069360
  22 C :   -0.085485
  23 C :   -0.055343
  24 C :    0.212161
  25 C :    0.113717
  26 C :   -0.072172
  27 C :    0.231785
  28 C :   -0.047168
  29 C :   -0.189297
  30 C :    0.230089
  31 C :    0.202546
  32 C :   -0.065280
  33 C :   -0.089514
  34 C :   -0.049811
  35 C :    0.194183
  36 C :    0.116682
  37 C :   -0.067845
  38 C :    0.240163
  39 C :   -0.063215
  40 C :   -0.194305
  41 C :    0.218300
  42 C :    0.206912
  43 C :   -0.074997
  44 C :   -0.088876
  45 C :   -0.047541
  46 C :    0.197401
  47 C :    0.115844
  48 C :   -0.078280
  49 C :    0.219231
  50 C :   -0.057513
  51 C :   -0.190238
  52 H :    0.062774
  53 H :   -0.012265
  54 H :    0.052135
  55 H :    0.062131
  56 H :    0.067503
  57 H :    0.062838
  58 H :    0.061852
  59 H :   -0.019235
  60 H :    0.049971
  61 H :    0.174116
  62 H :    0.171267
  63 H :    0.056579
  64 H :   -0.026127
  65 H :    0.045434
  66 H :    0.057830
  67 H :    0.062383
  68 H :    0.058081
  69 H :    0.059725
  70 H :   -0.021476
  71 H :    0.048822
  72 H :    0.049377
  73 H :   -0.016553
  74 H :    0.040304
  75 H :    0.048250
  76 H :    0.056097
  77 H :    0.053622
  78 H :    0.052794
  79 H :   -0.012767
  80 H :    0.040324
  81 H :    0.052887
  82 H :   -0.023612
  83 H :    0.043268
  84 H :    0.052139
  85 H :    0.057652
  86 H :    0.056549
  87 H :    0.056182
  88 H :   -0.025668
  89 H :    0.043535
Sum of atomic charges:   -0.0000000

LOEWDIN ATOMIC CHARGES
----------------------
   0 C :    0.009457
   1 N :    0.154438
   2 C :   -0.100913
   3 N :    0.175270
   4 C :    0.058670
   5 N :   -0.141401
   6 C :   -0.016946
   7 N :    0.177475
   8 C :    0.007563
   9 N :   -0.138562
  10 C :    0.032422
  11 N :    0.144839
  12 C :   -0.099553
  13 N :    0.131265
  14 C :   -0.051542
  15 N :    0.137896
  16 C :   -0.035918
  17 C :   -0.019127
  18 C :   -0.112197
  19 C :   -0.088494
  20 C :   -0.004061
  21 C :   -0.101997
  22 C :    0.043968
  23 C :   -0.024717
  24 C :    0.004465
  25 C :    0.030476
  26 C :   -0.101169
  27 C :   -0.080871
  28 C :   -0.017945
  29 C :   -0.110981
  30 C :   -0.053424
  31 C :   -0.008787
  32 C :   -0.099771
  33 C :    0.023044
  34 C :   -0.022086
  35 C :   -0.016090
  36 C :    0.027243
  37 C :   -0.103925
  38 C :   -0.036367
  39 C :   -0.028848
  40 C :   -0.110279
  41 C :   -0.094815
  42 C :   -0.002579
  43 C :   -0.108333
  44 C :    0.033598
  45 C :   -0.019369
  46 C :   -0.010838
  47 C :    0.029029
  48 C :   -0.109572
  49 C :   -0.099787
  50 C :   -0.026226
  51 C :   -0.109256
  52 H :    0.033101
  53 H :    0.005171
  54 H :    0.047902
  55 H :    0.033399
  56 H :    0.030919
  57 H :    0.033288
  58 H :    0.033774
  59 H :    0.002600
  60 H :    0.047101
  61 H :    0.061163
  62 H :    0.059620
  63 H :    0.030849
  64 H :   -0.002246
  65 H :    0.044392
  66 H :    0.030900
  67 H :    0.028363
  68 H :    0.032003
  69 H :    0.031730
  70 H :   -0.000740
  71 H :    0.045999
  72 H :    0.027494
  73 H :    0.003031
  74 H :    0.042285
  75 H :    0.026635
  76 H :    0.025075
  77 H :    0.029434
  78 H :    0.029088
  79 H :    0.004954
  80 H :    0.041576
  81 H :    0.028822
  82 H :   -0.001812
  83 H :    0.043878
  84 H :    0.028463
  85 H :    0.025908
  86 H :    0.030521
  87 H :    0.030904
  88 H :   -0.002942
  89 H :    0.043026

  Mayer bond orders larger than 0.100000
B(  0-C ,  1-N ) :   1.1407 B(  0-C , 17-C ) :   1.5999 B(  0-C , 52-H ) :   0.9687
B(  1-N ,  8-C ) :   1.1369 B(  1-N , 10-C ) :   0.9514 B(  2-C , 12-C ) :   1.5488
B(  2-C , 16-C ) :   1.3072 B(  2-C , 53-H ) :   0.9784 B(  3-N , 14-C ) :   1.1923
B(  3-N , 16-C ) :   1.1985 B(  3-N , 61-H ) :   0.8975 B(  4-C ,  6-C ) :   1.2935
B(  4-C , 17-C ) :   1.2961 B(  4-C , 18-C ) :   1.1933 B(  5-N , 19-C ) :   1.3997
B(  5-N , 27-C ) :   1.4210 B(  6-C ,  8-C ) :   1.6023 B(  6-C , 54-H ) :   0.9713
B(  7-N , 30-C ) :   1.1893 B(  7-N , 38-C ) :   1.2070 B(  7-N , 62-H ) :   0.8992
B(  8-C , 55-H ) :   0.9698 B(  9-N , 41-C ) :   1.4163 B(  9-N , 49-C ) :   1.4096
B( 10-C , 56-H ) :   0.9763 B( 10-C , 57-H ) :   0.9820 B( 10-C , 58-H ) :   0.9826
B( 11-N , 20-C ) :   1.1183 B( 11-N , 24-C ) :   1.1309 B( 11-N , 25-C ) :   0.9579
B( 12-C , 14-C ) :   1.3081 B( 12-C , 59-H ) :   0.9780 B( 13-N , 31-C ) :   1.1091
B( 13-N , 35-C ) :   1.0999 B( 13-N , 36-C ) :   0.9678 B( 14-C , 18-C ) :   1.2211
B( 15-N , 42-C ) :   1.1203 B( 15-N , 46-C ) :   1.1074 B( 15-N , 47-C ) :   0.9631
B( 16-C , 51-C ) :   1.2156 B( 17-C , 60-H ) :   0.9713 B( 18-C , 19-C ) :   1.2470
B( 19-C , 21-C ) :   1.1977 B( 20-C , 28-C ) :   1.6216 B( 20-C , 63-H ) :   0.9703
B( 21-C , 26-C ) :   1.6528 B( 21-C , 64-H ) :   0.9737 B( 22-C , 23-C ) :   1.2764
B( 22-C , 28-C ) :   1.2796 B( 22-C , 29-C ) :   1.2353 B( 23-C , 24-C ) :   1.6204
B( 23-C , 65-H ) :   0.9713 B( 24-C , 66-H ) :   0.9690 B( 25-C , 67-H ) :   0.9763
B( 25-C , 68-H ) :   0.9830 B( 25-C , 69-H ) :   0.9820 B( 26-C , 27-C ) :   1.1981
B( 26-C , 70-H ) :   0.9740 B( 27-C , 29-C ) :   1.2316 B( 28-C , 71-H ) :   0.9712
B( 29-C , 30-C ) :   1.2018 B( 30-C , 32-C ) :   1.3236 B( 31-C , 39-C ) :   1.6494
B( 31-C , 72-H ) :   0.9701 B( 32-C , 37-C ) :   1.5349 B( 32-C , 73-H ) :   0.9774
B( 33-C , 34-C ) :   1.2605 B( 33-C , 39-C ) :   1.2526 B( 33-C , 40-C ) :   1.2852
B( 34-C , 35-C ) :   1.6468 B( 34-C , 74-H ) :   0.9706 B( 35-C , 75-H ) :   0.9702
B( 36-C , 76-H ) :   0.9760 B( 36-C , 77-H ) :   0.9823 B( 36-C , 78-H ) :   0.9834
B( 37-C , 38-C ) :   1.3229 B( 37-C , 79-H ) :   0.9783 B( 38-C , 40-C ) :   1.1993
B( 39-C , 80-H ) :   0.9718 B( 40-C , 41-C ) :   1.2001 B( 41-C , 43-C ) :   1.2305
B( 42-C , 50-C ) :   1.6352 B( 42-C , 81-H ) :   0.9696 B( 43-C , 48-C ) :   1.6207
B( 43-C , 82-H ) :   0.9743 B( 44-C , 45-C ) :   1.2748 B( 44-C , 50-C ) :   1.2621
B( 44-C , 51-C ) :   1.2535 B( 45-C , 46-C ) :   1.6317 B( 45-C , 83-H ) :   0.9708
B( 46-C , 84-H ) :   0.9704 B( 47-C , 85-H ) :   0.9761 B( 47-C , 86-H ) :   0.9827
B( 47-C , 87-H ) :   0.9827 B( 48-C , 49-C ) :   1.2281 B( 48-C , 88-H ) :   0.9733
B( 49-C , 51-C ) :   1.2068 B( 50-C , 89-H ) :   0.9716

MP2 TOTAL ENERGY:    -2130.906683005 Eh
FINAL SINGLE POINT ENERGY     -2130.906683005445

DIPOLE MOMENT
-------------
                                X             Y             Z
Electronic contribution:     -1.74654       1.13427      -0.19052
Nuclear contribution   :     -0.00650       0.18065       0.22387
                        -----------------------------------------
Total Dipole Moment    :     -1.75304       1.31492       0.03335
                        -----------------------------------------
Magnitude (a.u.)       :      2.19164
Magnitude (Debye)      :      5.57071

Rotational constants in cm-1:     0.001498     0.001473     0.000762
Rotational constants in MHz :    44.905138    44.170950    22.858913

                             ****ORCA TERMINATED NORMALLY****
TOTAL RUN TIME: 0 days 1 hours 14 minutes 59 seconds 366 msec
