                         Program Version 5.0.4 -  RELEASE  -
|  1> ! PAL2
|  2> ! mp2 cc-pvdz TightSCF  NoKeepInts
|  3>
|  4> %scf
|  5>   MaxCore 2000
|  6> end
|  7> %mp2
|  8>   MaxCore 2000
|  9> end
| 10> * xyz 0 1
| 11>    C       -3.05800         6.47300         0.35500
| 12>    C        1.47400         4.04100         0.05700
| 13>    C       -2.80200         4.09300         0.04900
| 14>    C       -4.18100         4.02900        -0.20200
| 15>    C       -4.94600         5.17800        -0.17000
| 16>    C       -5.22400         7.59500         0.09800
| 17>    C        0.13200         4.30700         0.06100
| 18>    C       -0.56900         3.05600         0.04700
| 19>    C        1.64900         2.61800         0.02300
| 20>    C       -2.25000         5.35300         0.32800
| 21>    N       -4.38400         6.37700         0.10900
| 22>    N        0.38800         2.06700         0.02500
| 23>    N       -2.01000         0.39500        -0.07500
| 24>    N       -0.38800        -2.07400        -0.02700
| 25>    N        2.01000        -0.40100         0.06500
| 26>    C       -1.96000         2.86100         0.02400
| 27>    C       -2.62300         1.61500        -0.01800
| 28>    C       -5.57300        -4.32900         1.06600
| 29>    C       -4.07300         1.47100         0.05600
| 30>    C       -4.10600        -2.75600        -0.02600
| 31>    C       -4.99500        -2.75700        -1.11100
| 32>    C       -6.13200        -3.54200        -1.07600
| 33>    C       -7.65100        -5.11300         0.04000
| 34>    C       -4.32400         0.14100         0.03700
| 35>    C       -3.02500        -0.52000        -0.04800
| 36>    C       -4.42200        -3.56600         1.07500
| 37>    N       -6.40700        -4.31300         0.00100
| 38>    C       -2.86700        -1.92200        -0.04000
| 39>    C       -1.65000        -2.62400        -0.02700
| 40>    C        3.56800        -6.14200        -1.04000
| 41>    C       -1.47600        -4.04900        -0.03400
| 42>    C        2.80300        -4.09900        -0.00800
| 43>    C        3.65700        -4.38400         1.06900
| 44>    C        4.42700        -5.53000         1.05900
| 45>    C        5.24500        -7.58800         0.01400
| 46>    C       -0.13400        -4.31500        -0.02200
| 47>    C        0.56800        -3.06400        -0.02700
| 48>    C        2.77500        -5.01200        -1.07400
| 49>    N        4.37600        -6.39100         0.01700
| 50>    C        1.95900        -2.86900        -0.00900
| 51>    C        2.62100        -1.62200         0.00900
| 52>    C        5.54300         4.33900        -1.13000
| 53>    C        4.07000        -1.47900        -0.09400
| 54>    C        4.10400         2.75100        -0.02100
| 55>    C        5.02700         2.72900         1.03600
| 56>    C        6.16600         3.50900         0.97800
| 57>    C        7.61900         5.15300        -0.11500
| 58>    C        4.32100        -0.14800        -0.09200
| 59>    C        3.02500         0.51400         0.01500
| 60>    C        4.38700         3.58200        -1.11500
| 61>    C        2.86600         1.91600         0.01300
| 62>    N        6.41300         4.29600        -0.09500
| 63>    H       -2.67700         7.46200         0.57800
| 64>    H        2.27400         4.76600         0.08100
| 65>    H       -4.66400         3.08700        -0.43400
| 66>    H       -6.01100         5.17900        -0.36600
| 67>    H       -5.28300         7.97800        -0.92300
| 68>    H       -6.21900         7.33800         0.46000
| 69>    H       -4.77000         8.34000         0.75100
| 70>    H       -0.33200         5.28200         0.06900
| 71>    H       -1.19400         5.46600         0.54500
| 72>    H        0.18200         1.07200         0.00500
| 73>    H       -0.18300        -1.08000        -0.02100
| 74>    H       -5.86400        -4.96200         1.89500
| 75>    H       -4.79400         2.27200         0.13900
| 76>    H       -4.80000        -2.16000        -1.99400
| 77>    H       -6.84100        -3.58200        -1.89300
| 78>    H       -8.42800        -4.53600         0.54600
| 79>    H       -7.95600        -5.33700        -0.98100
| 80>    H       -7.45600        -6.03700         0.58400
| 81>    H       -5.28700        -0.34400         0.10000
| 82>    H       -3.78000        -3.60100         1.94700
| 83>    H        3.58700        -6.86800        -1.84300
| 84>    H       -2.27600        -4.77400        -0.05000
| 85>    H        3.71400        -3.72400         1.92600
| 86>    H        5.09200        -5.79500         1.87100
| 87>    H        6.20500        -7.32900        -0.43900
| 88>    H        5.39300        -7.91700         1.04200
| 89>    H        4.75900        -8.37300        -0.56400
| 90>    H        0.32900        -5.29000        -0.00800
| 91>    H        2.14600        -4.84200        -1.94000
| 92>    H        5.80800         4.98600        -1.95600
| 93>    H        4.78800        -2.28100        -0.18500
| 94>    H        4.86000         2.11400         1.91200
| 95>    H        6.90100         3.53100         1.77200
| 96>    H        7.38300         6.10900         0.35600
| 97>    H        8.41400         4.65200         0.43500
| 98>    H        7.92100         5.31000        -1.15000
| 99>    H        5.28300         0.33600        -0.17900
|100>    H        3.72000         3.63200        -1.96700
|101> *
|102>
|103>                          ****END OF INPUT****

CARTESIAN COORDINATES (ANGSTROEM)
---------------------------------
  C     -3.058000    6.473000    0.355000
  C      1.474000    4.041000    0.057000
  C     -2.802000    4.093000    0.049000
  C     -4.181000    4.029000   -0.202000
  C     -4.946000    5.178000   -0.170000
  C     -5.224000    7.595000    0.098000
  C      0.132000    4.307000    0.061000
  C     -0.569000    3.056000    0.047000
  C      1.649000    2.618000    0.023000
  C     -2.250000    5.353000    0.328000
  N     -4.384000    6.377000    0.109000
  N      0.388000    2.067000    0.025000
  N     -2.010000    0.395000   -0.075000
  N     -0.388000   -2.074000   -0.027000
  N      2.010000   -0.401000    0.065000
  C     -1.960000    2.861000    0.024000
  C     -2.623000    1.615000   -0.018000
  C     -5.573000   -4.329000    1.066000
  C     -4.073000    1.471000    0.056000
  C     -4.106000   -2.756000   -0.026000
  C     -4.995000   -2.757000   -1.111000
  C     -6.132000   -3.542000   -1.076000
  C     -7.651000   -5.113000    0.040000
  C     -4.324000    0.141000    0.037000
  C     -3.025000   -0.520000   -0.048000
  C     -4.422000   -3.566000    1.075000
  N     -6.407000   -4.313000    0.001000
  C     -2.867000   -1.922000   -0.040000
  C     -1.650000   -2.624000   -0.027000
  C      3.568000   -6.142000   -1.040000
  C     -1.476000   -4.049000   -0.034000
  C      2.803000   -4.099000   -0.008000
  C      3.657000   -4.384000    1.069000
  C      4.427000   -5.530000    1.059000
  C      5.245000   -7.588000    0.014000
  C     -0.134000   -4.315000   -0.022000
  C      0.568000   -3.064000   -0.027000
  C      2.775000   -5.012000   -1.074000
  N      4.376000   -6.391000    0.017000
  C      1.959000   -2.869000   -0.009000
  C      2.621000   -1.622000    0.009000
  C      5.543000    4.339000   -1.130000
  C      4.070000   -1.479000   -0.094000
  C      4.104000    2.751000   -0.021000
  C      5.027000    2.729000    1.036000
  C      6.166000    3.509000    0.978000
  C      7.619000    5.153000   -0.115000
  C      4.321000   -0.148000   -0.092000
  C      3.025000    0.514000    0.015000
  C      4.387000    3.582000   -1.115000
  C      2.866000    1.916000    0.013000
  N      6.413000    4.296000   -0.095000
  H     -2.677000    7.462000    0.578000
  H      2.274000    4.766000    0.081000
  H     -4.664000    3.087000   -0.434000
  H     -6.011000    5.179000   -0.366000
  H     -5.283000    7.978000   -0.923000
  H     -6.219000    7.338000    0.460000
  H     -4.770000    8.340000    0.751000
  H     -0.332000    5.282000    0.069000
  H     -1.194000    5.466000    0.545000
  H      0.182000    1.072000    0.005000
  H     -0.183000   -1.080000   -0.021000
  H     -5.864000   -4.962000    1.895000
  H     -4.794000    2.272000    0.139000
  H     -4.800000   -2.160000   -1.994000
  H     -6.841000   -3.582000   -1.893000
  H     -8.428000   -4.536000    0.546000
  H     -7.956000   -5.337000   -0.981000
  H     -7.456000   -6.037000    0.584000
  H     -5.287000   -0.344000    0.100000
  H     -3.780000   -3.601000    1.947000
  H      3.587000   -6.868000   -1.843000
  H     -2.276000   -4.774000   -0.050000
  H      3.714000   -3.724000    1.926000
  H      5.092000   -5.795000    1.871000
  H      6.205000   -7.329000   -0.439000
  H      5.393000   -7.917000    1.042000
  H      4.759000   -8.373000   -0.564000
  H      0.329000   -5.290000   -0.008000
  H      2.146000   -4.842000   -1.940000
  H      5.808000    4.986000   -1.956000
  H      4.788000   -2.281000   -0.185000
  H      4.860000    2.114000    1.912000
  H      6.901000    3.531000    1.772000
  H      7.383000    6.109000    0.356000
  H      8.414000    4.652000    0.435000
  H      7.921000    5.310000   -1.150000
  H      5.283000    0.336000   -0.179000
  H      3.720000    3.632000   -1.967000

 Total Charge           Charge          ....    0
 Multiplicity           Mult            ....    1
 Number of Electrons    NEL             ....  358
 Basis Dimension        Dim             ....  918

ORBITAL ENERGIES
----------------

  NO   OCC          E(Eh)            E(eV)
   0   2.0000     -15.680299      -426.6826
   1   2.0000     -15.634738      -425.4428
   2   2.0000     -15.631267      -425.3484
   3   2.0000     -15.587334      -424.1529
   4   2.0000     -15.525416      -422.4681
   5   2.0000     -15.515342      -422.1939
   6   2.0000     -15.453745      -420.5178
   7   2.0000     -15.440161      -420.1482
   8   2.0000     -11.329925      -308.3029
   9   2.0000     -11.328689      -308.2693
  10   2.0000     -11.328240      -308.2571
  11   2.0000     -11.299798      -307.4831
  12   2.0000     -11.298006      -307.4344
  13   2.0000     -11.293648      -307.3158
  14   2.0000     -11.290769      -307.2374
  15   2.0000     -11.287259      -307.1419
  16   2.0000     -11.286005      -307.1078
  17   2.0000     -11.282529      -307.0132
  18   2.0000     -11.269435      -306.6569
  19   2.0000     -11.263730      -306.5017
  20   2.0000     -11.262738      -306.4747
  21   2.0000     -11.251518      -306.1694
  22   2.0000     -11.247981      -306.0731
  23   2.0000     -11.238500      -305.8151
  24   2.0000     -11.236069      -305.7490
  25   2.0000     -11.231709      -305.6303
  26   2.0000     -11.231056      -305.6126
  27   2.0000     -11.229317      -305.5652
  28   2.0000     -11.229020      -305.5572
  29   2.0000     -11.211556      -305.0820
  30   2.0000     -11.210140      -305.0434
  31   2.0000     -11.193389      -304.5876
  32   2.0000     -11.191766      -304.5434
  33   2.0000     -11.190840      -304.5182
  34   2.0000     -11.188273      -304.4484
  35   2.0000     -11.188002      -304.4410
  36   2.0000     -11.186875      -304.4103
  37   2.0000     -11.175595      -304.1034
  38   2.0000     -11.175226      -304.0933
  39   2.0000     -11.172822      -304.0279
  40   2.0000     -11.172791      -304.0271
  41   2.0000     -11.170197      -303.9565
  42   2.0000     -11.168997      -303.9239
  43   2.0000     -11.161842      -303.7292
  44   2.0000     -11.160401      -303.6899
  45   2.0000     -11.156863      -303.5937
  46   2.0000     -11.156414      -303.5814
  47   2.0000     -11.152525      -303.4756
  48   2.0000     -11.146241      -303.3046
  49   2.0000     -11.134845      -302.9945
  50   2.0000     -11.129708      -302.8548
  51   2.0000     -11.116959      -302.5078
  52   2.0000      -1.360807       -37.0294
  53   2.0000      -1.321882       -35.9703
  54   2.0000      -1.319129       -35.8953
  55   2.0000      -1.280189       -34.8357
  56   2.0000      -1.226599       -33.3775
  57   2.0000      -1.209986       -32.9254
  58   2.0000      -1.173390       -31.9296
  59   2.0000      -1.150928       -31.3183
  60   2.0000      -1.144003       -31.1299
  61   2.0000      -1.110745       -30.2249
  62   2.0000      -1.108608       -30.1668
  63   2.0000      -1.082471       -29.4555
  64   2.0000      -1.076727       -29.2992
  65   2.0000      -1.046045       -28.4643
  66   2.0000      -1.043791       -28.4030
  67   2.0000      -1.041423       -28.3386
  68   2.0000      -1.015145       -27.6235
  69   2.0000      -1.012666       -27.5561
  70   2.0000      -1.008708       -27.4483
  71   2.0000      -0.993999       -27.0481
  72   2.0000      -0.985476       -26.8162
  73   2.0000      -0.982000       -26.7216
  74   2.0000      -0.972793       -26.4710
  75   2.0000      -0.961925       -26.1753
  76   2.0000      -0.954547       -25.9745
  77   2.0000      -0.945697       -25.7337
  78   2.0000      -0.937013       -25.4974
  79   2.0000      -0.916941       -24.9512
  80   2.0000      -0.910883       -24.7864
  81   2.0000      -0.896992       -24.4084
  82   2.0000      -0.876885       -23.8613
  83   2.0000      -0.872899       -23.7528
  84   2.0000      -0.870190       -23.6791
  85   2.0000      -0.859570       -23.3901
  86   2.0000      -0.841465       -22.8974
  87   2.0000      -0.836776       -22.7698
  88   2.0000      -0.827438       -22.5157
  89   2.0000      -0.796568       -21.6757
  90   2.0000      -0.788837       -21.4653
  91   2.0000      -0.762634       -20.7523
  92   2.0000      -0.753146       -20.4941
  93   2.0000      -0.733966       -19.9722
  94   2.0000      -0.726858       -19.7788
  95   2.0000      -0.724071       -19.7030
  96   2.0000      -0.718793       -19.5594
  97   2.0000      -0.716874       -19.5071
  98   2.0000      -0.712095       -19.3771
  99   2.0000      -0.698574       -19.0092
 100   2.0000      -0.697210       -18.9720
 101   2.0000      -0.691070       -18.8050
 102   2.0000      -0.685497       -18.6533
 103   2.0000      -0.684559       -18.6278
 104   2.0000      -0.679032       -18.4774
 105   2.0000      -0.674270       -18.3478
 106   2.0000      -0.672470       -18.2988
 107   2.0000      -0.660229       -17.9657
 108   2.0000      -0.657802       -17.8997
 109   2.0000      -0.653365       -17.7790
 110   2.0000      -0.651527       -17.7290
 111   2.0000      -0.646510       -17.5924
 112   2.0000      -0.645422       -17.5628
 113   2.0000      -0.637685       -17.3523
 114   2.0000      -0.635965       -17.3055
 115   2.0000      -0.627775       -17.0826
 116   2.0000      -0.622263       -16.9326
 117   2.0000      -0.620677       -16.8895
 118   2.0000      -0.613466       -16.6933
 119   2.0000      -0.612833       -16.6760
 120   2.0000      -0.611743       -16.6464
 121   2.0000      -0.610958       -16.6250
 122   2.0000      -0.600523       -16.3411
 123   2.0000      -0.588070       -16.0022
 124   2.0000      -0.582089       -15.8394
 125   2.0000      -0.580742       -15.8028
 126   2.0000      -0.579961       -15.7815
 127   2.0000      -0.571568       -15.5532
 128   2.0000      -0.568198       -15.4615
 129   2.0000      -0.559771       -15.2321
 130   2.0000      -0.554009       -15.0754
 131   2.0000      -0.548189       -14.9170
 132   2.0000      -0.543017       -14.7762
 133   2.0000      -0.541276       -14.7289
 134   2.0000      -0.538966       -14.6660
 135   2.0000      -0.535620       -14.5750
 136   2.0000      -0.530833       -14.4447
 137   2.0000      -0.518358       -14.1052
 138   2.0000      -0.517897       -14.0927
 139   2.0000      -0.514258       -13.9937
 140   2.0000      -0.512270       -13.9396
 141   2.0000      -0.510370       -13.8879
 142   2.0000      -0.509034       -13.8515
 143   2.0000      -0.504271       -13.7219
 144   2.0000      -0.501721       -13.6525
 145   2.0000      -0.495312       -13.4781
 146   2.0000      -0.489602       -13.3228
 147   2.0000      -0.481343       -13.0980
 148   2.0000      -0.477061       -12.9815
 149   2.0000      -0.467851       -12.7309
 150   2.0000      -0.466109       -12.6835
 151   2.0000      -0.456747       -12.4287
 152   2.0000      -0.451388       -12.2829
 153   2.0000      -0.445291       -12.1170
 154   2.0000      -0.438631       -11.9358
 155   2.0000      -0.427428       -11.6309
 156   2.0000      -0.409338       -11.1387
 157   2.0000      -0.399681       -10.8759
 158   2.0000      -0.392380       -10.6772
 159   2.0000      -0.387950       -10.5567
 160   2.0000      -0.382082       -10.3970
 161   2.0000      -0.376948       -10.2573
 162   2.0000      -0.370303       -10.0765
 163   2.0000      -0.357186        -9.7195
 164   2.0000      -0.355462        -9.6726
 165   2.0000      -0.341767        -9.2999
 166   2.0000      -0.337835        -9.1930
 167   2.0000      -0.325208        -8.8494
 168   2.0000      -0.320179        -8.7125
 169   2.0000      -0.305857        -8.3228
 170   2.0000      -0.299257        -8.1432
 171   2.0000      -0.285139        -7.7590
 172   2.0000      -0.278585        -7.5807
 173   2.0000      -0.263381        -7.1670
 174   2.0000      -0.241558        -6.5731
 175   2.0000      -0.190073        -5.1721
 176   2.0000      -0.181105        -4.9281
 177   2.0000      -0.079863        -2.1732
 178   2.0000      -0.059727        -1.6253
 179   0.0000       0.028219         0.7679
 180   0.0000       0.065125         1.7721
 181   0.0000       0.090206         2.4546
 182   0.0000       0.105910         2.8820
 183   0.0000       0.115486         3.1425

MULLIKEN ATOMIC CHARGES
-----------------------
   0 C :    0.223230
   1 N :   -0.456117
   2 C :   -0.077252
   3 N :   -0.341201
   4 C :   -0.069672
   5 N :   -0.567601
   6 C :   -0.113308
   7 N :   -0.341038
   8 C :    0.211792
   9 N :   -0.562385
  10 C :    0.119573
  11 N :   -0.438307
  12 C :   -0.053357
  13 N :   -0.429207
  14 C :    0.211349
  15 N :   -0.441054
  16 C :    0.233878
  17 C :   -0.126203
  18 C :   -0.156813
  19 C :    0.201659
  20 C :    0.214198
  21 C :   -0.064155
  22 C :   -0.089515
  23 C :   -0.039640
  24 C :    0.193776
  25 C :    0.114497
  26 C :   -0.091999
  27 C :    0.214768
  28 C :   -0.061746
  29 C :   -0.183483
  30 C :    0.246359
  31 C :    0.230824
  32 C :   -0.061463
  33 C :   -0.059925
  34 C :   -0.050883
  35 C :    0.228563
  36 C :    0.108145
  37 C :   -0.064204
  38 C :    0.231197
  39 C :   -0.057879
  40 C :   -0.181029
  41 C :    0.225600
  42 C :    0.197254
  43 C :   -0.072565
  44 C :   -0.090034
  45 C :   -0.061755
  46 C :    0.211523
  47 C :    0.115408
  48 C :   -0.066728
  49 C :    0.238430
  50 C :   -0.046002
  51 C :   -0.194801
  52 H :    0.035690
  53 H :   -0.018074
  54 H :    0.047843
  55 H :    0.034042
  56 H :    0.048799
  57 H :    0.048010
  58 H :    0.046016
  59 H :   -0.010868
  60 H :    0.045801
  61 H :    0.171003
  62 H :    0.175668
  63 H :    0.055582
  64 H :   -0.017418
  65 H :    0.046887
  66 H :    0.055741
  67 H :    0.062736
  68 H :    0.057306
  69 H :    0.056501
  70 H :   -0.029985
  71 H :    0.045099
  72 H :    0.071642
  73 H :   -0.007851
  74 H :    0.060727
  75 H :    0.071064
  76 H :    0.075254
  77 H :    0.068219
  78 H :    0.067485
  79 H :   -0.016547
  80 H :    0.061585
  81 H :    0.054405
  82 H :   -0.025108
  83 H :    0.041639
  84 H :    0.054024
  85 H :    0.060794
  86 H :    0.055414
  87 H :    0.057217
  88 H :   -0.014339
  89 H :    0.047296
Sum of atomic charges:   -0.0000000

LOEWDIN ATOMIC CHARGES
----------------------
   0 C :   -0.017183
   1 N :    0.120282
   2 C :   -0.101682
   3 N :    0.182692
   4 C :   -0.013437
   5 N :   -0.133308
   6 C :   -0.030040
   7 N :    0.174993
   8 C :   -0.024596
   9 N :   -0.140667
  10 C :    0.023074
  11 N :    0.142276
  12 C :   -0.106618
  13 N :    0.166755
  14 C :   -0.018524
  15 N :    0.138614
  16 C :   -0.060111
  17 C :   -0.037900
  18 C :   -0.109897
  19 C :   -0.075499
  20 C :    0.005322
  21 C :   -0.115121
  22 C :    0.037941
  23 C :   -0.014504
  24 C :   -0.012408
  25 C :    0.029897
  26 C :   -0.109057
  27 C :   -0.117376
  28 C :   -0.027469
  29 C :   -0.099163
  30 C :   -0.029744
  31 C :    0.025001
  32 C :   -0.093960
  33 C :    0.082816
  34 C :   -0.014859
  35 C :    0.023345
  36 C :    0.035351
  37 C :   -0.093830
  38 C :   -0.051958
  39 C :   -0.017608
  40 C :   -0.108497
  41 C :   -0.091872
  42 C :   -0.010564
  43 C :   -0.099265
  44 C :    0.033361
  45 C :   -0.028529
  46 C :    0.001842
  47 C :    0.029465
  48 C :   -0.094946
  49 C :   -0.068802
  50 C :   -0.018505
  51 C :   -0.109375
  52 H :    0.022472
  53 H :    0.002375
  54 H :    0.012860
  55 H :    0.022070
  56 H :    0.021606
  57 H :    0.026437
  58 H :    0.026482
  59 H :    0.006404
  60 H :    0.010701
  61 H :    0.060115
  62 H :    0.061956
  63 H :    0.030881
  64 H :    0.005742
  65 H :    0.045820
  66 H :    0.029287
  67 H :    0.028371
  68 H :    0.031661
  69 H :    0.030364
  70 H :   -0.004832
  71 H :    0.043609
  72 H :    0.037877
  73 H :    0.007206
  74 H :    0.050837
  75 H :    0.037533
  76 H :    0.034973
  77 H :    0.036290
  78 H :    0.035961
  79 H :    0.002987
  80 H :    0.050858
  81 H :    0.029090
  82 H :   -0.002859
  83 H :    0.042364
  84 H :    0.029816
  85 H :    0.027347
  86 H :    0.030121
  87 H :    0.031408
  88 H :    0.002461
  89 H :    0.045195

  Mayer bond orders larger than 0.100000
B(  0-C ,  1-N ) :   1.1009 B(  0-C , 17-C ) :   1.7164 B(  0-C , 52-H ) :   0.9619
B(  1-N ,  8-C ) :   1.0875 B(  1-N , 10-C ) :   0.9781 B(  2-C , 12-C ) :   1.4874
B(  2-C , 16-C ) :   1.3727 B(  2-C , 53-H ) :   0.9731 B(  3-N , 14-C ) :   1.2214
B(  3-N , 16-C ) :   1.1821 B(  3-N , 61-H ) :   0.8988 B(  4-C ,  6-C ) :   1.2172
B(  4-C , 17-C ) :   1.2175 B(  4-C , 18-C ) :   1.4754 B(  5-N , 19-C ) :   1.4579
B(  5-N , 27-C ) :   1.3712 B(  6-C ,  8-C ) :   1.7224 B(  6-C , 54-H ) :   0.8938
B(  7-N , 30-C ) :   1.1950 B(  7-N , 38-C ) :   1.1896 B(  7-N , 62-H ) :   0.8967
B(  8-C , 55-H ) :   0.9632 B(  9-N , 41-C ) :   1.3932 B(  9-N , 49-C ) :   1.4265
B( 10-C , 56-H ) :   0.9775 B( 10-C , 57-H ) :   0.9830 B( 10-C , 58-H ) :   0.9835
B( 11-N , 20-C ) :   1.1318 B( 11-N , 24-C ) :   1.1073 B( 11-N , 25-C ) :   0.9599
B( 12-C , 14-C ) :   1.3591 B( 12-C , 59-H ) :   0.9372 B( 13-N , 31-C ) :   1.1626
B( 13-N , 35-C ) :   1.1607 B( 13-N , 36-C ) :   0.9410 B( 14-C , 18-C ) :   1.1169
B( 15-N , 42-C ) :   1.1073 B( 15-N , 46-C ) :   1.1244 B( 15-N , 47-C ) :   0.9614
B( 16-C , 51-C ) :   1.1669 B( 17-C , 60-H ) :   0.8988 B( 18-C , 19-C ) :   1.1145
B( 19-C , 21-C ) :   1.2531 B( 20-C , 28-C ) :   1.6280 B( 20-C , 63-H ) :   0.9702
B( 21-C , 26-C ) :   1.5829 B( 21-C , 64-H ) :   0.9335 B( 22-C , 23-C ) :   1.2901
B( 22-C , 28-C ) :   1.2644 B( 22-C , 29-C ) :   1.2256 B( 23-C , 24-C ) :   1.6194
B( 23-C , 65-H ) :   0.9703 B( 24-C , 66-H ) :   0.9695 B( 25-C , 67-H ) :   0.9760
B( 25-C , 68-H ) :   0.9828 B( 25-C , 69-H ) :   0.9823 B( 26-C , 27-C ) :   1.2601
B( 26-C , 70-H ) :   0.9670 B( 27-C , 29-C ) :   1.2054 B( 28-C , 71-H ) :   0.9720
B( 29-C , 30-C ) :   1.2481 B( 30-C , 32-C ) :   1.2774 B( 31-C , 39-C ) :   1.5870
B( 31-C , 72-H ) :   0.9681 B( 32-C , 37-C ) :   1.5815 B( 32-C , 73-H ) :   0.9786
B( 33-C , 34-C ) :   1.3080 B( 33-C , 39-C ) :   1.3045 B( 33-C , 40-C ) :   1.1743
B( 34-C , 35-C ) :   1.5844 B( 34-C , 74-H ) :   0.9696 B( 35-C , 75-H ) :   0.9681
B( 36-C , 76-H ) :   0.9768 B( 36-C , 77-H ) :   0.9815 B( 36-C , 78-H ) :   0.9823
B( 37-C , 38-C ) :   1.2835 B( 37-C , 79-H ) :   0.9764 B( 38-C , 40-C ) :   1.2353
B( 39-C , 80-H ) :   0.9705 B( 40-C , 41-C ) :   1.2510 B( 41-C , 43-C ) :   1.1845
B( 42-C , 50-C ) :   1.6337 B( 42-C , 81-H ) :   0.9696 B( 43-C , 48-C ) :   1.6682
B( 43-C , 82-H ) :   0.9720 B( 44-C , 45-C ) :   1.2629 B( 44-C , 50-C ) :   1.2719
B( 44-C , 51-C ) :   1.2619 B( 45-C , 46-C ) :   1.6350 B( 45-C , 83-H ) :   0.9719
B( 46-C , 84-H ) :   0.9700 B( 47-C , 85-H ) :   0.9762 B( 47-C , 86-H ) :   0.9829
B( 47-C , 87-H ) :   0.9824 B( 48-C , 49-C ) :   1.1880 B( 48-C , 88-H ) :   0.9749
B( 49-C , 51-C ) :   1.2448 B( 50-C , 89-H ) :   0.9708

MP2 TOTAL ENERGY:    -2130.804017942 Eh
FINAL SINGLE POINT ENERGY     -2130.804017942456

DIPOLE MOMENT
-------------
                                X             Y             Z
Electronic contribution:      2.81585      -4.40509      -0.07390
Nuclear contribution   :     -0.02600       0.16992       0.08617
                        -----------------------------------------
Total Dipole Moment    :      2.78985      -4.23517       0.01227
                        -----------------------------------------
Magnitude (a.u.)       :      5.07150
Magnitude (Debye)      :     12.89072

Rotational constants in cm-1:     0.001503     0.001477     0.000760
Rotational constants in MHz :    45.068652    44.290601    22.784436

                             ****ORCA TERMINATED NORMALLY****
TOTAL RUN TIME: 0 days 1 hours 5 minutes 15 seconds 262 msec
