                         Program Version 5.0.4 -  RELEASE  -
|  1> ! PAL2
|  2> ! mp2 cc-pvdz TightSCF  NoKeepInts
|  3>
|  4> %scf
|  5>   MaxCore 2000
|  6> end
|  7> %mp2
|  8>   MaxCore 2000
|  9> end
| 10> * xyz 0 1
| 11>    C       -3.78900         5.95600         1.22400
| 12>    C        1.47400         4.04100         0.05700
| 13>    C       -2.80200         4.09300         0.04900
| 14>    C       -3.43500         4.55800        -1.11400
| 15>    C       -4.21400         5.69600        -1.07200
| 16>    C       -5.19600         7.61400         0.08900
| 17>    C        0.13200         4.30700         0.06100
| 18>    C       -0.56900         3.05600         0.04700
| 19>    C        1.64900         2.61800         0.02300
| 20>    C       -2.99500         4.82500         1.23100
| 21>    N       -4.38600         6.37600         0.08600
| 22>    N        0.38800         2.06700         0.02500
| 23>    N       -2.01000         0.39500        -0.07500
| 24>    N       -0.38800        -2.07400        -0.02700
| 25>    N        2.01000        -0.40100         0.06500
| 26>    C       -1.96000         2.86100         0.02400
| 27>    C       -2.62300         1.61500        -0.01800
| 28>    C       -5.57300        -4.32900         1.06600
| 29>    C       -4.07300         1.47100         0.05600
| 30>    C       -4.10600        -2.75600        -0.02600
| 31>    C       -4.99500        -2.75700        -1.11100
| 32>    C       -6.13200        -3.54200        -1.07600
| 33>    C       -7.65100        -5.11300         0.04000
| 34>    C       -4.32400         0.14100         0.03700
| 35>    C       -3.02500        -0.52000        -0.04800
| 36>    C       -4.42200        -3.56600         1.07500
| 37>    N       -6.40700        -4.31300         0.00100
| 38>    C       -2.86700        -1.92200        -0.04000
| 39>    C       -1.65000        -2.62400        -0.02700
| 40>    C        3.56800        -6.14200        -1.04000
| 41>    C       -1.47600        -4.04900        -0.03400
| 42>    C        2.80300        -4.09900        -0.00800
| 43>    C        3.65700        -4.38400         1.06900
| 44>    C        4.42700        -5.53000         1.05900
| 45>    C        5.24500        -7.58800         0.01400
| 46>    C       -0.13400        -4.31500        -0.02200
| 47>    C        0.56800        -3.06400        -0.02700
| 48>    C        2.77500        -5.01200        -1.07400
| 49>    N        4.37600        -6.39100         0.01700
| 50>    C        1.95900        -2.86900        -0.00900
| 51>    C        2.62100        -1.62200         0.00900
| 52>    C        5.54300         4.33900        -1.13000
| 53>    C        4.07000        -1.47900        -0.09400
| 54>    C        4.10400         2.75100        -0.02100
| 55>    C        5.02700         2.72900         1.03600
| 56>    C        6.16600         3.50900         0.97800
| 57>    C        7.61900         5.15300        -0.11500
| 58>    C        4.32100        -0.14800        -0.09200
| 59>    C        3.02500         0.51400         0.01500
| 60>    C        4.38700         3.58200        -1.11500
| 61>    C        2.86600         1.91600         0.01300
| 62>    N        6.41300         4.29600        -0.09500
| 63>    H       -3.97600         6.54400         2.11400
| 64>    H        2.27400         4.76600         0.08100
| 65>    H       -3.31600         4.04100        -2.05900
| 66>    H       -4.71400         6.09700        -1.94400
| 67>    H       -4.56000         8.45700        -0.19000
| 68>    H       -6.00900         7.50400        -0.62800
| 69>    H       -5.60000         7.76500         1.09000
| 70>    H       -0.33200         5.28200         0.06900
| 71>    H       -2.54500         4.50900         2.16500
| 72>    H        0.18200         1.07200         0.00500
| 73>    H       -0.18300        -1.08000        -0.02100
| 74>    H       -5.86400        -4.96200         1.89500
| 75>    H       -4.79400         2.27200         0.13900
| 76>    H       -4.80000        -2.16000        -1.99400
| 77>    H       -6.84100        -3.58200        -1.89300
| 78>    H       -8.42800        -4.53600         0.54600
| 79>    H       -7.95600        -5.33700        -0.98100
| 80>    H       -7.45600        -6.03700         0.58400
| 81>    H       -5.28700        -0.34400         0.10000
| 82>    H       -3.78000        -3.60100         1.94700
| 83>    H        3.58700        -6.86800        -1.84300
| 84>    H       -2.27600        -4.77400        -0.05000
| 85>    H        3.71400        -3.72400         1.92600
| 86>    H        5.09200        -5.79500         1.87100
| 87>    H        6.20500        -7.32900        -0.43900
| 88>    H        5.39300        -7.91700         1.04200
| 89>    H        4.75900        -8.37300        -0.56400
| 90>    H        0.32900        -5.29000        -0.00800
| 91>    H        2.14600        -4.84200        -1.94000
| 92>    H        5.80800         4.98600        -1.95600
| 93>    H        4.78800        -2.28100        -0.18500
| 94>    H        4.86000         2.11400         1.91200
| 95>    H        6.90100         3.53100         1.77200
| 96>    H        7.38300         6.10900         0.35600
| 97>    H        8.41400         4.65200         0.43500
| 98>    H        7.92100         5.31000        -1.15000
| 99>    H        5.28300         0.33600        -0.17900
|100>    H        3.72000         3.63200        -1.96700
|101> *
|102>
|103>                          ****END OF INPUT****

CARTESIAN COORDINATES (ANGSTROEM)
---------------------------------
  C     -3.789000    5.956000    1.224000
  C      1.474000    4.041000    0.057000
  C     -2.802000    4.093000    0.049000
  C     -3.435000    4.558000   -1.114000
  C     -4.214000    5.696000   -1.072000
  C     -5.196000    7.614000    0.089000
  C      0.132000    4.307000    0.061000
  C     -0.569000    3.056000    0.047000
  C      1.649000    2.618000    0.023000
  C     -2.995000    4.825000    1.231000
  N     -4.386000    6.376000    0.086000
  N      0.388000    2.067000    0.025000
  N     -2.010000    0.395000   -0.075000
  N     -0.388000   -2.074000   -0.027000
  N      2.010000   -0.401000    0.065000
  C     -1.960000    2.861000    0.024000
  C     -2.623000    1.615000   -0.018000
  C     -5.573000   -4.329000    1.066000
  C     -4.073000    1.471000    0.056000
  C     -4.106000   -2.756000   -0.026000
  C     -4.995000   -2.757000   -1.111000
  C     -6.132000   -3.542000   -1.076000
  C     -7.651000   -5.113000    0.040000
  C     -4.324000    0.141000    0.037000
  C     -3.025000   -0.520000   -0.048000
  C     -4.422000   -3.566000    1.075000
  N     -6.407000   -4.313000    0.001000
  C     -2.867000   -1.922000   -0.040000
  C     -1.650000   -2.624000   -0.027000
  C      3.568000   -6.142000   -1.040000
  C     -1.476000   -4.049000   -0.034000
  C      2.803000   -4.099000   -0.008000
  C      3.657000   -4.384000    1.069000
  C      4.427000   -5.530000    1.059000
  C      5.245000   -7.588000    0.014000
  C     -0.134000   -4.315000   -0.022000
  C      0.568000   -3.064000   -0.027000
  C      2.775000   -5.012000   -1.074000
  N      4.376000   -6.391000    0.017000
  C      1.959000   -2.869000   -0.009000
  C      2.621000   -1.622000    0.009000
  C      5.543000    4.339000   -1.130000
  C      4.070000   -1.479000   -0.094000
  C      4.104000    2.751000   -0.021000
  C      5.027000    2.729000    1.036000
  C      6.166000    3.509000    0.978000
  C      7.619000    5.153000   -0.115000
  C      4.321000   -0.148000   -0.092000
  C      3.025000    0.514000    0.015000
  C      4.387000    3.582000   -1.115000
  C      2.866000    1.916000    0.013000
  N      6.413000    4.296000   -0.095000
  H     -3.976000    6.544000    2.114000
  H      2.274000    4.766000    0.081000
  H     -3.316000    4.041000   -2.059000
  H     -4.714000    6.097000   -1.944000
  H     -4.560000    8.457000   -0.190000
  H     -6.009000    7.504000   -0.628000
  H     -5.600000    7.765000    1.090000
  H     -0.332000    5.282000    0.069000
  H     -2.545000    4.509000    2.165000
  H      0.182000    1.072000    0.005000
  H     -0.183000   -1.080000   -0.021000
  H     -5.864000   -4.962000    1.895000
  H     -4.794000    2.272000    0.139000
  H     -4.800000   -2.160000   -1.994000
  H     -6.841000   -3.582000   -1.893000
  H     -8.428000   -4.536000    0.546000
  H     -7.956000   -5.337000   -0.981000
  H     -7.456000   -6.037000    0.584000
  H     -5.287000   -0.344000    0.100000
  H     -3.780000   -3.601000    1.947000
  H      3.587000   -6.868000   -1.843000
  H     -2.276000   -4.774000   -0.050000
  H      3.714000   -3.724000    1.926000
  H      5.092000   -5.795000    1.871000
  H      6.205000   -7.329000   -0.439000
  H      5.393000   -7.917000    1.042000
  H      4.759000   -8.373000   -0.564000
  H      0.329000   -5.290000   -0.008000
  H      2.146000   -4.842000   -1.940000
  H      5.808000    4.986000   -1.956000
  H      4.788000   -2.281000   -0.185000
  H      4.860000    2.114000    1.912000
  H      6.901000    3.531000    1.772000
  H      7.383000    6.109000    0.356000
  H      8.414000    4.652000    0.435000
  H      7.921000    5.310000   -1.150000
  H      5.283000    0.336000   -0.179000
  H      3.720000    3.632000   -1.967000

 Total Charge           Charge          ....    0
 Multiplicity           Mult            ....    1
 Number of Electrons    NEL             ....  358
 Basis Dimension        Dim             ....  918

ORBITAL ENERGIES
----------------

  NO   OCC          E(Eh)            E(eV)
   0   2.0000     -15.683918      -426.7811
   1   2.0000     -15.635028      -425.4507
   2   2.0000     -15.623664      -425.1415
   3   2.0000     -15.596458      -424.4012
   4   2.0000     -15.518127      -422.2697
   5   2.0000     -15.509091      -422.0238
   6   2.0000     -15.448485      -420.3747
   7   2.0000     -15.432263      -419.9332
   8   2.0000     -11.330088      -308.3074
   9   2.0000     -11.329228      -308.2840
  10   2.0000     -11.329131      -308.2813
  11   2.0000     -11.300150      -307.4927
  12   2.0000     -11.294237      -307.3318
  13   2.0000     -11.292673      -307.2892
  14   2.0000     -11.287594      -307.1510
  15   2.0000     -11.284028      -307.0540
  16   2.0000     -11.281801      -306.9934
  17   2.0000     -11.277636      -306.8801
  18   2.0000     -11.275801      -306.8302
  19   2.0000     -11.264264      -306.5162
  20   2.0000     -11.263939      -306.5074
  21   2.0000     -11.259983      -306.3997
  22   2.0000     -11.256538      -306.3060
  23   2.0000     -11.238484      -305.8147
  24   2.0000     -11.231220      -305.6170
  25   2.0000     -11.230388      -305.5944
  26   2.0000     -11.227807      -305.5242
  27   2.0000     -11.222415      -305.3774
  28   2.0000     -11.222226      -305.3723
  29   2.0000     -11.203946      -304.8749
  30   2.0000     -11.203587      -304.8651
  31   2.0000     -11.203424      -304.8607
  32   2.0000     -11.202581      -304.8377
  33   2.0000     -11.201678      -304.8132
  34   2.0000     -11.186761      -304.4072
  35   2.0000     -11.186715      -304.4060
  36   2.0000     -11.185689      -304.3781
  37   2.0000     -11.185239      -304.3658
  38   2.0000     -11.183856      -304.3282
  39   2.0000     -11.168161      -303.9011
  40   2.0000     -11.167587      -303.8855
  41   2.0000     -11.162341      -303.7427
  42   2.0000     -11.160012      -303.6794
  43   2.0000     -11.159535      -303.6664
  44   2.0000     -11.154441      -303.5278
  45   2.0000     -11.153172      -303.4932
  46   2.0000     -11.152578      -303.4771
  47   2.0000     -11.148558      -303.3677
  48   2.0000     -11.147323      -303.3341
  49   2.0000     -11.140375      -303.1450
  50   2.0000     -11.124617      -302.7162
  51   2.0000     -11.121110      -302.6208
  52   2.0000      -1.362539       -37.0766
  53   2.0000      -1.322182       -35.9784
  54   2.0000      -1.311962       -35.7003
  55   2.0000      -1.288987       -35.0751
  56   2.0000      -1.219532       -33.1851
  57   2.0000      -1.205793       -32.8113
  58   2.0000      -1.170041       -31.8384
  59   2.0000      -1.144177       -31.1346
  60   2.0000      -1.143046       -31.1039
  61   2.0000      -1.110422       -30.2161
  62   2.0000      -1.101232       -29.9660
  63   2.0000      -1.083234       -29.4763
  64   2.0000      -1.081016       -29.4160
  65   2.0000      -1.046194       -28.4684
  66   2.0000      -1.039317       -28.2812
  67   2.0000      -1.036595       -28.2072
  68   2.0000      -1.015272       -27.6270
  69   2.0000      -1.013637       -27.5825
  70   2.0000      -1.005438       -27.3594
  71   2.0000      -0.988530       -26.8993
  72   2.0000      -0.984972       -26.8024
  73   2.0000      -0.978043       -26.6139
  74   2.0000      -0.968519       -26.3547
  75   2.0000      -0.959574       -26.1113
  76   2.0000      -0.951353       -25.8876
  77   2.0000      -0.944740       -25.7077
  78   2.0000      -0.926145       -25.2017
  79   2.0000      -0.918250       -24.9868
  80   2.0000      -0.909799       -24.7569
  81   2.0000      -0.888771       -24.1847
  82   2.0000      -0.875079       -23.8121
  83   2.0000      -0.870716       -23.6934
  84   2.0000      -0.863751       -23.5038
  85   2.0000      -0.851428       -23.1685
  86   2.0000      -0.842106       -22.9149
  87   2.0000      -0.831254       -22.6196
  88   2.0000      -0.822247       -22.3745
  89   2.0000      -0.795940       -21.6586
  90   2.0000      -0.791688       -21.5429
  91   2.0000      -0.753229       -20.4964
  92   2.0000      -0.733760       -19.9666
  93   2.0000      -0.726999       -19.7826
  94   2.0000      -0.721520       -19.6335
  95   2.0000      -0.716621       -19.5002
  96   2.0000      -0.714846       -19.4520
  97   2.0000      -0.708038       -19.2667
  98   2.0000      -0.699193       -19.0260
  99   2.0000      -0.695392       -18.9226
 100   2.0000      -0.693816       -18.8797
 101   2.0000      -0.686799       -18.6888
 102   2.0000      -0.681848       -18.5540
 103   2.0000      -0.676980       -18.4216
 104   2.0000      -0.672034       -18.2870
 105   2.0000      -0.669082       -18.2066
 106   2.0000      -0.666241       -18.1293
 107   2.0000      -0.655577       -17.8392
 108   2.0000      -0.653578       -17.7848
 109   2.0000      -0.650409       -17.6985
 110   2.0000      -0.647121       -17.6090
 111   2.0000      -0.646336       -17.5877
 112   2.0000      -0.645745       -17.5716
 113   2.0000      -0.639001       -17.3881
 114   2.0000      -0.633996       -17.2519
 115   2.0000      -0.627226       -17.0677
 116   2.0000      -0.622663       -16.9435
 117   2.0000      -0.615872       -16.7587
 118   2.0000      -0.613142       -16.6844
 119   2.0000      -0.613046       -16.6818
 120   2.0000      -0.609035       -16.5727
 121   2.0000      -0.604437       -16.4476
 122   2.0000      -0.594133       -16.1672
 123   2.0000      -0.588266       -16.0075
 124   2.0000      -0.584569       -15.9069
 125   2.0000      -0.581963       -15.8360
 126   2.0000      -0.575843       -15.6695
 127   2.0000      -0.573648       -15.6098
 128   2.0000      -0.571576       -15.5534
 129   2.0000      -0.558865       -15.2075
 130   2.0000      -0.555385       -15.1128
 131   2.0000      -0.547851       -14.9078
 132   2.0000      -0.545229       -14.8364
 133   2.0000      -0.538567       -14.6552
 134   2.0000      -0.534740       -14.5510
 135   2.0000      -0.531469       -14.4620
 136   2.0000      -0.520454       -14.1623
 137   2.0000      -0.518159       -14.0998
 138   2.0000      -0.513952       -13.9853
 139   2.0000      -0.512653       -13.9500
 140   2.0000      -0.509512       -13.8645
 141   2.0000      -0.508268       -13.8307
 142   2.0000      -0.502110       -13.6631
 143   2.0000      -0.500264       -13.6129
 144   2.0000      -0.495675       -13.4880
 145   2.0000      -0.494028       -13.4432
 146   2.0000      -0.493462       -13.4278
 147   2.0000      -0.482981       -13.1426
 148   2.0000      -0.480864       -13.0850
 149   2.0000      -0.463973       -12.6253
 150   2.0000      -0.462972       -12.5981
 151   2.0000      -0.456660       -12.4264
 152   2.0000      -0.449855       -12.2412
 153   2.0000      -0.442003       -12.0275
 154   2.0000      -0.438405       -11.9296
 155   2.0000      -0.436878       -11.8880
 156   2.0000      -0.426103       -11.5948
 157   2.0000      -0.419188       -11.4067
 158   2.0000      -0.402371       -10.9491
 159   2.0000      -0.388392       -10.5687
 160   2.0000      -0.383757       -10.4426
 161   2.0000      -0.372225       -10.1288
 162   2.0000      -0.359365        -9.7788
 163   2.0000      -0.357154        -9.7186
 164   2.0000      -0.348922        -9.4946
 165   2.0000      -0.339237        -9.2311
 166   2.0000      -0.337463        -9.1828
 167   2.0000      -0.330717        -8.9993
 168   2.0000      -0.317854        -8.6492
 169   2.0000      -0.299324        -8.1450
 170   2.0000      -0.298457        -8.1214
 171   2.0000      -0.284901        -7.7525
 172   2.0000      -0.281596        -7.6626
 173   2.0000      -0.262064        -7.1311
 174   2.0000      -0.236052        -6.4233
 175   2.0000      -0.184861        -5.0303
 176   2.0000      -0.174666        -4.7529
 177   2.0000      -0.062260        -1.6942
 178   2.0000      -0.051677        -1.4062
 179   0.0000       0.033936         0.9234
 180   0.0000       0.062127         1.6906
 181   0.0000       0.090721         2.4687
 182   0.0000       0.096938         2.6378
 183   0.0000       0.107124         2.9150

MULLIKEN ATOMIC CHARGES
-----------------------
   0 C :    0.223839
   1 N :   -0.423581
   2 C :   -0.067451
   3 N :   -0.342206
   4 C :   -0.082035
   5 N :   -0.564507
   6 C :   -0.032481
   7 N :   -0.337224
   8 C :    0.223032
   9 N :   -0.565043
  10 C :    0.107556
  11 N :   -0.438557
  12 C :   -0.059611
  13 N :   -0.447899
  14 C :    0.223209
  15 N :   -0.441019
  16 C :    0.250366
  17 C :   -0.034531
  18 C :   -0.178397
  19 C :    0.226158
  20 C :    0.195156
  21 C :   -0.066848
  22 C :   -0.087798
  23 C :   -0.061908
  24 C :    0.215604
  25 C :    0.114265
  26 C :   -0.069679
  27 C :    0.240324
  28 C :   -0.042909
  29 C :   -0.193685
  30 C :    0.225180
  31 C :    0.194349
  32 C :   -0.065144
  33 C :   -0.096998
  34 C :   -0.050104
  35 C :    0.185271
  36 C :    0.119106
  37 C :   -0.069188
  38 C :    0.242566
  39 C :   -0.064458
  40 C :   -0.199587
  41 C :    0.216917
  42 C :    0.210110
  43 C :   -0.076194
  44 C :   -0.089970
  45 C :   -0.042492
  46 C :    0.190837
  47 C :    0.116211
  48 C :   -0.080804
  49 C :    0.212937
  50 C :   -0.062592
  51 C :   -0.189668
  52 H :    0.073031
  53 H :   -0.009780
  54 H :    0.058395
  55 H :    0.071235
  56 H :    0.076010
  57 H :    0.069452
  58 H :    0.068506
  59 H :   -0.024984
  60 H :    0.059631
  61 H :    0.175679
  62 H :    0.169439
  63 H :    0.054700
  64 H :   -0.030689
  65 H :    0.042964
  66 H :    0.056421
  67 H :    0.060336
  68 H :    0.057027
  69 H :    0.059443
  70 H :   -0.017496
  71 H :    0.047890
  72 H :    0.042741
  73 H :   -0.018253
  74 H :    0.034228
  75 H :    0.041503
  76 H :    0.050550
  77 H :    0.049395
  78 H :    0.048599
  79 H :   -0.012084
  80 H :    0.034089
  81 H :    0.051813
  82 H :   -0.023296
  83 H :    0.043250
  84 H :    0.050885
  85 H :    0.056068
  86 H :    0.056633
  87 H :    0.055440
  88 H :   -0.028655
  89 H :    0.041459
Sum of atomic charges:   -0.0000000

LOEWDIN ATOMIC CHARGES
----------------------
   0 C :    0.024040
   1 N :    0.173102
   2 C :   -0.100218
   3 N :    0.172945
   4 C :    0.087480
   5 N :   -0.144708
   6 C :   -0.012699
   7 N :    0.177464
   8 C :    0.023246
   9 N :   -0.138422
  10 C :    0.036142
  11 N :    0.142213
  12 C :   -0.097594
  13 N :    0.121315
  14 C :   -0.057704
  15 N :    0.136649
  16 C :   -0.025774
  17 C :   -0.013379
  18 C :   -0.116035
  19 C :   -0.089989
  20 C :   -0.011431
  21 C :   -0.099941
  22 C :    0.039177
  23 C :   -0.029727
  24 C :    0.006774
  25 C :    0.029898
  26 C :   -0.097263
  27 C :   -0.066666
  28 C :   -0.016039
  29 C :   -0.115067
  30 C :   -0.059938
  31 C :   -0.018695
  32 C :   -0.100465
  33 C :    0.006567
  34 C :   -0.024652
  35 C :   -0.026720
  36 C :    0.024934
  37 C :   -0.107130
  38 C :   -0.032285
  39 C :   -0.032015
  40 C :   -0.111885
  41 C :   -0.094467
  42 C :   -0.000299
  43 C :   -0.111505
  44 C :    0.031317
  45 C :   -0.016446
  46 C :   -0.017049
  47 C :    0.028680
  48 C :   -0.112973
  49 C :   -0.109598
  50 C :   -0.029878
  51 C :   -0.109067
  52 H :    0.037824
  53 H :    0.006357
  54 H :    0.051678
  55 H :    0.037594
  56 H :    0.035311
  57 H :    0.036440
  58 H :    0.036927
  59 H :    0.000817
  60 H :    0.051931
  61 H :    0.061913
  62 H :    0.058617
  63 H :    0.029770
  64 H :   -0.003761
  65 H :    0.042972
  66 H :    0.030462
  67 H :    0.027379
  68 H :    0.031508
  69 H :    0.031534
  70 H :    0.001179
  71 H :    0.045824
  72 H :    0.024442
  73 H :    0.002237
  74 H :    0.039748
  75 H :    0.023504
  76 H :    0.022234
  77 H :    0.027461
  78 H :    0.027132
  79 H :    0.005345
  80 H :    0.038912
  81 H :    0.028500
  82 H :   -0.001561
  83 H :    0.044143
  84 H :    0.027678
  85 H :    0.025157
  86 H :    0.030512
  87 H :    0.030549
  88 H :   -0.004374
  89 H :    0.041882

  Mayer bond orders larger than 0.100000
B(  0-C ,  1-N ) :   1.1703 B(  0-C , 17-C ) :   1.5614 B(  0-C , 52-H ) :   0.9678
B(  1-N ,  8-C ) :   1.1656 B(  1-N , 10-C ) :   0.9393 B(  2-C , 12-C ) :   1.5636
B(  2-C , 16-C ) :   1.2903 B(  2-C , 53-H ) :   0.9789 B(  3-N , 14-C ) :   1.1828
B(  3-N , 16-C ) :   1.2011 B(  3-N , 61-H ) :   0.8964 B(  4-C ,  6-C ) :   1.3260
B(  4-C , 17-C ) :   1.3266 B(  4-C , 18-C ) :   1.1193 B(  5-N , 19-C ) :   1.3798
B(  5-N , 27-C ) :   1.4371 B(  6-C ,  8-C ) :   1.5627 B(  6-C , 54-H ) :   0.9709
B(  7-N , 30-C ) :   1.1866 B(  7-N , 38-C ) :   1.2115 B(  7-N , 62-H ) :   0.9003
B(  8-C , 55-H ) :   0.9689 B(  9-N , 41-C ) :   1.4256 B(  9-N , 49-C ) :   1.4014
B( 10-C , 56-H ) :   0.9764 B( 10-C , 57-H ) :   0.9814 B( 10-C , 58-H ) :   0.9821
B( 11-N , 20-C ) :   1.1080 B( 11-N , 24-C ) :   1.1338 B( 11-N , 25-C ) :   0.9598
B( 12-C , 14-C ) :   1.2913 B( 12-C , 59-H ) :   0.9777 B( 13-N , 31-C ) :   1.0948
B( 13-N , 35-C ) :   1.0850 B( 13-N , 36-C ) :   0.9754 B( 14-C , 18-C ) :   1.2437
B( 15-N , 42-C ) :   1.1241 B( 15-N , 46-C ) :   1.0993 B( 15-N , 47-C ) :   0.9644
B( 16-C , 51-C ) :   1.2311 B( 17-C , 60-H ) :   0.9713 B( 18-C , 19-C ) :   1.2809
B( 19-C , 21-C ) :   1.1809 B( 20-C , 28-C ) :   1.6246 B( 20-C , 63-H ) :   0.9706
B( 21-C , 26-C ) :   1.6666 B( 21-C , 64-H ) :   0.9731 B( 22-C , 23-C ) :   1.2660
B( 22-C , 28-C ) :   1.2805 B( 22-C , 29-C ) :   1.2464 B( 23-C , 24-C ) :   1.6272
B( 23-C , 65-H ) :   0.9718 B( 24-C , 66-H ) :   0.9690 B( 25-C , 67-H ) :   0.9763
B( 25-C , 68-H ) :   0.9832 B( 25-C , 69-H ) :   0.9819 B( 26-C , 27-C ) :   1.1856
B( 26-C , 70-H ) :   0.9748 B( 27-C , 29-C ) :   1.2348 B( 28-C , 71-H ) :   0.9710
B( 29-C , 30-C ) :   1.1893 B( 30-C , 32-C ) :   1.3370 B( 31-C , 39-C ) :   1.6676
B( 31-C , 72-H ) :   0.9706 B( 32-C , 37-C ) :   1.5219 B( 32-C , 73-H ) :   0.9773
B( 33-C , 34-C ) :   1.2461 B( 33-C , 39-C ) :   1.2382 B( 33-C , 40-C ) :   1.3218
B( 34-C , 35-C ) :   1.6655 B( 34-C , 74-H ) :   0.9708 B( 35-C , 75-H ) :   0.9706
B( 36-C , 76-H ) :   0.9757 B( 36-C , 77-H ) :   0.9824 B( 36-C , 78-H ) :   0.9836
B( 37-C , 38-C ) :   1.3339 B( 37-C , 79-H ) :   0.9788 B( 38-C , 40-C ) :   1.1889
B( 39-C , 80-H ) :   0.9720 B( 40-C , 41-C ) :   1.1836 B( 41-C , 43-C ) :   1.2441
B( 42-C , 50-C ) :   1.6378 B( 42-C , 81-H ) :   0.9696 B( 43-C , 48-C ) :   1.6070
B( 43-C , 82-H ) :   0.9750 B( 44-C , 45-C ) :   1.2785 B( 44-C , 50-C ) :   1.2564
B( 44-C , 51-C ) :   1.2501 B( 45-C , 46-C ) :   1.6315 B( 45-C , 83-H ) :   0.9705
B( 46-C , 84-H ) :   0.9706 B( 47-C , 85-H ) :   0.9761 B( 47-C , 86-H ) :   0.9826
B( 47-C , 87-H ) :   0.9828 B( 48-C , 49-C ) :   1.2398 B( 48-C , 88-H ) :   0.9729
B( 49-C , 51-C ) :   1.1979 B( 50-C , 89-H ) :   0.9719

MP2 TOTAL ENERGY:    -2130.892512432 Eh
FINAL SINGLE POINT ENERGY     -2130.892512432172

DIPOLE MOMENT
-------------
                                X             Y             Z
Electronic contribution:     -3.18663       3.14545      -0.05921
Nuclear contribution   :      0.04326       0.21670       0.07943
                        -----------------------------------------
Total Dipole Moment    :     -3.14337       3.36215       0.02021
                        -----------------------------------------
Magnitude (a.u.)       :      4.60274
Magnitude (Debye)      :     11.69924

Rotational constants in cm-1:     0.001499     0.001472     0.000763
Rotational constants in MHz :    44.925454    44.129169    22.864390

                             ****ORCA TERMINATED NORMALLY****
TOTAL RUN TIME: 0 days 1 hours 22 minutes 39 seconds 73 msec
