                         Program Version 5.0.4 -  RELEASE  -
|  1> ! PAL2
|  2> ! mp2 cc-pvdz TightSCF  NoKeepInts
|  3>
|  4> %scf
|  5>   MaxCore 2000
|  6> end
|  7> %mp2
|  8>   MaxCore 2000
|  9> end
| 10> * xyz 0 1
| 11>    C       -3.15000         6.42600        -0.46000
| 12>    C        1.47400         4.04100         0.05700
| 13>    C       -2.80200         4.09300         0.04900
| 14>    C       -4.07600         4.08400         0.63900
| 15>    C       -4.83900         5.23400         0.65800
| 16>    C       -5.23100         7.59000         0.11900
| 17>    C        0.13200         4.30700         0.06100
| 18>    C       -0.56900         3.05600         0.04700
| 19>    C        1.64900         2.61800         0.02300
| 20>    C       -2.35200         5.30000        -0.50800
| 21>    N       -4.37300         6.38400         0.11700
| 22>    N        0.38800         2.06700         0.02500
| 23>    N       -2.01000         0.39500        -0.07500
| 24>    N       -0.38800        -2.07400        -0.02700
| 25>    N        2.01000        -0.40100         0.06500
| 26>    C       -1.96000         2.86100         0.02400
| 27>    C       -2.62300         1.61500        -0.01800
| 28>    C       -5.57300        -4.32900         1.06600
| 29>    C       -4.07300         1.47100         0.05600
| 30>    C       -4.10600        -2.75600        -0.02600
| 31>    C       -4.99500        -2.75700        -1.11100
| 32>    C       -6.13200        -3.54200        -1.07600
| 33>    C       -7.65100        -5.11300         0.04000
| 34>    C       -4.32400         0.14100         0.03700
| 35>    C       -3.02500        -0.52000        -0.04800
| 36>    C       -4.42200        -3.56600         1.07500
| 37>    N       -6.40700        -4.31300         0.00100
| 38>    C       -2.86700        -1.92200        -0.04000
| 39>    C       -1.65000        -2.62400        -0.02700
| 40>    C        3.56800        -6.14200        -1.04000
| 41>    C       -1.47600        -4.04900        -0.03400
| 42>    C        2.80300        -4.09900        -0.00800
| 43>    C        3.65700        -4.38400         1.06900
| 44>    C        4.42700        -5.53000         1.05900
| 45>    C        5.24500        -7.58800         0.01400
| 46>    C       -0.13400        -4.31500        -0.02200
| 47>    C        0.56800        -3.06400        -0.02700
| 48>    C        2.77500        -5.01200        -1.07400
| 49>    N        4.37600        -6.39100         0.01700
| 50>    C        1.95900        -2.86900        -0.00900
| 51>    C        2.62100        -1.62200         0.00900
| 52>    C        5.54300         4.33900        -1.13000
| 53>    C        4.07000        -1.47900        -0.09400
| 54>    C        4.10400         2.75100        -0.02100
| 55>    C        5.02700         2.72900         1.03600
| 56>    C        6.16600         3.50900         0.97800
| 57>    C        7.61900         5.15300        -0.11500
| 58>    C        4.32100        -0.14800        -0.09200
| 59>    C        3.02500         0.51400         0.01500
| 60>    C        4.38700         3.58200        -1.11500
| 61>    C        2.86600         1.91600         0.01300
| 62>    N        6.41300         4.29600        -0.09500
| 63>    H       -2.83900         7.38100        -0.86500
| 64>    H        2.27400         4.76600         0.08100
| 65>    H       -4.48200         3.18100         1.07700
| 66>    H       -5.82900         5.27400         1.09300
| 67>    H       -5.88300         7.56400        -0.75700
| 68>    H       -5.82800         7.59400         1.03100
| 69>    H       -4.59400         8.47300         0.08600
| 70>    H       -0.33200         5.28200         0.06900
| 71>    H       -1.37200         5.37500        -0.96500
| 72>    H        0.18200         1.07200         0.00500
| 73>    H       -0.18300        -1.08000        -0.02100
| 74>    H       -5.86400        -4.96200         1.89500
| 75>    H       -4.79400         2.27200         0.13900
| 76>    H       -4.80000        -2.16000        -1.99400
| 77>    H       -6.84100        -3.58200        -1.89300
| 78>    H       -8.42800        -4.53600         0.54600
| 79>    H       -7.95600        -5.33700        -0.98100
| 80>    H       -7.45600        -6.03700         0.58400
| 81>    H       -5.28700        -0.34400         0.10000
| 82>    H       -3.78000        -3.60100         1.94700
| 83>    H        3.58700        -6.86800        -1.84300
| 84>    H       -2.27600        -4.77400        -0.05000
| 85>    H        3.71400        -3.72400         1.92600
| 86>    H        5.09200        -5.79500         1.87100
| 87>    H        6.20500        -7.32900        -0.43900
| 88>    H        5.39300        -7.91700         1.04200
| 89>    H        4.75900        -8.37300        -0.56400
| 90>    H        0.32900        -5.29000        -0.00800
| 91>    H        2.14600        -4.84200        -1.94000
| 92>    H        5.80800         4.98600        -1.95600
| 93>    H        4.78800        -2.28100        -0.18500
| 94>    H        4.86000         2.11400         1.91200
| 95>    H        6.90100         3.53100         1.77200
| 96>    H        7.38300         6.10900         0.35600
| 97>    H        8.41400         4.65200         0.43500
| 98>    H        7.92100         5.31000        -1.15000
| 99>    H        5.28300         0.33600        -0.17900
|100>    H        3.72000         3.63200        -1.96700
|101> *
|102>
|103>                          ****END OF INPUT****

CARTESIAN COORDINATES (ANGSTROEM)
---------------------------------
  C     -3.150000    6.426000   -0.460000
  C      1.474000    4.041000    0.057000
  C     -2.802000    4.093000    0.049000
  C     -4.076000    4.084000    0.639000
  C     -4.839000    5.234000    0.658000
  C     -5.231000    7.590000    0.119000
  C      0.132000    4.307000    0.061000
  C     -0.569000    3.056000    0.047000
  C      1.649000    2.618000    0.023000
  C     -2.352000    5.300000   -0.508000
  N     -4.373000    6.384000    0.117000
  N      0.388000    2.067000    0.025000
  N     -2.010000    0.395000   -0.075000
  N     -0.388000   -2.074000   -0.027000
  N      2.010000   -0.401000    0.065000
  C     -1.960000    2.861000    0.024000
  C     -2.623000    1.615000   -0.018000
  C     -5.573000   -4.329000    1.066000
  C     -4.073000    1.471000    0.056000
  C     -4.106000   -2.756000   -0.026000
  C     -4.995000   -2.757000   -1.111000
  C     -6.132000   -3.542000   -1.076000
  C     -7.651000   -5.113000    0.040000
  C     -4.324000    0.141000    0.037000
  C     -3.025000   -0.520000   -0.048000
  C     -4.422000   -3.566000    1.075000
  N     -6.407000   -4.313000    0.001000
  C     -2.867000   -1.922000   -0.040000
  C     -1.650000   -2.624000   -0.027000
  C      3.568000   -6.142000   -1.040000
  C     -1.476000   -4.049000   -0.034000
  C      2.803000   -4.099000   -0.008000
  C      3.657000   -4.384000    1.069000
  C      4.427000   -5.530000    1.059000
  C      5.245000   -7.588000    0.014000
  C     -0.134000   -4.315000   -0.022000
  C      0.568000   -3.064000   -0.027000
  C      2.775000   -5.012000   -1.074000
  N      4.376000   -6.391000    0.017000
  C      1.959000   -2.869000   -0.009000
  C      2.621000   -1.622000    0.009000
  C      5.543000    4.339000   -1.130000
  C      4.070000   -1.479000   -0.094000
  C      4.104000    2.751000   -0.021000
  C      5.027000    2.729000    1.036000
  C      6.166000    3.509000    0.978000
  C      7.619000    5.153000   -0.115000
  C      4.321000   -0.148000   -0.092000
  C      3.025000    0.514000    0.015000
  C      4.387000    3.582000   -1.115000
  C      2.866000    1.916000    0.013000
  N      6.413000    4.296000   -0.095000
  H     -2.839000    7.381000   -0.865000
  H      2.274000    4.766000    0.081000
  H     -4.482000    3.181000    1.077000
  H     -5.829000    5.274000    1.093000
  H     -5.883000    7.564000   -0.757000
  H     -5.828000    7.594000    1.031000
  H     -4.594000    8.473000    0.086000
  H     -0.332000    5.282000    0.069000
  H     -1.372000    5.375000   -0.965000
  H      0.182000    1.072000    0.005000
  H     -0.183000   -1.080000   -0.021000
  H     -5.864000   -4.962000    1.895000
  H     -4.794000    2.272000    0.139000
  H     -4.800000   -2.160000   -1.994000
  H     -6.841000   -3.582000   -1.893000
  H     -8.428000   -4.536000    0.546000
  H     -7.956000   -5.337000   -0.981000
  H     -7.456000   -6.037000    0.584000
  H     -5.287000   -0.344000    0.100000
  H     -3.780000   -3.601000    1.947000
  H      3.587000   -6.868000   -1.843000
  H     -2.276000   -4.774000   -0.050000
  H      3.714000   -3.724000    1.926000
  H      5.092000   -5.795000    1.871000
  H      6.205000   -7.329000   -0.439000
  H      5.393000   -7.917000    1.042000
  H      4.759000   -8.373000   -0.564000
  H      0.329000   -5.290000   -0.008000
  H      2.146000   -4.842000   -1.940000
  H      5.808000    4.986000   -1.956000
  H      4.788000   -2.281000   -0.185000
  H      4.860000    2.114000    1.912000
  H      6.901000    3.531000    1.772000
  H      7.383000    6.109000    0.356000
  H      8.414000    4.652000    0.435000
  H      7.921000    5.310000   -1.150000
  H      5.283000    0.336000   -0.179000
  H      3.720000    3.632000   -1.967000

 Total Charge           Charge          ....    0
 Multiplicity           Mult            ....    1
 Number of Electrons    NEL             ....  358
 Basis Dimension        Dim             ....  918

ORBITAL ENERGIES
----------------

  NO   OCC          E(Eh)            E(eV)
   0   2.0000     -15.673786      -426.5054
   1   2.0000     -15.634317      -425.4314
   2   2.0000     -15.631282      -425.3488
   3   2.0000     -15.591138      -424.2564
   4   2.0000     -15.524591      -422.4456
   5   2.0000     -15.516219      -422.2178
   6   2.0000     -15.452689      -420.4891
   7   2.0000     -15.441166      -420.1755
   8   2.0000     -11.324543      -308.1565
   9   2.0000     -11.324231      -308.1480
  10   2.0000     -11.323216      -308.1204
  11   2.0000     -11.299542      -307.4762
  12   2.0000     -11.297989      -307.4339
  13   2.0000     -11.292991      -307.2979
  14   2.0000     -11.290368      -307.2265
  15   2.0000     -11.287182      -307.1398
  16   2.0000     -11.286407      -307.1188
  17   2.0000     -11.276426      -306.8471
  18   2.0000     -11.273087      -306.7563
  19   2.0000     -11.259190      -306.3781
  20   2.0000     -11.258226      -306.3519
  21   2.0000     -11.256440      -306.3033
  22   2.0000     -11.254088      -306.2393
  23   2.0000     -11.237997      -305.8015
  24   2.0000     -11.236047      -305.7484
  25   2.0000     -11.231449      -305.6233
  26   2.0000     -11.230638      -305.6012
  27   2.0000     -11.229338      -305.5658
  28   2.0000     -11.229237      -305.5631
  29   2.0000     -11.209684      -305.0310
  30   2.0000     -11.208469      -304.9979
  31   2.0000     -11.199905      -304.7649
  32   2.0000     -11.192188      -304.5549
  33   2.0000     -11.190446      -304.5075
  34   2.0000     -11.189444      -304.4803
  35   2.0000     -11.189288      -304.4760
  36   2.0000     -11.188963      -304.4672
  37   2.0000     -11.186185      -304.3916
  38   2.0000     -11.185032      -304.3602
  39   2.0000     -11.172565      -304.0210
  40   2.0000     -11.172326      -304.0144
  41   2.0000     -11.170422      -303.9626
  42   2.0000     -11.167151      -303.8736
  43   2.0000     -11.161099      -303.7089
  44   2.0000     -11.159394      -303.6626
  45   2.0000     -11.158782      -303.6459
  46   2.0000     -11.157331      -303.6064
  47   2.0000     -11.154701      -303.5348
  48   2.0000     -11.148269      -303.3598
  49   2.0000     -11.139681      -303.1261
  50   2.0000     -11.132001      -302.9172
  51   2.0000     -11.122067      -302.6468
  52   2.0000      -1.355283       -36.8791
  53   2.0000      -1.321523       -35.9605
  54   2.0000      -1.319129       -35.8953
  55   2.0000      -1.284617       -34.9562
  56   2.0000      -1.225180       -33.3388
  57   2.0000      -1.210686       -32.9444
  58   2.0000      -1.171722       -31.8842
  59   2.0000      -1.151939       -31.3458
  60   2.0000      -1.139401       -31.0047
  61   2.0000      -1.110460       -30.2172
  62   2.0000      -1.108569       -30.1657
  63   2.0000      -1.080777       -29.4094
  64   2.0000      -1.077353       -29.3163
  65   2.0000      -1.045693       -28.4548
  66   2.0000      -1.043828       -28.4040
  67   2.0000      -1.038287       -28.2532
  68   2.0000      -1.014448       -27.6045
  69   2.0000      -1.014057       -27.5939
  70   2.0000      -1.009725       -27.4760
  71   2.0000      -0.992646       -27.0113
  72   2.0000      -0.986877       -26.8543
  73   2.0000      -0.979825       -26.6624
  74   2.0000      -0.972426       -26.4610
  75   2.0000      -0.960978       -26.1495
  76   2.0000      -0.953308       -25.9408
  77   2.0000      -0.946384       -25.7524
  78   2.0000      -0.935123       -25.4460
  79   2.0000      -0.919203       -25.0128
  80   2.0000      -0.906303       -24.6618
  81   2.0000      -0.893866       -24.3233
  82   2.0000      -0.874601       -23.7991
  83   2.0000      -0.871814       -23.7233
  84   2.0000      -0.869004       -23.6468
  85   2.0000      -0.856880       -23.3169
  86   2.0000      -0.841450       -22.8970
  87   2.0000      -0.835957       -22.7475
  88   2.0000      -0.824263       -22.4293
  89   2.0000      -0.797843       -21.7104
  90   2.0000      -0.791703       -21.5433
  91   2.0000      -0.750416       -20.4199
  92   2.0000      -0.742926       -20.2160
  93   2.0000      -0.732741       -19.9389
  94   2.0000      -0.724118       -19.7043
  95   2.0000      -0.721800       -19.6412
  96   2.0000      -0.715848       -19.4792
  97   2.0000      -0.711239       -19.3538
  98   2.0000      -0.707080       -19.2406
  99   2.0000      -0.696595       -18.9553
 100   2.0000      -0.696169       -18.9437
 101   2.0000      -0.684662       -18.6306
 102   2.0000      -0.680513       -18.5177
 103   2.0000      -0.679898       -18.5010
 104   2.0000      -0.678179       -18.4542
 105   2.0000      -0.673330       -18.3222
 106   2.0000      -0.669418       -18.2158
 107   2.0000      -0.660713       -17.9789
 108   2.0000      -0.656234       -17.8570
 109   2.0000      -0.653351       -17.7786
 110   2.0000      -0.650927       -17.7126
 111   2.0000      -0.643293       -17.5049
 112   2.0000      -0.641813       -17.4646
 113   2.0000      -0.640038       -17.4163
 114   2.0000      -0.637726       -17.3534
 115   2.0000      -0.627643       -17.0790
 116   2.0000      -0.624529       -16.9943
 117   2.0000      -0.619112       -16.8469
 118   2.0000      -0.612752       -16.6738
 119   2.0000      -0.612263       -16.6605
 120   2.0000      -0.611038       -16.6272
 121   2.0000      -0.607565       -16.5327
 122   2.0000      -0.600553       -16.3419
 123   2.0000      -0.586557       -15.9610
 124   2.0000      -0.581979       -15.8364
 125   2.0000      -0.580527       -15.7969
 126   2.0000      -0.579520       -15.7695
 127   2.0000      -0.575243       -15.6532
 128   2.0000      -0.567297       -15.4369
 129   2.0000      -0.559207       -15.2168
 130   2.0000      -0.551293       -15.0014
 131   2.0000      -0.547660       -14.9026
 132   2.0000      -0.542335       -14.7577
 133   2.0000      -0.540739       -14.7143
 134   2.0000      -0.538171       -14.6444
 135   2.0000      -0.535704       -14.5772
 136   2.0000      -0.528126       -14.3710
 137   2.0000      -0.522623       -14.2213
 138   2.0000      -0.516726       -14.0608
 139   2.0000      -0.513797       -13.9811
 140   2.0000      -0.512682       -13.9508
 141   2.0000      -0.511415       -13.9163
 142   2.0000      -0.509054       -13.8521
 143   2.0000      -0.503952       -13.7132
 144   2.0000      -0.501654       -13.6507
 145   2.0000      -0.496990       -13.5238
 146   2.0000      -0.492837       -13.4108
 147   2.0000      -0.483808       -13.1651
 148   2.0000      -0.479929       -13.0595
 149   2.0000      -0.466685       -12.6992
 150   2.0000      -0.466172       -12.6852
 151   2.0000      -0.457273       -12.4430
 152   2.0000      -0.450614       -12.2618
 153   2.0000      -0.445207       -12.1147
 154   2.0000      -0.441539       -12.0149
 155   2.0000      -0.431121       -11.7314
 156   2.0000      -0.428536       -11.6611
 157   2.0000      -0.414066       -11.2673
 158   2.0000      -0.404582       -11.0092
 159   2.0000      -0.388338       -10.5672
 160   2.0000      -0.383747       -10.4423
 161   2.0000      -0.378414       -10.2972
 162   2.0000      -0.369994       -10.0680
 163   2.0000      -0.356867        -9.7108
 164   2.0000      -0.355476        -9.6730
 165   2.0000      -0.340627        -9.2689
 166   2.0000      -0.337499        -9.1838
 167   2.0000      -0.326066        -8.8727
 168   2.0000      -0.324743        -8.8367
 169   2.0000      -0.304039        -8.2733
 170   2.0000      -0.299753        -8.1567
 171   2.0000      -0.285963        -7.7814
 172   2.0000      -0.281821        -7.6687
 173   2.0000      -0.262852        -7.1526
 174   2.0000      -0.242713        -6.6046
 175   2.0000      -0.189864        -5.1665
 176   2.0000      -0.180273        -4.9055
 177   2.0000      -0.075884        -2.0649
 178   2.0000      -0.058491        -1.5916
 179   0.0000       0.028487         0.7752
 180   0.0000       0.066301         1.8041
 181   0.0000       0.091169         2.4808
 182   0.0000       0.109939         2.9916
 183   0.0000       0.110365         3.0032

MULLIKEN ATOMIC CHARGES
-----------------------
   0 C :    0.210235
   1 N :   -0.456011
   2 C :   -0.066109
   3 N :   -0.337369
   4 C :   -0.048852
   5 N :   -0.564564
   6 C :   -0.108690
   7 N :   -0.340233
   8 C :    0.206962
   9 N :   -0.562300
  10 C :    0.118995
  11 N :   -0.438389
  12 C :   -0.081241
  13 N :   -0.430839
  14 C :    0.232774
  15 N :   -0.441011
  16 C :    0.228272
  17 C :   -0.120360
  18 C :   -0.194284
  19 C :    0.225258
  20 C :    0.212747
  21 C :   -0.091748
  22 C :   -0.091108
  23 C :   -0.040494
  24 C :    0.194838
  25 C :    0.114560
  26 C :   -0.082224
  27 C :    0.213247
  28 C :   -0.060780
  29 C :   -0.180566
  30 C :    0.245048
  31 C :    0.227739
  32 C :   -0.062211
  33 C :   -0.063128
  34 C :   -0.050960
  35 C :    0.225171
  36 C :    0.109011
  37 C :   -0.064561
  38 C :    0.231883
  39 C :   -0.058150
  40 C :   -0.182184
  41 C :    0.225400
  42 C :    0.197980
  43 C :   -0.072379
  44 C :   -0.089576
  45 C :   -0.060351
  46 C :    0.210611
  47 C :    0.115397
  48 C :   -0.067757
  49 C :    0.237525
  50 C :   -0.047230
  51 C :   -0.191713
  52 H :    0.039349
  53 H :   -0.016692
  54 H :    0.052324
  55 H :    0.038376
  56 H :    0.049791
  57 H :    0.048311
  58 H :    0.047582
  59 H :    0.001143
  60 H :    0.048073
  61 H :    0.171286
  62 H :    0.175162
  63 H :    0.055259
  64 H :   -0.009021
  65 H :    0.047299
  66 H :    0.055872
  67 H :    0.062310
  68 H :    0.057313
  69 H :    0.056540
  70 H :   -0.029335
  71 H :    0.044870
  72 H :    0.069469
  73 H :   -0.008570
  74 H :    0.058674
  75 H :    0.068836
  76 H :    0.073287
  77 H :    0.066753
  78 H :    0.066046
  79 H :   -0.016210
  80 H :    0.059542
  81 H :    0.054126
  82 H :   -0.024601
  83 H :    0.042110
  84 H :    0.054123
  85 H :    0.060717
  86 H :    0.055644
  87 H :    0.057088
  88 H :   -0.015156
  89 H :    0.046030
Sum of atomic charges:   -0.0000000

LOEWDIN ATOMIC CHARGES
----------------------
   0 C :   -0.019834
   1 N :    0.117251
   2 C :   -0.101328
   3 N :    0.183383
   4 C :   -0.007446
   5 N :   -0.132968
   6 C :   -0.036988
   7 N :    0.175714
   8 C :   -0.022447
   9 N :   -0.140357
  10 C :    0.024048
  11 N :    0.142028
  12 C :   -0.114903
  13 N :    0.163033
  14 C :   -0.027656
  15 N :    0.138693
  16 C :   -0.058771
  17 C :   -0.045195
  18 C :   -0.103561
  19 C :   -0.081495
  20 C :    0.003959
  21 C :   -0.122422
  22 C :    0.036791
  23 C :   -0.015071
  24 C :   -0.011499
  25 C :    0.029836
  26 C :   -0.107919
  27 C :   -0.114620
  28 C :   -0.027028
  29 C :   -0.100639
  30 C :   -0.031479
  31 C :    0.021434
  32 C :   -0.094998
  33 C :    0.076424
  34 C :   -0.015668
  35 C :    0.019471
  36 C :    0.034525
  37 C :   -0.094964
  38 C :   -0.050929
  39 C :   -0.018529
  40 C :   -0.108266
  41 C :   -0.091536
  42 C :   -0.009972
  43 C :   -0.099760
  44 C :    0.033220
  45 C :   -0.027424
  46 C :    0.001072
  47 C :    0.029477
  48 C :   -0.095794
  49 C :   -0.071706
  50 C :   -0.019482
  51 C :   -0.108579
  52 H :    0.023583
  53 H :    0.003049
  54 H :    0.039773
  55 H :    0.023449
  56 H :    0.021902
  57 H :    0.026662
  58 H :    0.027087
  59 H :    0.010867
  60 H :    0.038901
  61 H :    0.060102
  62 H :    0.061692
  63 H :    0.030685
  64 H :    0.005911
  65 H :    0.045912
  66 H :    0.029385
  67 H :    0.028173
  68 H :    0.031662
  69 H :    0.030364
  70 H :   -0.004313
  71 H :    0.043540
  72 H :    0.036846
  73 H :    0.006849
  74 H :    0.049955
  75 H :    0.036459
  76 H :    0.033953
  77 H :    0.035599
  78 H :    0.035283
  79 H :    0.003149
  80 H :    0.049967
  81 H :    0.028996
  82 H :   -0.002592
  83 H :    0.042645
  84 H :    0.029824
  85 H :    0.027307
  86 H :    0.030220
  87 H :    0.031346
  88 H :    0.002063
  89 H :    0.044621

  Mayer bond orders larger than 0.100000
B(  0-C ,  1-N ) :   1.0943 B(  0-C , 17-C ) :   1.7008 B(  0-C , 52-H ) :   0.9669
B(  1-N ,  8-C ) :   1.0870 B(  1-N , 10-C ) :   0.9769 B(  2-C , 12-C ) :   1.5071
B(  2-C , 16-C ) :   1.3561 B(  2-C , 53-H ) :   0.9751 B(  3-N , 14-C ) :   1.2188
B(  3-N , 16-C ) :   1.1893 B(  3-N , 61-H ) :   0.8990 B(  4-C ,  6-C ) :   1.2126
B(  4-C , 17-C ) :   1.2144 B(  4-C , 18-C ) :   1.4351 B(  5-N , 19-C ) :   1.4511
B(  5-N , 27-C ) :   1.3795 B(  6-C ,  8-C ) :   1.7082 B(  6-C , 54-H ) :   0.9497
B(  7-N , 30-C ) :   1.1958 B(  7-N , 38-C ) :   1.1912 B(  7-N , 62-H ) :   0.8970
B(  8-C , 55-H ) :   0.9669 B(  9-N , 41-C ) :   1.3955 B(  9-N , 49-C ) :   1.4245
B( 10-C , 56-H ) :   0.9771 B( 10-C , 57-H ) :   0.9822 B( 10-C , 58-H ) :   0.9843
B( 11-N , 20-C ) :   1.1300 B( 11-N , 24-C ) :   1.1083 B( 11-N , 25-C ) :   0.9601
B( 12-C , 14-C ) :   1.3552 B( 12-C , 59-H ) :   0.9721 B( 13-N , 31-C ) :   1.1564
B( 13-N , 35-C ) :   1.1542 B( 13-N , 36-C ) :   0.9437 B( 14-C , 18-C ) :   1.1313
B( 15-N , 42-C ) :   1.1085 B( 15-N , 46-C ) :   1.1229 B( 15-N , 47-C ) :   0.9614
B( 16-C , 51-C ) :   1.1724 B( 17-C , 60-H ) :   0.9555 B( 18-C , 19-C ) :   1.1357
B( 19-C , 21-C ) :   1.2456 B( 20-C , 28-C ) :   1.6284 B( 20-C , 63-H ) :   0.9703
B( 21-C , 26-C ) :   1.6047 B( 21-C , 64-H ) :   0.9652 B( 22-C , 23-C ) :   1.2886
B( 22-C , 28-C ) :   1.2647 B( 22-C , 29-C ) :   1.2246 B( 23-C , 24-C ) :   1.6203
B( 23-C , 65-H ) :   0.9704 B( 24-C , 66-H ) :   0.9695 B( 25-C , 67-H ) :   0.9760
B( 25-C , 68-H ) :   0.9828 B( 25-C , 69-H ) :   0.9823 B( 26-C , 27-C ) :   1.2431
B( 26-C , 70-H ) :   0.9705 B( 27-C , 29-C ) :   1.2124 B( 28-C , 71-H ) :   0.9719
B( 29-C , 30-C ) :   1.2404 B( 30-C , 32-C ) :   1.2841 B( 31-C , 39-C ) :   1.5935
B( 31-C , 72-H ) :   0.9683 B( 32-C , 37-C ) :   1.5746 B( 32-C , 73-H ) :   0.9785
B( 33-C , 34-C ) :   1.3030 B( 33-C , 39-C ) :   1.2992 B( 33-C , 40-C ) :   1.1854
B( 34-C , 35-C ) :   1.5909 B( 34-C , 74-H ) :   0.9697 B( 35-C , 75-H ) :   0.9683
B( 36-C , 76-H ) :   0.9767 B( 36-C , 77-H ) :   0.9816 B( 36-C , 78-H ) :   0.9824
B( 37-C , 38-C ) :   1.2891 B( 37-C , 79-H ) :   0.9766 B( 38-C , 40-C ) :   1.2299
B( 39-C , 80-H ) :   0.9706 B( 40-C , 41-C ) :   1.2471 B( 41-C , 43-C ) :   1.1878
B( 42-C , 50-C ) :   1.6333 B( 42-C , 81-H ) :   0.9697 B( 43-C , 48-C ) :   1.6648
B( 43-C , 82-H ) :   0.9723 B( 44-C , 45-C ) :   1.2643 B( 44-C , 50-C ) :   1.2717
B( 44-C , 51-C ) :   1.2600 B( 45-C , 46-C ) :   1.6346 B( 45-C , 83-H ) :   0.9718
B( 46-C , 84-H ) :   0.9700 B( 47-C , 85-H ) :   0.9762 B( 47-C , 86-H ) :   0.9829
B( 47-C , 87-H ) :   0.9825 B( 48-C , 49-C ) :   1.1911 B( 48-C , 88-H ) :   0.9747
B( 49-C , 51-C ) :   1.2405 B( 50-C , 89-H ) :   0.9710

MP2 TOTAL ENERGY:    -2130.878475148 Eh
FINAL SINGLE POINT ENERGY     -2130.878475148473

DIPOLE MOMENT
-------------
                                X             Y             Z
Electronic contribution:      2.48002      -3.82901      -0.11359
Nuclear contribution   :     -0.04896       0.15394       0.13447
                        -----------------------------------------
Total Dipole Moment    :      2.43106      -3.67507       0.02088
                        -----------------------------------------
Magnitude (a.u.)       :      4.40643
Magnitude (Debye)      :     11.20025

Rotational constants in cm-1:     0.001502     0.001477     0.000761
Rotational constants in MHz :    45.028073    44.271615    22.800171

                             ****ORCA TERMINATED NORMALLY****
TOTAL RUN TIME: 0 days 1 hours 12 minutes 5 seconds 906 msec
