                         Program Version 5.0.4 -  RELEASE  -
|  1> ! PAL2
|  2> ! mp2 cc-pvdz TightSCF  NoKeepInts
|  3>
|  4> %scf
|  5>   MaxCore 2000
|  6> end
|  7> %mp2
|  8>   MaxCore 2000
|  9> end
| 10> * xyz 0 1
| 11>    C       -4.39500         5.58600        -0.97900
| 12>    C        1.47400         4.04100         0.05700
| 13>    C       -2.80200         4.09300         0.04900
| 14>    C       -2.78200         4.95800         1.15400
| 15>    C       -3.56300         6.09600         1.15800
| 16>    C       -5.20700         7.60600         0.15300
| 17>    C        0.13200         4.30700         0.06100
| 18>    C       -0.56900         3.05600         0.04700
| 19>    C        1.64900         2.61800         0.02300
| 20>    C       -3.63600         4.43300        -1.02700
| 21>    N       -4.35200         6.39800         0.10100
| 22>    N        0.38800         2.06700         0.02500
| 23>    N       -2.01000         0.39500        -0.07500
| 24>    N       -0.38800        -2.07400        -0.02700
| 25>    N        2.01000        -0.40100         0.06500
| 26>    C       -1.96000         2.86100         0.02400
| 27>    C       -2.62300         1.61500        -0.01800
| 28>    C       -5.57300        -4.32900         1.06600
| 29>    C       -4.07300         1.47100         0.05600
| 30>    C       -4.10600        -2.75600        -0.02600
| 31>    C       -4.99500        -2.75700        -1.11100
| 32>    C       -6.13200        -3.54200        -1.07600
| 33>    C       -7.65100        -5.11300         0.04000
| 34>    C       -4.32400         0.14100         0.03700
| 35>    C       -3.02500        -0.52000        -0.04800
| 36>    C       -4.42200        -3.56600         1.07500
| 37>    N       -6.40700        -4.31300         0.00100
| 38>    C       -2.86700        -1.92200        -0.04000
| 39>    C       -1.65000        -2.62400        -0.02700
| 40>    C        3.56800        -6.14200        -1.04000
| 41>    C       -1.47600        -4.04900        -0.03400
| 42>    C        2.80300        -4.09900        -0.00800
| 43>    C        3.65700        -4.38400         1.06900
| 44>    C        4.42700        -5.53000         1.05900
| 45>    C        5.24500        -7.58800         0.01400
| 46>    C       -0.13400        -4.31500        -0.02200
| 47>    C        0.56800        -3.06400        -0.02700
| 48>    C        2.77500        -5.01200        -1.07400
| 49>    N        4.37600        -6.39100         0.01700
| 50>    C        1.95900        -2.86900        -0.00900
| 51>    C        2.62100        -1.62200         0.00900
| 52>    C        5.54300         4.33900        -1.13000
| 53>    C        4.07000        -1.47900        -0.09400
| 54>    C        4.10400         2.75100        -0.02100
| 55>    C        5.02700         2.72900         1.03600
| 56>    C        6.16600         3.50900         0.97800
| 57>    C        7.61900         5.15300        -0.11500
| 58>    C        4.32100        -0.14800        -0.09200
| 59>    C        3.02500         0.51400         0.01500
| 60>    C        4.38700         3.58200        -1.11500
| 61>    C        2.86600         1.91600         0.01300
| 62>    N        6.41300         4.29600        -0.09500
| 63>    H       -5.04300         5.89400        -1.79100
| 64>    H        2.27400         4.76600         0.08100
| 65>    H       -2.16600         4.74500         2.01900
| 66>    H       -3.58800         6.78800         1.99100
| 67>    H       -6.14700         7.35500         0.64900
| 68>    H       -4.68300         8.38300         0.71000
| 69>    H       -5.40000         7.94200        -0.86600
| 70>    H       -0.33200         5.28200         0.06900
| 71>    H       -3.68500         3.81300        -1.91500
| 72>    H        0.18200         1.07200         0.00500
| 73>    H       -0.18300        -1.08000        -0.02100
| 74>    H       -5.86400        -4.96200         1.89500
| 75>    H       -4.79400         2.27200         0.13900
| 76>    H       -4.80000        -2.16000        -1.99400
| 77>    H       -6.84100        -3.58200        -1.89300
| 78>    H       -8.42800        -4.53600         0.54600
| 79>    H       -7.95600        -5.33700        -0.98100
| 80>    H       -7.45600        -6.03700         0.58400
| 81>    H       -5.28700        -0.34400         0.10000
| 82>    H       -3.78000        -3.60100         1.94700
| 83>    H        3.58700        -6.86800        -1.84300
| 84>    H       -2.27600        -4.77400        -0.05000
| 85>    H        3.71400        -3.72400         1.92600
| 86>    H        5.09200        -5.79500         1.87100
| 87>    H        6.20500        -7.32900        -0.43900
| 88>    H        5.39300        -7.91700         1.04200
| 89>    H        4.75900        -8.37300        -0.56400
| 90>    H        0.32900        -5.29000        -0.00800
| 91>    H        2.14600        -4.84200        -1.94000
| 92>    H        5.80800         4.98600        -1.95600
| 93>    H        4.78800        -2.28100        -0.18500
| 94>    H        4.86000         2.11400         1.91200
| 95>    H        6.90100         3.53100         1.77200
| 96>    H        7.38300         6.10900         0.35600
| 97>    H        8.41400         4.65200         0.43500
| 98>    H        7.92100         5.31000        -1.15000
| 99>    H        5.28300         0.33600        -0.17900
|100>    H        3.72000         3.63200        -1.96700
|101> *
|102>
|103>                          ****END OF INPUT****

CARTESIAN COORDINATES (ANGSTROEM)
---------------------------------
  C     -4.395000    5.586000   -0.979000
  C      1.474000    4.041000    0.057000
  C     -2.802000    4.093000    0.049000
  C     -2.782000    4.958000    1.154000
  C     -3.563000    6.096000    1.158000
  C     -5.207000    7.606000    0.153000
  C      0.132000    4.307000    0.061000
  C     -0.569000    3.056000    0.047000
  C      1.649000    2.618000    0.023000
  C     -3.636000    4.433000   -1.027000
  N     -4.352000    6.398000    0.101000
  N      0.388000    2.067000    0.025000
  N     -2.010000    0.395000   -0.075000
  N     -0.388000   -2.074000   -0.027000
  N      2.010000   -0.401000    0.065000
  C     -1.960000    2.861000    0.024000
  C     -2.623000    1.615000   -0.018000
  C     -5.573000   -4.329000    1.066000
  C     -4.073000    1.471000    0.056000
  C     -4.106000   -2.756000   -0.026000
  C     -4.995000   -2.757000   -1.111000
  C     -6.132000   -3.542000   -1.076000
  C     -7.651000   -5.113000    0.040000
  C     -4.324000    0.141000    0.037000
  C     -3.025000   -0.520000   -0.048000
  C     -4.422000   -3.566000    1.075000
  N     -6.407000   -4.313000    0.001000
  C     -2.867000   -1.922000   -0.040000
  C     -1.650000   -2.624000   -0.027000
  C      3.568000   -6.142000   -1.040000
  C     -1.476000   -4.049000   -0.034000
  C      2.803000   -4.099000   -0.008000
  C      3.657000   -4.384000    1.069000
  C      4.427000   -5.530000    1.059000
  C      5.245000   -7.588000    0.014000
  C     -0.134000   -4.315000   -0.022000
  C      0.568000   -3.064000   -0.027000
  C      2.775000   -5.012000   -1.074000
  N      4.376000   -6.391000    0.017000
  C      1.959000   -2.869000   -0.009000
  C      2.621000   -1.622000    0.009000
  C      5.543000    4.339000   -1.130000
  C      4.070000   -1.479000   -0.094000
  C      4.104000    2.751000   -0.021000
  C      5.027000    2.729000    1.036000
  C      6.166000    3.509000    0.978000
  C      7.619000    5.153000   -0.115000
  C      4.321000   -0.148000   -0.092000
  C      3.025000    0.514000    0.015000
  C      4.387000    3.582000   -1.115000
  C      2.866000    1.916000    0.013000
  N      6.413000    4.296000   -0.095000
  H     -5.043000    5.894000   -1.791000
  H      2.274000    4.766000    0.081000
  H     -2.166000    4.745000    2.019000
  H     -3.588000    6.788000    1.991000
  H     -6.147000    7.355000    0.649000
  H     -4.683000    8.383000    0.710000
  H     -5.400000    7.942000   -0.866000
  H     -0.332000    5.282000    0.069000
  H     -3.685000    3.813000   -1.915000
  H      0.182000    1.072000    0.005000
  H     -0.183000   -1.080000   -0.021000
  H     -5.864000   -4.962000    1.895000
  H     -4.794000    2.272000    0.139000
  H     -4.800000   -2.160000   -1.994000
  H     -6.841000   -3.582000   -1.893000
  H     -8.428000   -4.536000    0.546000
  H     -7.956000   -5.337000   -0.981000
  H     -7.456000   -6.037000    0.584000
  H     -5.287000   -0.344000    0.100000
  H     -3.780000   -3.601000    1.947000
  H      3.587000   -6.868000   -1.843000
  H     -2.276000   -4.774000   -0.050000
  H      3.714000   -3.724000    1.926000
  H      5.092000   -5.795000    1.871000
  H      6.205000   -7.329000   -0.439000
  H      5.393000   -7.917000    1.042000
  H      4.759000   -8.373000   -0.564000
  H      0.329000   -5.290000   -0.008000
  H      2.146000   -4.842000   -1.940000
  H      5.808000    4.986000   -1.956000
  H      4.788000   -2.281000   -0.185000
  H      4.860000    2.114000    1.912000
  H      6.901000    3.531000    1.772000
  H      7.383000    6.109000    0.356000
  H      8.414000    4.652000    0.435000
  H      7.921000    5.310000   -1.150000
  H      5.283000    0.336000   -0.179000
  H      3.720000    3.632000   -1.967000

 Total Charge           Charge          ....    0
 Multiplicity           Mult            ....    1
 Number of Electrons    NEL             ....  358
 Basis Dimension        Dim             ....  918

ORBITAL ENERGIES
----------------

  NO   OCC          E(Eh)            E(eV)
   0   2.0000     -15.640000      -425.5860
   1   2.0000     -15.638611      -425.5482
   2   2.0000     -15.627705      -425.2515
   3   2.0000     -15.627559      -425.2475
   4   2.0000     -15.516353      -422.2214
   5   2.0000     -15.515802      -422.2064
   6   2.0000     -15.445072      -420.2818
   7   2.0000     -15.440655      -420.1616
   8   2.0000     -11.302984      -307.5698
   9   2.0000     -11.302566      -307.5585
  10   2.0000     -11.295450      -307.3648
  11   2.0000     -11.295416      -307.3639
  12   2.0000     -11.295264      -307.3598
  13   2.0000     -11.294455      -307.3377
  14   2.0000     -11.294411      -307.3366
  15   2.0000     -11.293555      -307.3132
  16   2.0000     -11.286241      -307.1142
  17   2.0000     -11.285240      -307.0870
  18   2.0000     -11.283960      -307.0522
  19   2.0000     -11.283277      -307.0336
  20   2.0000     -11.243280      -305.9452
  21   2.0000     -11.242393      -305.9211
  22   2.0000     -11.234836      -305.7154
  23   2.0000     -11.234140      -305.6965
  24   2.0000     -11.233551      -305.6805
  25   2.0000     -11.233152      -305.6696
  26   2.0000     -11.232459      -305.6508
  27   2.0000     -11.231935      -305.6365
  28   2.0000     -11.225887      -305.4719
  29   2.0000     -11.225593      -305.4639
  30   2.0000     -11.225495      -305.4612
  31   2.0000     -11.225037      -305.4488
  32   2.0000     -11.196976      -304.6852
  33   2.0000     -11.196681      -304.6772
  34   2.0000     -11.196236      -304.6651
  35   2.0000     -11.195938      -304.6570
  36   2.0000     -11.174193      -304.0652
  37   2.0000     -11.174142      -304.0639
  38   2.0000     -11.171273      -303.9858
  39   2.0000     -11.170333      -303.9602
  40   2.0000     -11.166377      -303.8526
  41   2.0000     -11.166304      -303.8506
  42   2.0000     -11.165227      -303.8213
  43   2.0000     -11.164978      -303.8145
  44   2.0000     -11.156838      -303.5930
  45   2.0000     -11.155780      -303.5642
  46   2.0000     -11.154210      -303.5215
  47   2.0000     -11.153707      -303.5078
  48   2.0000     -11.145783      -303.2922
  49   2.0000     -11.144308      -303.2520
  50   2.0000     -11.137376      -303.0634
  51   2.0000     -11.135913      -303.0236
  52   2.0000      -1.326317       -36.0909
  53   2.0000      -1.325201       -36.0605
  54   2.0000      -1.315725       -35.8027
  55   2.0000      -1.315594       -35.7991
  56   2.0000      -1.215294       -33.0698
  57   2.0000      -1.213237       -33.0138
  58   2.0000      -1.162289       -31.6275
  59   2.0000      -1.154313       -31.4105
  60   2.0000      -1.115757       -30.3613
  61   2.0000      -1.111404       -30.2428
  62   2.0000      -1.106515       -30.1098
  63   2.0000      -1.102665       -30.0050
  64   2.0000      -1.050048       -28.5733
  65   2.0000      -1.049247       -28.5515
  66   2.0000      -1.040386       -28.3104
  67   2.0000      -1.040127       -28.3033
  68   2.0000      -1.025963       -27.9179
  69   2.0000      -1.010614       -27.5002
  70   2.0000      -1.007363       -27.4117
  71   2.0000      -0.998548       -27.1719
  72   2.0000      -0.979085       -26.6422
  73   2.0000      -0.977328       -26.5944
  74   2.0000      -0.967277       -26.3209
  75   2.0000      -0.962119       -26.1806
  76   2.0000      -0.951432       -25.8898
  77   2.0000      -0.944342       -25.6968
  78   2.0000      -0.937124       -25.5004
  79   2.0000      -0.923162       -25.1205
  80   2.0000      -0.891676       -24.2637
  81   2.0000      -0.877478       -23.8774
  82   2.0000      -0.875321       -23.8187
  83   2.0000      -0.868482       -23.6326
  84   2.0000      -0.865980       -23.5645
  85   2.0000      -0.856416       -23.3043
  86   2.0000      -0.850200       -23.1351
  87   2.0000      -0.842288       -22.9198
  88   2.0000      -0.821929       -22.3658
  89   2.0000      -0.797818       -21.7097
  90   2.0000      -0.797610       -21.7041
  91   2.0000      -0.738846       -20.1050
  92   2.0000      -0.727776       -19.8038
  93   2.0000      -0.727187       -19.7878
  94   2.0000      -0.722819       -19.6689
  95   2.0000      -0.717673       -19.5289
  96   2.0000      -0.711371       -19.3574
  97   2.0000      -0.710655       -19.3379
  98   2.0000      -0.697605       -18.9828
  99   2.0000      -0.690683       -18.7944
 100   2.0000      -0.683300       -18.5935
 101   2.0000      -0.680995       -18.5308
 102   2.0000      -0.679473       -18.4894
 103   2.0000      -0.672959       -18.3121
 104   2.0000      -0.669060       -18.2060
 105   2.0000      -0.667945       -18.1757
 106   2.0000      -0.661399       -17.9976
 107   2.0000      -0.659441       -17.9443
 108   2.0000      -0.656954       -17.8766
 109   2.0000      -0.654305       -17.8045
 110   2.0000      -0.651636       -17.7319
 111   2.0000      -0.650735       -17.7074
 112   2.0000      -0.648189       -17.6381
 113   2.0000      -0.646762       -17.5993
 114   2.0000      -0.633832       -17.2474
 115   2.0000      -0.623192       -16.9579
 116   2.0000      -0.616867       -16.7858
 117   2.0000      -0.616000       -16.7622
 118   2.0000      -0.610257       -16.6059
 119   2.0000      -0.608095       -16.5471
 120   2.0000      -0.607726       -16.5371
 121   2.0000      -0.606888       -16.5143
 122   2.0000      -0.602201       -16.3867
 123   2.0000      -0.594652       -16.1813
 124   2.0000      -0.585503       -15.9323
 125   2.0000      -0.584458       -15.9039
 126   2.0000      -0.577659       -15.7189
 127   2.0000      -0.577385       -15.7115
 128   2.0000      -0.568115       -15.4592
 129   2.0000      -0.564607       -15.3637
 130   2.0000      -0.553235       -15.0543
 131   2.0000      -0.541524       -14.7356
 132   2.0000      -0.540847       -14.7172
 133   2.0000      -0.534757       -14.5515
 134   2.0000      -0.534079       -14.5330
 135   2.0000      -0.530065       -14.4238
 136   2.0000      -0.524490       -14.2721
 137   2.0000      -0.522619       -14.2212
 138   2.0000      -0.517694       -14.0872
 139   2.0000      -0.514216       -13.9925
 140   2.0000      -0.509945       -13.8763
 141   2.0000      -0.507603       -13.8126
 142   2.0000      -0.503135       -13.6910
 143   2.0000      -0.501905       -13.6575
 144   2.0000      -0.497671       -13.5423
 145   2.0000      -0.497205       -13.5296
 146   2.0000      -0.496035       -13.4978
 147   2.0000      -0.494589       -13.4585
 148   2.0000      -0.490574       -13.3492
 149   2.0000      -0.467825       -12.7302
 150   2.0000      -0.459702       -12.5091
 151   2.0000      -0.451038       -12.2734
 152   2.0000      -0.446077       -12.1384
 153   2.0000      -0.445756       -12.1296
 154   2.0000      -0.444433       -12.0936
 155   2.0000      -0.439506       -11.9596
 156   2.0000      -0.434963       -11.8359
 157   2.0000      -0.429851       -11.6969
 158   2.0000      -0.388930       -10.5833
 159   2.0000      -0.383131       -10.4255
 160   2.0000      -0.375556       -10.2194
 161   2.0000      -0.373827       -10.1724
 162   2.0000      -0.360273        -9.8035
 163   2.0000      -0.359666        -9.7870
 164   2.0000      -0.352242        -9.5850
 165   2.0000      -0.351815        -9.5734
 166   2.0000      -0.337561        -9.1855
 167   2.0000      -0.332632        -9.0514
 168   2.0000      -0.326777        -8.8920
 169   2.0000      -0.300181        -8.1683
 170   2.0000      -0.291916        -7.9434
 171   2.0000      -0.291014        -7.9189
 172   2.0000      -0.287045        -7.8109
 173   2.0000      -0.255316        -6.9475
 174   2.0000      -0.245984        -6.6936
 175   2.0000      -0.187191        -5.0937
 176   2.0000      -0.176887        -4.8133
 177   2.0000      -0.064435        -1.7534
 178   2.0000      -0.053622        -1.4591
 179   0.0000       0.031949         0.8694
 180   0.0000       0.070228         1.9110
 181   0.0000       0.092794         2.5250
 182   0.0000       0.095606         2.6016
 183   0.0000       0.133651         3.6368

MULLIKEN ATOMIC CHARGES
-----------------------
   0 C :    0.209191
   1 N :   -0.438350
   2 C :   -0.065971
   3 N :   -0.339051
   4 C :   -0.081207
   5 N :   -0.562888
   6 C :   -0.052566
   7 N :   -0.337966
   8 C :    0.206749
   9 N :   -0.563428
  10 C :    0.112965
  11 N :   -0.437207
  12 C :   -0.066021
  13 N :   -0.441344
  14 C :    0.232466
  15 N :   -0.440701
  16 C :    0.238718
  17 C :   -0.054797
  18 C :   -0.191282
  19 C :    0.225940
  20 C :    0.206255
  21 C :   -0.072363
  22 C :   -0.085320
  23 C :   -0.051579
  24 C :    0.209023
  25 C :    0.113637
  26 C :   -0.072939
  27 C :    0.226655
  28 C :   -0.050010
  29 C :   -0.186881
  30 C :    0.233277
  31 C :    0.207884
  32 C :   -0.065004
  33 C :   -0.084403
  34 C :   -0.049747
  35 C :    0.200207
  36 C :    0.115100
  37 C :   -0.067066
  38 C :    0.238511
  39 C :   -0.062319
  40 C :   -0.191171
  41 C :    0.219411
  42 C :    0.204719
  43 C :   -0.074350
  44 C :   -0.088825
  45 C :   -0.050664
  46 C :    0.200902
  47 C :    0.115706
  48 C :   -0.076336
  49 C :    0.223109
  50 C :   -0.054684
  51 C :   -0.190303
  52 H :    0.057831
  53 H :   -0.013448
  54 H :    0.048243
  55 H :    0.056934
  56 H :    0.062945
  57 H :    0.059438
  58 H :    0.058350
  59 H :   -0.015706
  60 H :    0.046302
  61 H :    0.173275
  62 H :    0.172281
  63 H :    0.057060
  64 H :   -0.022898
  65 H :    0.046235
  66 H :    0.058002
  67 H :    0.063035
  68 H :    0.058309
  69 H :    0.059472
  70 H :   -0.023414
  71 H :    0.048735
  72 H :    0.053634
  73 H :   -0.015131
  74 H :    0.044200
  75 H :    0.052587
  76 H :    0.059684
  77 H :    0.056360
  78 H :    0.055529
  79 H :   -0.013324
  80 H :    0.044351
  81 H :    0.053316
  82 H :   -0.023830
  83 H :    0.043056
  84 H :    0.052676
  85 H :    0.058413
  86 H :    0.056371
  87 H :    0.056490
  88 H :   -0.023558
  89 H :    0.044510
Sum of atomic charges:   -0.0000000

LOEWDIN ATOMIC CHARGES
----------------------
   0 C :    0.000826
   1 N :    0.143979
   2 C :   -0.100791
   3 N :    0.176807
   4 C :    0.043522
   5 N :   -0.139301
   6 C :   -0.020732
   7 N :    0.177362
   8 C :   -0.000967
   9 N :   -0.138717
  10 C :    0.030598
  11 N :    0.145373
  12 C :   -0.100979
  13 N :    0.137768
  14 C :   -0.047378
  15 N :    0.138288
  16 C :   -0.042055
  17 C :   -0.022939
  18 C :   -0.110126
  19 C :   -0.087734
  20 C :   -0.000756
  21 C :   -0.103649
  22 C :    0.044636
  23 C :   -0.022071
  24 C :    0.001822
  25 C :    0.030590
  26 C :   -0.102947
  27 C :   -0.089215
  28 C :   -0.019506
  29 C :   -0.108443
  30 C :   -0.049007
  31 C :   -0.002371
  32 C :   -0.099037
  33 C :    0.033904
  34 C :   -0.020520
  35 C :   -0.009018
  36 C :    0.028746
  37 C :   -0.101968
  38 C :   -0.039167
  39 C :   -0.026757
  40 C :   -0.109427
  41 C :   -0.094701
  42 C :   -0.004312
  43 C :   -0.106443
  44 C :    0.034004
  45 C :   -0.021271
  46 C :   -0.007620
  47 C :    0.029164
  48 C :   -0.107025
  49 C :   -0.093663
  50 C :   -0.024269
  51 C :   -0.109069
  52 H :    0.031007
  53 H :    0.004611
  54 H :    0.045371
  55 H :    0.031149
  56 H :    0.028437
  57 H :    0.031660
  58 H :    0.032171
  59 H :    0.003636
  60 H :    0.044864
  61 H :    0.060774
  62 H :    0.060170
  63 H :    0.031191
  64 H :   -0.001320
  65 H :    0.044938
  66 H :    0.030839
  67 H :    0.028656
  68 H :    0.032113
  69 H :    0.031646
  70 H :   -0.001666
  71 H :    0.045806
  72 H :    0.029464
  73 H :    0.003702
  74 H :    0.043915
  75 H :    0.028669
  76 H :    0.026917
  77 H :    0.030716
  78 H :    0.030365
  79 H :    0.004648
  80 H :    0.043311
  81 H :    0.028915
  82 H :   -0.001981
  83 H :    0.043611
  84 H :    0.028828
  85 H :    0.026260
  86 H :    0.030467
  87 H :    0.031052
  88 H :   -0.001934
  89 H :    0.043581

  Mayer bond orders larger than 0.100000
B(  0-C ,  1-N ) :   1.1263 B(  0-C , 17-C ) :   1.6223 B(  0-C , 52-H ) :   0.9690
B(  1-N ,  8-C ) :   1.1216 B(  1-N , 10-C ) :   0.9577 B(  2-C , 12-C ) :   1.5409
B(  2-C , 16-C ) :   1.3168 B(  2-C , 53-H ) :   0.9781 B(  3-N , 14-C ) :   1.1987
B(  3-N , 16-C ) :   1.1963 B(  3-N , 61-H ) :   0.8981 B(  4-C ,  6-C ) :   1.2740
B(  4-C , 17-C ) :   1.2774 B(  4-C , 18-C ) :   1.2414 B(  5-N , 19-C ) :   1.4120
B(  5-N , 27-C ) :   1.4112 B(  6-C ,  8-C ) :   1.6256 B(  6-C , 54-H ) :   0.9712
B(  7-N , 30-C ) :   1.1909 B(  7-N , 38-C ) :   1.2040 B(  7-N , 62-H ) :   0.8986
B(  8-C , 55-H ) :   0.9701 B(  9-N , 41-C ) :   1.4109 B(  9-N , 49-C ) :   1.4141
B( 10-C , 56-H ) :   0.9763 B( 10-C , 57-H ) :   0.9823 B( 10-C , 58-H ) :   0.9829
B( 11-N , 20-C ) :   1.1230 B( 11-N , 24-C ) :   1.1273 B( 11-N , 25-C ) :   0.9576
B( 12-C , 14-C ) :   1.3181 B( 12-C , 59-H ) :   0.9777 B( 13-N , 31-C ) :   1.1186
B( 13-N , 35-C ) :   1.1102 B( 13-N , 36-C ) :   0.9629 B( 14-C , 18-C ) :   1.2057
B( 15-N , 42-C ) :   1.1175 B( 15-N , 46-C ) :   1.1117 B( 15-N , 47-C ) :   0.9626
B( 16-C , 51-C ) :   1.2069 B( 17-C , 60-H ) :   0.9710 B( 18-C , 19-C ) :   1.2251
B( 19-C , 21-C ) :   1.2076 B( 20-C , 28-C ) :   1.6213 B( 20-C , 63-H ) :   0.9702
B( 21-C , 26-C ) :   1.6451 B( 21-C , 64-H ) :   0.9737 B( 22-C , 23-C ) :   1.2814
B( 22-C , 28-C ) :   1.2777 B( 22-C , 29-C ) :   1.2301 B( 23-C , 24-C ) :   1.6181
B( 23-C , 65-H ) :   0.9711 B( 24-C , 66-H ) :   0.9690 B( 25-C , 67-H ) :   0.9762
B( 25-C , 68-H ) :   0.9830 B( 25-C , 69-H ) :   0.9820 B( 26-C , 27-C ) :   1.2059
B( 26-C , 70-H ) :   0.9735 B( 27-C , 29-C ) :   1.2295 B( 28-C , 71-H ) :   0.9713
B( 29-C , 30-C ) :   1.2094 B( 30-C , 32-C ) :   1.3153 B( 31-C , 39-C ) :   1.6378
B( 31-C , 72-H ) :   0.9698 B( 32-C , 37-C ) :   1.5431 B( 32-C , 73-H ) :   0.9776
B( 33-C , 34-C ) :   1.2697 B( 33-C , 39-C ) :   1.2620 B( 33-C , 40-C ) :   1.2627
B( 34-C , 35-C ) :   1.6349 B( 34-C , 74-H ) :   0.9705 B( 35-C , 75-H ) :   0.9698
B( 36-C , 76-H ) :   0.9762 B( 36-C , 77-H ) :   0.9821 B( 36-C , 78-H ) :   0.9832
B( 37-C , 38-C ) :   1.3159 B( 37-C , 79-H ) :   0.9780 B( 38-C , 40-C ) :   1.2057
B( 39-C , 80-H ) :   0.9716 B( 40-C , 41-C ) :   1.2105 B( 41-C , 43-C ) :   1.2216
B( 42-C , 50-C ) :   1.6343 B( 42-C , 81-H ) :   0.9696 B( 43-C , 48-C ) :   1.6296
B( 43-C , 82-H ) :   0.9739 B( 44-C , 45-C ) :   1.2722 B( 44-C , 50-C ) :   1.2650
B( 44-C , 51-C ) :   1.2553 B( 45-C , 46-C ) :   1.6322 B( 45-C , 83-H ) :   0.9710
B( 46-C , 84-H ) :   0.9703 B( 47-C , 85-H ) :   0.9761 B( 47-C , 86-H ) :   0.9828
B( 47-C , 87-H ) :   0.9826 B( 48-C , 49-C ) :   1.2205 B( 48-C , 88-H ) :   0.9736
B( 49-C , 51-C ) :   1.2127 B( 50-C , 89-H ) :   0.9714

MP2 TOTAL ENERGY:    -2130.912135603 Eh
FINAL SINGLE POINT ENERGY     -2130.912135603363

DIPOLE MOMENT
-------------
                                X             Y             Z
Electronic contribution:     -0.87449      -0.05494      -0.19786
Nuclear contribution   :     -0.00357       0.18432       0.22508
                        -----------------------------------------
Total Dipole Moment    :     -0.87805       0.12939       0.02723
                        -----------------------------------------
Magnitude (a.u.)       :      0.88795
Magnitude (Debye)      :      2.25700

Rotational constants in cm-1:     0.001498     0.001474     0.000762
Rotational constants in MHz :    44.909360    44.186537    22.853504

                             ****ORCA TERMINATED NORMALLY****
TOTAL RUN TIME: 0 days 1 hours 32 minutes 7 seconds 941 msec
