                         Program Version 5.0.4 -  RELEASE  -
|  1> ! PAL2
|  2> ! mp2 cc-pvdz TightSCF  NoKeepInts
|  3>
|  4> %scf
|  5>   MaxCore 2000
|  6> end
|  7> %mp2
|  8>   MaxCore 2000
|  9> end
| 10> * xyz 0 1
| 11>    C       -4.36100         5.56600         1.15500
| 12>    C        1.47400         4.04100         0.05700
| 13>    C       -2.80200         4.09300         0.04900
| 14>    C       -2.84200         4.96100        -1.05300
| 15>    C       -3.63100         6.09400        -1.01500
| 16>    C       -5.18300         7.62300         0.10100
| 17>    C        0.13200         4.30700         0.06100
| 18>    C       -0.56900         3.05600         0.04700
| 19>    C        1.64900         2.61800         0.02300
| 20>    C       -3.58400         4.42400         1.16600
| 21>    N       -4.37800         6.38100         0.07600
| 22>    N        0.38800         2.06700         0.02500
| 23>    N       -2.01000         0.39500        -0.07500
| 24>    N       -0.38800        -2.07400        -0.02700
| 25>    N        2.01000        -0.40100         0.06500
| 26>    C       -1.96000         2.86100         0.02400
| 27>    C       -2.62300         1.61500        -0.01800
| 28>    C       -5.57300        -4.32900         1.06600
| 29>    C       -4.07300         1.47100         0.05600
| 30>    C       -4.10600        -2.75600        -0.02600
| 31>    C       -4.99500        -2.75700        -1.11100
| 32>    C       -6.13200        -3.54200        -1.07600
| 33>    C       -7.65100        -5.11300         0.04000
| 34>    C       -4.32400         0.14100         0.03700
| 35>    C       -3.02500        -0.52000        -0.04800
| 36>    C       -4.42200        -3.56600         1.07500
| 37>    N       -6.40700        -4.31300         0.00100
| 38>    C       -2.86700        -1.92200        -0.04000
| 39>    C       -1.65000        -2.62400        -0.02700
| 40>    C        3.56800        -6.14200        -1.04000
| 41>    C       -1.47600        -4.04900        -0.03400
| 42>    C        2.80300        -4.09900        -0.00800
| 43>    C        3.65700        -4.38400         1.06900
| 44>    C        4.42700        -5.53000         1.05900
| 45>    C        5.24500        -7.58800         0.01400
| 46>    C       -0.13400        -4.31500        -0.02200
| 47>    C        0.56800        -3.06400        -0.02700
| 48>    C        2.77500        -5.01200        -1.07400
| 49>    N        4.37600        -6.39100         0.01700
| 50>    C        1.95900        -2.86900        -0.00900
| 51>    C        2.62100        -1.62200         0.00900
| 52>    C        5.54300         4.33900        -1.13000
| 53>    C        4.07000        -1.47900        -0.09400
| 54>    C        4.10400         2.75100        -0.02100
| 55>    C        5.02700         2.72900         1.03600
| 56>    C        6.16600         3.50900         0.97800
| 57>    C        7.61900         5.15300        -0.11500
| 58>    C        4.32100        -0.14800        -0.09200
| 59>    C        3.02500         0.51400         0.01500
| 60>    C        4.38700         3.58200        -1.11500
| 61>    C        2.86600         1.91600         0.01300
| 62>    N        6.41300         4.29600        -0.09500
| 63>    H       -4.98900         5.85400         1.98900
| 64>    H        2.27400         4.76600         0.08100
| 65>    H       -2.25400         4.76500        -1.94100
| 66>    H       -3.68700         6.79700        -1.83600
| 67>    H       -4.55400         8.44800         0.44300
| 68>    H       -5.55000         7.82300        -0.90600
| 69>    H       -6.02200         7.48300         0.78200
| 70>    H       -0.33200         5.28200         0.06900
| 71>    H       -3.60700         3.78600         2.04300
| 72>    H        0.18200         1.07200         0.00500
| 73>    H       -0.18300        -1.08000        -0.02100
| 74>    H       -5.86400        -4.96200         1.89500
| 75>    H       -4.79400         2.27200         0.13900
| 76>    H       -4.80000        -2.16000        -1.99400
| 77>    H       -6.84100        -3.58200        -1.89300
| 78>    H       -8.42800        -4.53600         0.54600
| 79>    H       -7.95600        -5.33700        -0.98100
| 80>    H       -7.45600        -6.03700         0.58400
| 81>    H       -5.28700        -0.34400         0.10000
| 82>    H       -3.78000        -3.60100         1.94700
| 83>    H        3.58700        -6.86800        -1.84300
| 84>    H       -2.27600        -4.77400        -0.05000
| 85>    H        3.71400        -3.72400         1.92600
| 86>    H        5.09200        -5.79500         1.87100
| 87>    H        6.20500        -7.32900        -0.43900
| 88>    H        5.39300        -7.91700         1.04200
| 89>    H        4.75900        -8.37300        -0.56400
| 90>    H        0.32900        -5.29000        -0.00800
| 91>    H        2.14600        -4.84200        -1.94000
| 92>    H        5.80800         4.98600        -1.95600
| 93>    H        4.78800        -2.28100        -0.18500
| 94>    H        4.86000         2.11400         1.91200
| 95>    H        6.90100         3.53100         1.77200
| 96>    H        7.38300         6.10900         0.35600
| 97>    H        8.41400         4.65200         0.43500
| 98>    H        7.92100         5.31000        -1.15000
| 99>    H        5.28300         0.33600        -0.17900
|100>    H        3.72000         3.63200        -1.96700
|101> *
|102>
|103>                          ****END OF INPUT****

CARTESIAN COORDINATES (ANGSTROEM)
---------------------------------
  C     -4.361000    5.566000    1.155000
  C      1.474000    4.041000    0.057000
  C     -2.802000    4.093000    0.049000
  C     -2.842000    4.961000   -1.053000
  C     -3.631000    6.094000   -1.015000
  C     -5.183000    7.623000    0.101000
  C      0.132000    4.307000    0.061000
  C     -0.569000    3.056000    0.047000
  C      1.649000    2.618000    0.023000
  C     -3.584000    4.424000    1.166000
  N     -4.378000    6.381000    0.076000
  N      0.388000    2.067000    0.025000
  N     -2.010000    0.395000   -0.075000
  N     -0.388000   -2.074000   -0.027000
  N      2.010000   -0.401000    0.065000
  C     -1.960000    2.861000    0.024000
  C     -2.623000    1.615000   -0.018000
  C     -5.573000   -4.329000    1.066000
  C     -4.073000    1.471000    0.056000
  C     -4.106000   -2.756000   -0.026000
  C     -4.995000   -2.757000   -1.111000
  C     -6.132000   -3.542000   -1.076000
  C     -7.651000   -5.113000    0.040000
  C     -4.324000    0.141000    0.037000
  C     -3.025000   -0.520000   -0.048000
  C     -4.422000   -3.566000    1.075000
  N     -6.407000   -4.313000    0.001000
  C     -2.867000   -1.922000   -0.040000
  C     -1.650000   -2.624000   -0.027000
  C      3.568000   -6.142000   -1.040000
  C     -1.476000   -4.049000   -0.034000
  C      2.803000   -4.099000   -0.008000
  C      3.657000   -4.384000    1.069000
  C      4.427000   -5.530000    1.059000
  C      5.245000   -7.588000    0.014000
  C     -0.134000   -4.315000   -0.022000
  C      0.568000   -3.064000   -0.027000
  C      2.775000   -5.012000   -1.074000
  N      4.376000   -6.391000    0.017000
  C      1.959000   -2.869000   -0.009000
  C      2.621000   -1.622000    0.009000
  C      5.543000    4.339000   -1.130000
  C      4.070000   -1.479000   -0.094000
  C      4.104000    2.751000   -0.021000
  C      5.027000    2.729000    1.036000
  C      6.166000    3.509000    0.978000
  C      7.619000    5.153000   -0.115000
  C      4.321000   -0.148000   -0.092000
  C      3.025000    0.514000    0.015000
  C      4.387000    3.582000   -1.115000
  C      2.866000    1.916000    0.013000
  N      6.413000    4.296000   -0.095000
  H     -4.989000    5.854000    1.989000
  H      2.274000    4.766000    0.081000
  H     -2.254000    4.765000   -1.941000
  H     -3.687000    6.797000   -1.836000
  H     -4.554000    8.448000    0.443000
  H     -5.550000    7.823000   -0.906000
  H     -6.022000    7.483000    0.782000
  H     -0.332000    5.282000    0.069000
  H     -3.607000    3.786000    2.043000
  H      0.182000    1.072000    0.005000
  H     -0.183000   -1.080000   -0.021000
  H     -5.864000   -4.962000    1.895000
  H     -4.794000    2.272000    0.139000
  H     -4.800000   -2.160000   -1.994000
  H     -6.841000   -3.582000   -1.893000
  H     -8.428000   -4.536000    0.546000
  H     -7.956000   -5.337000   -0.981000
  H     -7.456000   -6.037000    0.584000
  H     -5.287000   -0.344000    0.100000
  H     -3.780000   -3.601000    1.947000
  H      3.587000   -6.868000   -1.843000
  H     -2.276000   -4.774000   -0.050000
  H      3.714000   -3.724000    1.926000
  H      5.092000   -5.795000    1.871000
  H      6.205000   -7.329000   -0.439000
  H      5.393000   -7.917000    1.042000
  H      4.759000   -8.373000   -0.564000
  H      0.329000   -5.290000   -0.008000
  H      2.146000   -4.842000   -1.940000
  H      5.808000    4.986000   -1.956000
  H      4.788000   -2.281000   -0.185000
  H      4.860000    2.114000    1.912000
  H      6.901000    3.531000    1.772000
  H      7.383000    6.109000    0.356000
  H      8.414000    4.652000    0.435000
  H      7.921000    5.310000   -1.150000
  H      5.283000    0.336000   -0.179000
  H      3.720000    3.632000   -1.967000

 Total Charge           Charge          ....    0
 Multiplicity           Mult            ....    1
 Number of Electrons    NEL             ....  358
 Basis Dimension        Dim             ....  918

ORBITAL ENERGIES
----------------

  NO   OCC          E(Eh)            E(eV)
   0   2.0000     -15.659880      -426.1270
   1   2.0000     -15.638193      -425.5369
   2   2.0000     -15.626189      -425.2102
   3   2.0000     -15.611657      -424.8148
   4   2.0000     -15.517741      -422.2592
   5   2.0000     -15.512745      -422.1233
   6   2.0000     -15.446582      -420.3229
   7   2.0000     -15.436814      -420.0571
   8   2.0000     -11.315222      -307.9028
   9   2.0000     -11.311521      -307.8021
  10   2.0000     -11.310650      -307.7784
  11   2.0000     -11.301959      -307.5419
  12   2.0000     -11.295142      -307.3564
  13   2.0000     -11.294306      -307.3337
  14   2.0000     -11.291725      -307.2635
  15   2.0000     -11.285440      -307.0924
  16   2.0000     -11.285223      -307.0865
  17   2.0000     -11.281177      -306.9764
  18   2.0000     -11.272676      -306.7451
  19   2.0000     -11.269856      -306.6684
  20   2.0000     -11.261174      -306.4321
  21   2.0000     -11.248737      -306.0937
  22   2.0000     -11.247947      -306.0722
  23   2.0000     -11.241411      -305.8944
  24   2.0000     -11.233366      -305.6754
  25   2.0000     -11.232531      -305.6527
  26   2.0000     -11.230420      -305.5953
  27   2.0000     -11.224599      -305.4369
  28   2.0000     -11.224355      -305.4302
  29   2.0000     -11.217331      -305.2391
  30   2.0000     -11.214199      -305.1539
  31   2.0000     -11.213365      -305.1312
  32   2.0000     -11.200265      -304.7747
  33   2.0000     -11.200075      -304.7695
  34   2.0000     -11.191423      -304.5341
  35   2.0000     -11.191174      -304.5273
  36   2.0000     -11.180079      -304.2254
  37   2.0000     -11.179489      -304.2094
  38   2.0000     -11.177438      -304.1536
  39   2.0000     -11.168926      -303.9219
  40   2.0000     -11.164618      -303.8047
  41   2.0000     -11.161868      -303.7299
  42   2.0000     -11.160453      -303.6914
  43   2.0000     -11.160393      -303.6897
  44   2.0000     -11.157084      -303.5997
  45   2.0000     -11.156941      -303.5958
  46   2.0000     -11.152419      -303.4727
  47   2.0000     -11.151210      -303.4399
  48   2.0000     -11.150059      -303.4085
  49   2.0000     -11.146657      -303.3160
  50   2.0000     -11.131939      -302.9155
  51   2.0000     -11.129667      -302.8536
  52   2.0000      -1.342899       -36.5421
  53   2.0000      -1.324794       -36.0495
  54   2.0000      -1.314242       -35.7623
  55   2.0000      -1.302088       -35.4316
  56   2.0000      -1.217272       -33.1236
  57   2.0000      -1.209706       -32.9178
  58   2.0000      -1.165942       -31.7269
  59   2.0000      -1.149891       -31.2901
  60   2.0000      -1.127893       -30.6915
  61   2.0000      -1.112375       -30.2693
  62   2.0000      -1.103705       -30.0333
  63   2.0000      -1.092425       -29.7264
  64   2.0000      -1.065520       -28.9943
  65   2.0000      -1.048567       -28.5329
  66   2.0000      -1.038863       -28.2689
  67   2.0000      -1.029998       -28.0277
  68   2.0000      -1.027596       -27.9623
  69   2.0000      -1.012774       -27.5590
  70   2.0000      -1.006564       -27.3900
  71   2.0000      -0.993847       -27.0440
  72   2.0000      -0.981838       -26.7172
  73   2.0000      -0.973912       -26.5015
  74   2.0000      -0.971458       -26.4347
  75   2.0000      -0.960374       -26.1331
  76   2.0000      -0.948958       -25.8224
  77   2.0000      -0.948361       -25.8062
  78   2.0000      -0.932316       -25.3696
  79   2.0000      -0.921612       -25.0783
  80   2.0000      -0.895087       -24.3566
  81   2.0000      -0.887277       -24.1440
  82   2.0000      -0.875465       -23.8226
  83   2.0000      -0.866110       -23.5680
  84   2.0000      -0.861951       -23.4549
  85   2.0000      -0.856271       -23.3003
  86   2.0000      -0.850968       -23.1560
  87   2.0000      -0.836469       -22.7615
  88   2.0000      -0.822314       -22.3763
  89   2.0000      -0.797140       -21.6913
  90   2.0000      -0.795637       -21.6504
  91   2.0000      -0.741930       -20.1890
  92   2.0000      -0.733129       -19.9494
  93   2.0000      -0.726979       -19.7821
  94   2.0000      -0.722606       -19.6631
  95   2.0000      -0.716368       -19.4934
  96   2.0000      -0.710337       -19.3292
  97   2.0000      -0.705535       -19.1986
  98   2.0000      -0.699823       -19.0432
  99   2.0000      -0.692855       -18.8535
 100   2.0000      -0.690845       -18.7989
 101   2.0000      -0.682025       -18.5589
 102   2.0000      -0.679287       -18.4843
 103   2.0000      -0.673110       -18.3163
 104   2.0000      -0.669929       -18.2297
 105   2.0000      -0.668840       -18.2000
 106   2.0000      -0.663305       -18.0494
 107   2.0000      -0.660529       -17.9739
 108   2.0000      -0.657048       -17.8792
 109   2.0000      -0.656049       -17.8520
 110   2.0000      -0.650422       -17.6989
 111   2.0000      -0.647752       -17.6262
 112   2.0000      -0.643807       -17.5189
 113   2.0000      -0.637941       -17.3593
 114   2.0000      -0.633049       -17.2261
 115   2.0000      -0.630915       -17.1681
 116   2.0000      -0.623161       -16.9571
 117   2.0000      -0.615778       -16.7562
 118   2.0000      -0.613159       -16.6849
 119   2.0000      -0.608482       -16.5576
 120   2.0000      -0.606483       -16.5032
 121   2.0000      -0.599265       -16.3068
 122   2.0000      -0.597739       -16.2653
 123   2.0000      -0.595784       -16.2121
 124   2.0000      -0.592378       -16.1194
 125   2.0000      -0.584158       -15.8958
 126   2.0000      -0.576566       -15.6892
 127   2.0000      -0.571141       -15.5416
 128   2.0000      -0.567310       -15.4373
 129   2.0000      -0.562681       -15.3113
 130   2.0000      -0.555818       -15.1246
 131   2.0000      -0.548397       -14.9226
 132   2.0000      -0.539995       -14.6940
 133   2.0000      -0.534721       -14.5505
 134   2.0000      -0.532317       -14.4851
 135   2.0000      -0.531053       -14.4507
 136   2.0000      -0.524738       -14.2788
 137   2.0000      -0.521639       -14.1945
 138   2.0000      -0.518318       -14.1041
 139   2.0000      -0.514689       -14.0054
 140   2.0000      -0.509327       -13.8595
 141   2.0000      -0.505879       -13.7657
 142   2.0000      -0.503163       -13.6918
 143   2.0000      -0.499826       -13.6010
 144   2.0000      -0.498596       -13.5675
 145   2.0000      -0.496210       -13.5026
 146   2.0000      -0.493640       -13.4326
 147   2.0000      -0.491929       -13.3861
 148   2.0000      -0.486689       -13.2435
 149   2.0000      -0.466414       -12.6918
 150   2.0000      -0.461288       -12.5523
 151   2.0000      -0.453101       -12.3295
 152   2.0000      -0.447963       -12.1897
 153   2.0000      -0.443770       -12.0756
 154   2.0000      -0.441591       -12.0163
 155   2.0000      -0.440234       -11.9794
 156   2.0000      -0.431951       -11.7540
 157   2.0000      -0.425424       -11.5764
 158   2.0000      -0.395292       -10.7564
 159   2.0000      -0.382195       -10.4001
 160   2.0000      -0.374947       -10.2028
 161   2.0000      -0.372846       -10.1457
 162   2.0000      -0.367419        -9.9980
 163   2.0000      -0.359037        -9.7699
 164   2.0000      -0.350803        -9.5458
 165   2.0000      -0.341368        -9.2891
 166   2.0000      -0.338241        -9.2040
 167   2.0000      -0.334849        -9.1117
 168   2.0000      -0.322903        -8.7866
 169   2.0000      -0.299891        -8.1604
 170   2.0000      -0.295088        -8.0297
 171   2.0000      -0.287044        -7.8109
 172   2.0000      -0.285629        -7.7724
 173   2.0000      -0.258878        -7.0444
 174   2.0000      -0.242053        -6.5866
 175   2.0000      -0.186268        -5.0686
 176   2.0000      -0.176066        -4.7910
 177   2.0000      -0.063509        -1.7282
 178   2.0000      -0.052173        -1.4197
 179   0.0000       0.033024         0.8986
 180   0.0000       0.067126         1.8266
 181   0.0000       0.092229         2.5097
 182   0.0000       0.095830         2.6077
 183   0.0000       0.120239         3.2719

MULLIKEN ATOMIC CHARGES
-----------------------
   0 C :    0.218640
   1 N :   -0.431916
   2 C :   -0.065870
   3 N :   -0.339640
   4 C :   -0.072515
   5 N :   -0.564684
   6 C :   -0.044365
   7 N :   -0.337167
   8 C :    0.214004
   9 N :   -0.564604
  10 C :    0.110334
  11 N :   -0.437649
  12 C :   -0.064846
  13 N :   -0.444803
  14 C :    0.234272
  15 N :   -0.440827
  16 C :    0.242997
  17 C :   -0.052207
  18 C :   -0.201644
  19 C :    0.238661
  20 C :    0.201524
  21 C :   -0.076625
  22 C :   -0.086249
  23 C :   -0.056008
  24 C :    0.212211
  25 C :    0.113855
  26 C :   -0.070129
  27 C :    0.233690
  28 C :   -0.046809
  29 C :   -0.190749
  30 C :    0.229169
  31 C :    0.200274
  32 C :   -0.066362
  33 C :   -0.090974
  34 C :   -0.050725
  35 C :    0.193142
  36 C :    0.117155
  37 C :   -0.068457
  38 C :    0.239750
  39 C :   -0.062739
  40 C :   -0.196058
  41 C :    0.219607
  42 C :    0.207656
  43 C :   -0.074730
  44 C :   -0.089312
  45 C :   -0.046284
  46 C :    0.195977
  47 C :    0.115902
  48 C :   -0.077581
  49 C :    0.218783
  50 C :   -0.058749
  51 C :   -0.189084
  52 H :    0.065371
  53 H :   -0.011529
  54 H :    0.052726
  55 H :    0.063380
  56 H :    0.069031
  57 H :    0.064218
  58 H :    0.063072
  59 H :   -0.019500
  60 H :    0.054734
  61 H :    0.174663
  62 H :    0.170712
  63 H :    0.056050
  64 H :   -0.025112
  65 H :    0.045802
  66 H :    0.057681
  67 H :    0.061767
  68 H :    0.057987
  69 H :    0.059605
  70 H :   -0.020734
  71 H :    0.048350
  72 H :    0.048035
  73 H :   -0.017389
  74 H :    0.039047
  75 H :    0.046998
  76 H :    0.054967
  77 H :    0.052783
  78 H :    0.052027
  79 H :   -0.013052
  80 H :    0.039182
  81 H :    0.052473
  82 H :   -0.022868
  83 H :    0.043518
  84 H :    0.052070
  85 H :    0.057483
  86 H :    0.056636
  87 H :    0.055926
  88 H :   -0.025521
  89 H :    0.042167
Sum of atomic charges:    0.0000000

LOEWDIN ATOMIC CHARGES
----------------------
   0 C :    0.012665
   1 N :    0.157145
   2 C :   -0.100828
   3 N :    0.175920
   4 C :    0.064205
   5 N :   -0.142822
   6 C :   -0.015953
   7 N :    0.177916
   8 C :    0.010063
   9 N :   -0.139127
  10 C :    0.033160
  11 N :    0.144263
  12 C :   -0.100198
  13 N :    0.129231
  14 C :   -0.051943
  15 N :    0.137646
  16 C :   -0.034178
  17 C :   -0.018494
  18 C :   -0.112587
  19 C :   -0.087397
  20 C :   -0.005223
  21 C :   -0.102522
  22 C :    0.042961
  23 C :   -0.025042
  24 C :    0.004441
  25 C :    0.030335
  26 C :   -0.098921
  27 C :   -0.078346
  28 C :   -0.017951
  29 C :   -0.113168
  30 C :   -0.054223
  31 C :   -0.011318
  32 C :   -0.101635
  33 C :    0.019703
  34 C :   -0.023139
  35 C :   -0.017539
  36 C :    0.026784
  37 C :   -0.105234
  38 C :   -0.036904
  39 C :   -0.029061
  40 C :   -0.111074
  41 C :   -0.092583
  42 C :   -0.002160
  43 C :   -0.108007
  44 C :    0.032727
  45 C :   -0.018576
  46 C :   -0.012169
  47 C :    0.028978
  48 C :   -0.108361
  49 C :   -0.101288
  50 C :   -0.027359
  51 C :   -0.108374
  52 H :    0.034544
  53 H :    0.005519
  54 H :    0.047905
  55 H :    0.033802
  56 H :    0.031575
  57 H :    0.034153
  58 H :    0.034165
  59 H :    0.002177
  60 H :    0.048693
  61 H :    0.061474
  62 H :    0.059341
  63 H :    0.030576
  64 H :   -0.002676
  65 H :    0.044475
  66 H :    0.030842
  67 H :    0.028074
  68 H :    0.031955
  69 H :    0.031659
  70 H :   -0.000321
  71 H :    0.045814
  72 H :    0.026854
  73 H :    0.002622
  74 H :    0.041708
  75 H :    0.026077
  76 H :    0.024499
  77 H :    0.029043
  78 H :    0.028726
  79 H :    0.004820
  80 H :    0.041125
  81 H :    0.028675
  82 H :   -0.001450
  83 H :    0.044044
  84 H :    0.028381
  85 H :    0.025817
  86 H :    0.030554
  87 H :    0.030784
  88 H :   -0.002875
  89 H :    0.042413

  Mayer bond orders larger than 0.100000
B(  0-C ,  1-N ) :   1.1454 B(  0-C , 17-C ) :   1.5945 B(  0-C , 52-H ) :   0.9687
B(  1-N ,  8-C ) :   1.1409 B(  1-N , 10-C ) :   0.9492 B(  2-C , 12-C ) :   1.5495
B(  2-C , 16-C ) :   1.3078 B(  2-C , 53-H ) :   0.9783 B(  3-N , 14-C ) :   1.1911
B(  3-N , 16-C ) :   1.2000 B(  3-N , 61-H ) :   0.8971 B(  4-C ,  6-C ) :   1.2976
B(  4-C , 17-C ) :   1.3006 B(  4-C , 18-C ) :   1.1876 B(  5-N , 19-C ) :   1.3974
B(  5-N , 27-C ) :   1.4221 B(  6-C ,  8-C ) :   1.5978 B(  6-C , 54-H ) :   0.9714
B(  7-N , 30-C ) :   1.1906 B(  7-N , 38-C ) :   1.2072 B(  7-N , 62-H ) :   0.8995
B(  8-C , 55-H ) :   0.9694 B(  9-N , 41-C ) :   1.4201 B(  9-N , 49-C ) :   1.4051
B( 10-C , 56-H ) :   0.9763 B( 10-C , 57-H ) :   0.9814 B( 10-C , 58-H ) :   0.9829
B( 11-N , 20-C ) :   1.1169 B( 11-N , 24-C ) :   1.1307 B( 11-N , 25-C ) :   0.9583
B( 12-C , 14-C ) :   1.3078 B( 12-C , 59-H ) :   0.9772 B( 13-N , 31-C ) :   1.1053
B( 13-N , 35-C ) :   1.0977 B( 13-N , 36-C ) :   0.9693 B( 14-C , 18-C ) :   1.2193
B( 15-N , 42-C ) :   1.1212 B( 15-N , 46-C ) :   1.1054 B( 15-N , 47-C ) :   0.9633
B( 16-C , 51-C ) :   1.2139 B( 17-C , 60-H ) :   0.9712 B( 18-C , 19-C ) :   1.2518
B( 19-C , 21-C ) :   1.1909 B( 20-C , 28-C ) :   1.6224 B( 20-C , 63-H ) :   0.9704
B( 21-C , 26-C ) :   1.6586 B( 21-C , 64-H ) :   0.9724 B( 22-C , 23-C ) :   1.2753
B( 22-C , 28-C ) :   1.2790 B( 22-C , 29-C ) :   1.2379 B( 23-C , 24-C ) :   1.6216
B( 23-C , 65-H ) :   0.9714 B( 24-C , 66-H ) :   0.9690 B( 25-C , 67-H ) :   0.9763
B( 25-C , 68-H ) :   0.9831 B( 25-C , 69-H ) :   0.9820 B( 26-C , 27-C ) :   1.1945
B( 26-C , 70-H ) :   0.9741 B( 27-C , 29-C ) :   1.2368 B( 28-C , 71-H ) :   0.9711
B( 29-C , 30-C ) :   1.1941 B( 30-C , 32-C ) :   1.3306 B( 31-C , 39-C ) :   1.6531
B( 31-C , 72-H ) :   0.9702 B( 32-C , 37-C ) :   1.5277 B( 32-C , 73-H ) :   0.9774
B( 33-C , 34-C ) :   1.2569 B( 33-C , 39-C ) :   1.2501 B( 33-C , 40-C ) :   1.2936
B( 34-C , 35-C ) :   1.6508 B( 34-C , 74-H ) :   0.9707 B( 35-C , 75-H ) :   0.9702
B( 36-C , 76-H ) :   0.9760 B( 36-C , 77-H ) :   0.9823 B( 36-C , 78-H ) :   0.9834
B( 37-C , 38-C ) :   1.3296 B( 37-C , 79-H ) :   0.9784 B( 38-C , 40-C ) :   1.1937
B( 39-C , 80-H ) :   0.9718 B( 40-C , 41-C ) :   1.1990 B( 41-C , 43-C ) :   1.2294
B( 42-C , 50-C ) :   1.6357 B( 42-C , 81-H ) :   0.9696 B( 43-C , 48-C ) :   1.6220
B( 43-C , 82-H ) :   0.9746 B( 44-C , 45-C ) :   1.2761 B( 44-C , 50-C ) :   1.2608
B( 44-C , 51-C ) :   1.2513 B( 45-C , 46-C ) :   1.6314 B( 45-C , 83-H ) :   0.9708
B( 46-C , 84-H ) :   0.9704 B( 47-C , 85-H ) :   0.9761 B( 47-C , 86-H ) :   0.9827
B( 47-C , 87-H ) :   0.9827 B( 48-C , 49-C ) :   1.2266 B( 48-C , 88-H ) :   0.9733
B( 49-C , 51-C ) :   1.2110 B( 50-C , 89-H ) :   0.9717

MP2 TOTAL ENERGY:    -2130.903841026 Eh
FINAL SINGLE POINT ENERGY     -2130.903841026472

DIPOLE MOMENT
-------------
                                X             Y             Z
Electronic contribution:     -2.05444       1.48318      -0.09663
Nuclear contribution   :      0.07018       0.23557       0.11228
                        -----------------------------------------
Total Dipole Moment    :     -1.98426       1.71875       0.01565
                        -----------------------------------------
Magnitude (a.u.)       :      2.62519
Magnitude (Debye)      :      6.67270

Rotational constants in cm-1:     0.001498     0.001473     0.000762
Rotational constants in MHz :    44.916703    44.172225    22.855318

                             ****ORCA TERMINATED NORMALLY****
TOTAL RUN TIME: 0 days 1 hours 24 minutes 7 seconds 242 msec
