                         Program Version 5.0.4 -  RELEASE  -
|  1> ! PAL2
|  2> ! mp2 cc-pvdz TightSCF  NoKeepInts
|  3>
|  4> %scf
|  5>   MaxCore 2000
|  6> end
|  7> %mp2
|  8>   MaxCore 2000
|  9> end
| 10> * xyz 0 1
| 11>    C       -3.05400         6.47600         0.33500
| 12>    C        1.47400         4.04100         0.05700
| 13>    C       -2.80200         4.09300         0.04900
| 14>    C       -4.18500         4.02600        -0.18200
| 15>    C       -4.94900         5.17500        -0.15000
| 16>    C       -5.22400         7.59500         0.09900
| 17>    C        0.13200         4.30700         0.06100
| 18>    C       -0.56900         3.05600         0.04700
| 19>    C        1.64900         2.61800         0.02300
| 20>    C       -2.24600         5.35600         0.30800
| 21>    N       -4.38400         6.37700         0.10900
| 22>    N        0.38800         2.06700         0.02500
| 23>    N       -2.01000         0.39500        -0.07500
| 24>    N       -0.38800        -2.07400        -0.02700
| 25>    N        2.01000        -0.40100         0.06500
| 26>    C       -1.96000         2.86100         0.02400
| 27>    C       -2.62300         1.61500        -0.01800
| 28>    C       -5.57300        -4.32900         1.06600
| 29>    C       -4.07300         1.47100         0.05600
| 30>    C       -4.10600        -2.75600        -0.02600
| 31>    C       -4.99500        -2.75700        -1.11100
| 32>    C       -6.13200        -3.54200        -1.07600
| 33>    C       -7.65100        -5.11300         0.04000
| 34>    C       -4.32400         0.14100         0.03700
| 35>    C       -3.02500        -0.52000        -0.04800
| 36>    C       -4.42200        -3.56600         1.07500
| 37>    N       -6.40700        -4.31300         0.00100
| 38>    C       -2.86700        -1.92200        -0.04000
| 39>    C       -1.65000        -2.62400        -0.02700
| 40>    C        3.56800        -6.14200        -1.04000
| 41>    C       -1.47600        -4.04900        -0.03400
| 42>    C        2.80300        -4.09900        -0.00800
| 43>    C        3.65700        -4.38400         1.06900
| 44>    C        4.42700        -5.53000         1.05900
| 45>    C        5.24500        -7.58800         0.01400
| 46>    C       -0.13400        -4.31500        -0.02200
| 47>    C        0.56800        -3.06400        -0.02700
| 48>    C        2.77500        -5.01200        -1.07400
| 49>    N        4.37600        -6.39100         0.01700
| 50>    C        1.95900        -2.86900        -0.00900
| 51>    C        2.62100        -1.62200         0.00900
| 52>    C        5.54300         4.33900        -1.13000
| 53>    C        4.07000        -1.47900        -0.09400
| 54>    C        4.10400         2.75100        -0.02100
| 55>    C        5.02700         2.72900         1.03600
| 56>    C        6.16600         3.50900         0.97800
| 57>    C        7.61900         5.15300        -0.11500
| 58>    C        4.32100        -0.14800        -0.09200
| 59>    C        3.02500         0.51400         0.01500
| 60>    C        4.38700         3.58200        -1.11500
| 61>    C        2.86600         1.91600         0.01300
| 62>    N        6.41300         4.29600        -0.09500
| 63>    H       -2.67100         7.46800         0.54300
| 64>    H        2.27400         4.76600         0.08100
| 65>    H       -4.67100         3.08200        -0.39600
| 66>    H       -6.01700         5.17500        -0.33000
| 67>    H       -5.29800         7.96700        -0.92600
| 68>    H       -6.21400         7.34100         0.47800
| 69>    H       -4.76100         8.34600         0.73800
| 70>    H       -0.33200         5.28200         0.06900
| 71>    H       -1.18700         5.47100         0.50800
| 72>    H        0.18200         1.07200         0.00500
| 73>    H       -0.18300        -1.08000        -0.02100
| 74>    H       -5.86400        -4.96200         1.89500
| 75>    H       -4.79400         2.27200         0.13900
| 76>    H       -4.80000        -2.16000        -1.99400
| 77>    H       -6.84100        -3.58200        -1.89300
| 78>    H       -8.42800        -4.53600         0.54600
| 79>    H       -7.95600        -5.33700        -0.98100
| 80>    H       -7.45600        -6.03700         0.58400
| 81>    H       -5.28700        -0.34400         0.10000
| 82>    H       -3.78000        -3.60100         1.94700
| 83>    H        3.58700        -6.86800        -1.84300
| 84>    H       -2.27600        -4.77400        -0.05000
| 85>    H        3.71400        -3.72400         1.92600
| 86>    H        5.09200        -5.79500         1.87100
| 87>    H        6.20500        -7.32900        -0.43900
| 88>    H        5.39300        -7.91700         1.04200
| 89>    H        4.75900        -8.37300        -0.56400
| 90>    H        0.32900        -5.29000        -0.00800
| 91>    H        2.14600        -4.84200        -1.94000
| 92>    H        5.80800         4.98600        -1.95600
| 93>    H        4.78800        -2.28100        -0.18500
| 94>    H        4.86000         2.11400         1.91200
| 95>    H        6.90100         3.53100         1.77200
| 96>    H        7.38300         6.10900         0.35600
| 97>    H        8.41400         4.65200         0.43500
| 98>    H        7.92100         5.31000        -1.15000
| 99>    H        5.28300         0.33600        -0.17900
|100>    H        3.72000         3.63200        -1.96700
|101> *
|102>
|103>                          ****END OF INPUT****

CARTESIAN COORDINATES (ANGSTROEM)
---------------------------------
  C     -3.054000    6.476000    0.335000
  C      1.474000    4.041000    0.057000
  C     -2.802000    4.093000    0.049000
  C     -4.185000    4.026000   -0.182000
  C     -4.949000    5.175000   -0.150000
  C     -5.224000    7.595000    0.099000
  C      0.132000    4.307000    0.061000
  C     -0.569000    3.056000    0.047000
  C      1.649000    2.618000    0.023000
  C     -2.246000    5.356000    0.308000
  N     -4.384000    6.377000    0.109000
  N      0.388000    2.067000    0.025000
  N     -2.010000    0.395000   -0.075000
  N     -0.388000   -2.074000   -0.027000
  N      2.010000   -0.401000    0.065000
  C     -1.960000    2.861000    0.024000
  C     -2.623000    1.615000   -0.018000
  C     -5.573000   -4.329000    1.066000
  C     -4.073000    1.471000    0.056000
  C     -4.106000   -2.756000   -0.026000
  C     -4.995000   -2.757000   -1.111000
  C     -6.132000   -3.542000   -1.076000
  C     -7.651000   -5.113000    0.040000
  C     -4.324000    0.141000    0.037000
  C     -3.025000   -0.520000   -0.048000
  C     -4.422000   -3.566000    1.075000
  N     -6.407000   -4.313000    0.001000
  C     -2.867000   -1.922000   -0.040000
  C     -1.650000   -2.624000   -0.027000
  C      3.568000   -6.142000   -1.040000
  C     -1.476000   -4.049000   -0.034000
  C      2.803000   -4.099000   -0.008000
  C      3.657000   -4.384000    1.069000
  C      4.427000   -5.530000    1.059000
  C      5.245000   -7.588000    0.014000
  C     -0.134000   -4.315000   -0.022000
  C      0.568000   -3.064000   -0.027000
  C      2.775000   -5.012000   -1.074000
  N      4.376000   -6.391000    0.017000
  C      1.959000   -2.869000   -0.009000
  C      2.621000   -1.622000    0.009000
  C      5.543000    4.339000   -1.130000
  C      4.070000   -1.479000   -0.094000
  C      4.104000    2.751000   -0.021000
  C      5.027000    2.729000    1.036000
  C      6.166000    3.509000    0.978000
  C      7.619000    5.153000   -0.115000
  C      4.321000   -0.148000   -0.092000
  C      3.025000    0.514000    0.015000
  C      4.387000    3.582000   -1.115000
  C      2.866000    1.916000    0.013000
  N      6.413000    4.296000   -0.095000
  H     -2.671000    7.468000    0.543000
  H      2.274000    4.766000    0.081000
  H     -4.671000    3.082000   -0.396000
  H     -6.017000    5.175000   -0.330000
  H     -5.298000    7.967000   -0.926000
  H     -6.214000    7.341000    0.478000
  H     -4.761000    8.346000    0.738000
  H     -0.332000    5.282000    0.069000
  H     -1.187000    5.471000    0.508000
  H      0.182000    1.072000    0.005000
  H     -0.183000   -1.080000   -0.021000
  H     -5.864000   -4.962000    1.895000
  H     -4.794000    2.272000    0.139000
  H     -4.800000   -2.160000   -1.994000
  H     -6.841000   -3.582000   -1.893000
  H     -8.428000   -4.536000    0.546000
  H     -7.956000   -5.337000   -0.981000
  H     -7.456000   -6.037000    0.584000
  H     -5.287000   -0.344000    0.100000
  H     -3.780000   -3.601000    1.947000
  H      3.587000   -6.868000   -1.843000
  H     -2.276000   -4.774000   -0.050000
  H      3.714000   -3.724000    1.926000
  H      5.092000   -5.795000    1.871000
  H      6.205000   -7.329000   -0.439000
  H      5.393000   -7.917000    1.042000
  H      4.759000   -8.373000   -0.564000
  H      0.329000   -5.290000   -0.008000
  H      2.146000   -4.842000   -1.940000
  H      5.808000    4.986000   -1.956000
  H      4.788000   -2.281000   -0.185000
  H      4.860000    2.114000    1.912000
  H      6.901000    3.531000    1.772000
  H      7.383000    6.109000    0.356000
  H      8.414000    4.652000    0.435000
  H      7.921000    5.310000   -1.150000
  H      5.283000    0.336000   -0.179000
  H      3.720000    3.632000   -1.967000

 Total Charge           Charge          ....    0
 Multiplicity           Mult            ....    1
 Number of Electrons    NEL             ....  358
 Basis Dimension        Dim             ....  918

ORBITAL ENERGIES
----------------

  NO   OCC          E(Eh)            E(eV)
   0   2.0000     -15.680501      -426.6881
   1   2.0000     -15.634604      -425.4392
   2   2.0000     -15.631446      -425.3533
   3   2.0000     -15.587141      -424.1477
   4   2.0000     -15.525395      -422.4675
   5   2.0000     -15.515367      -422.1946
   6   2.0000     -15.453828      -420.5200
   7   2.0000     -15.440056      -420.1453
   8   2.0000     -11.330069      -308.3069
   9   2.0000     -11.328885      -308.2746
  10   2.0000     -11.328367      -308.2605
  11   2.0000     -11.299713      -307.4808
  12   2.0000     -11.298120      -307.4375
  13   2.0000     -11.293544      -307.3130
  14   2.0000     -11.290936      -307.2420
  15   2.0000     -11.287131      -307.1384
  16   2.0000     -11.286145      -307.1116
  17   2.0000     -11.282717      -307.0183
  18   2.0000     -11.269383      -306.6555
  19   2.0000     -11.263871      -306.5055
  20   2.0000     -11.262877      -306.4785
  21   2.0000     -11.251357      -306.1650
  22   2.0000     -11.247715      -306.0659
  23   2.0000     -11.238371      -305.8116
  24   2.0000     -11.236244      -305.7537
  25   2.0000     -11.231602      -305.6274
  26   2.0000     -11.230944      -305.6095
  27   2.0000     -11.229451      -305.5689
  28   2.0000     -11.229160      -305.5610
  29   2.0000     -11.211537      -305.0814
  30   2.0000     -11.210133      -305.0432
  31   2.0000     -11.193316      -304.5856
  32   2.0000     -11.191848      -304.5457
  33   2.0000     -11.191007      -304.5228
  34   2.0000     -11.188421      -304.4524
  35   2.0000     -11.188012      -304.4413
  36   2.0000     -11.187010      -304.4140
  37   2.0000     -11.175253      -304.0941
  38   2.0000     -11.174814      -304.0821
  39   2.0000     -11.172676      -304.0240
  40   2.0000     -11.171649      -303.9960
  41   2.0000     -11.170323      -303.9599
  42   2.0000     -11.168956      -303.9227
  43   2.0000     -11.161987      -303.7331
  44   2.0000     -11.160411      -303.6902
  45   2.0000     -11.156754      -303.5907
  46   2.0000     -11.156566      -303.5856
  47   2.0000     -11.152260      -303.4684
  48   2.0000     -11.146315      -303.3067
  49   2.0000     -11.134854      -302.9948
  50   2.0000     -11.129580      -302.8513
  51   2.0000     -11.116823      -302.5041
  52   2.0000      -1.360980       -37.0341
  53   2.0000      -1.321766       -35.9671
  54   2.0000      -1.319283       -35.8995
  55   2.0000      -1.279801       -34.8252
  56   2.0000      -1.226589       -33.3772
  57   2.0000      -1.210040       -32.9269
  58   2.0000      -1.173504       -31.9327
  59   2.0000      -1.150867       -31.3167
  60   2.0000      -1.144149       -31.1339
  61   2.0000      -1.110665       -30.2227
  62   2.0000      -1.108724       -30.1699
  63   2.0000      -1.082631       -29.4599
  64   2.0000      -1.076518       -29.2935
  65   2.0000      -1.045933       -28.4613
  66   2.0000      -1.043939       -28.4070
  67   2.0000      -1.041520       -28.3412
  68   2.0000      -1.015138       -27.6233
  69   2.0000      -1.012820       -27.5602
  70   2.0000      -1.008724       -27.4488
  71   2.0000      -0.993990       -27.0479
  72   2.0000      -0.985391       -26.8138
  73   2.0000      -0.982062       -26.7233
  74   2.0000      -0.972947       -26.4752
  75   2.0000      -0.962022       -26.1779
  76   2.0000      -0.954643       -25.9772
  77   2.0000      -0.945687       -25.7334
  78   2.0000      -0.937288       -25.5049
  79   2.0000      -0.916766       -24.9465
  80   2.0000      -0.911033       -24.7905
  81   2.0000      -0.897196       -24.4140
  82   2.0000      -0.877028       -23.8652
  83   2.0000      -0.872822       -23.7507
  84   2.0000      -0.870348       -23.6834
  85   2.0000      -0.859815       -23.3967
  86   2.0000      -0.841844       -22.9077
  87   2.0000      -0.836863       -22.7722
  88   2.0000      -0.827747       -22.5242
  89   2.0000      -0.796530       -21.6747
  90   2.0000      -0.788705       -21.4618
  91   2.0000      -0.764309       -20.7979
  92   2.0000      -0.753330       -20.4992
  93   2.0000      -0.733998       -19.9731
  94   2.0000      -0.727017       -19.7831
  95   2.0000      -0.724296       -19.7091
  96   2.0000      -0.719036       -19.5660
  97   2.0000      -0.717167       -19.5151
  98   2.0000      -0.712512       -19.3884
  99   2.0000      -0.698634       -19.0108
 100   2.0000      -0.697434       -18.9782
 101   2.0000      -0.691859       -18.8264
 102   2.0000      -0.685612       -18.6565
 103   2.0000      -0.684696       -18.6315
 104   2.0000      -0.679009       -18.4768
 105   2.0000      -0.674363       -18.3504
 106   2.0000      -0.672611       -18.3027
 107   2.0000      -0.660122       -17.9628
 108   2.0000      -0.657921       -17.9029
 109   2.0000      -0.653268       -17.7763
 110   2.0000      -0.651664       -17.7327
 111   2.0000      -0.646657       -17.5964
 112   2.0000      -0.645539       -17.5660
 113   2.0000      -0.637726       -17.3534
 114   2.0000      -0.635723       -17.2989
 115   2.0000      -0.627833       -17.0842
 116   2.0000      -0.622437       -16.9374
 117   2.0000      -0.620407       -16.8821
 118   2.0000      -0.613447       -16.6927
 119   2.0000      -0.612756       -16.6739
 120   2.0000      -0.611870       -16.6498
 121   2.0000      -0.611094       -16.6287
 122   2.0000      -0.600577       -16.3425
 123   2.0000      -0.588259       -16.0074
 124   2.0000      -0.582011       -15.8373
 125   2.0000      -0.580786       -15.8040
 126   2.0000      -0.580067       -15.7844
 127   2.0000      -0.571615       -15.5544
 128   2.0000      -0.567954       -15.4548
 129   2.0000      -0.559841       -15.2340
 130   2.0000      -0.554087       -15.0775
 131   2.0000      -0.548261       -14.9189
 132   2.0000      -0.543056       -14.7773
 133   2.0000      -0.541120       -14.7246
 134   2.0000      -0.538924       -14.6649
 135   2.0000      -0.535727       -14.5779
 136   2.0000      -0.530937       -14.4475
 137   2.0000      -0.518299       -14.1036
 138   2.0000      -0.517789       -14.0897
 139   2.0000      -0.514249       -13.9934
 140   2.0000      -0.512303       -13.9405
 141   2.0000      -0.510328       -13.8867
 142   2.0000      -0.508851       -13.8465
 143   2.0000      -0.504292       -13.7225
 144   2.0000      -0.501748       -13.6532
 145   2.0000      -0.495251       -13.4765
 146   2.0000      -0.489362       -13.3162
 147   2.0000      -0.481313       -13.0972
 148   2.0000      -0.476984       -12.9794
 149   2.0000      -0.467913       -12.7325
 150   2.0000      -0.466138       -12.6843
 151   2.0000      -0.456746       -12.4287
 152   2.0000      -0.451470       -12.2851
 153   2.0000      -0.445255       -12.1160
 154   2.0000      -0.438478       -11.9316
 155   2.0000      -0.427429       -11.6309
 156   2.0000      -0.409432       -11.1412
 157   2.0000      -0.397837       -10.8257
 158   2.0000      -0.391636       -10.6570
 159   2.0000      -0.388067       -10.5598
 160   2.0000      -0.380917       -10.3653
 161   2.0000      -0.376509       -10.2453
 162   2.0000      -0.369793       -10.0626
 163   2.0000      -0.357095        -9.7171
 164   2.0000      -0.355584        -9.6759
 165   2.0000      -0.341856        -9.3024
 166   2.0000      -0.337820        -9.1926
 167   2.0000      -0.325141        -8.8475
 168   2.0000      -0.320192        -8.7129
 169   2.0000      -0.305853        -8.3227
 170   2.0000      -0.299276        -8.1437
 171   2.0000      -0.285202        -7.7607
 172   2.0000      -0.278486        -7.5780
 173   2.0000      -0.263443        -7.1686
 174   2.0000      -0.241551        -6.5729
 175   2.0000      -0.190078        -5.1723
 176   2.0000      -0.181167        -4.9298
 177   2.0000      -0.080009        -2.1771
 178   2.0000      -0.059794        -1.6271
 179   0.0000       0.028216         0.7678
 180   0.0000       0.065094         1.7713
 181   0.0000       0.090148         2.4531
 182   0.0000       0.105781         2.8785
 183   0.0000       0.115705         3.1485

MULLIKEN ATOMIC CHARGES
-----------------------
   0 C :    0.223424
   1 N :   -0.456500
   2 C :   -0.077231
   3 N :   -0.341320
   4 C :   -0.073324
   5 N :   -0.567860
   6 C :   -0.111307
   7 N :   -0.341071
   8 C :    0.212561
   9 N :   -0.562378
  10 C :    0.119217
  11 N :   -0.438335
  12 C :   -0.051270
  13 N :   -0.429159
  14 C :    0.210903
  15 N :   -0.441018
  16 C :    0.234144
  17 C :   -0.124611
  18 C :   -0.157010
  19 C :    0.201737
  20 C :    0.214173
  21 C :   -0.060950
  22 C :   -0.089560
  23 C :   -0.039611
  24 C :    0.193686
  25 C :    0.114513
  26 C :   -0.092532
  27 C :    0.215089
  28 C :   -0.061795
  29 C :   -0.183613
  30 C :    0.246412
  31 C :    0.230845
  32 C :   -0.061486
  33 C :   -0.059814
  34 C :   -0.050962
  35 C :    0.228750
  36 C :    0.108117
  37 C :   -0.064194
  38 C :    0.231102
  39 C :   -0.057803
  40 C :   -0.181052
  41 C :    0.225700
  42 C :    0.197289
  43 C :   -0.072555
  44 C :   -0.089956
  45 C :   -0.061792
  46 C :    0.211650
  47 C :    0.115385
  48 C :   -0.066658
  49 C :    0.238447
  50 C :   -0.045967
  51 C :   -0.194737
  52 H :    0.035552
  53 H :   -0.018100
  54 H :    0.046381
  55 H :    0.033668
  56 H :    0.048988
  57 H :    0.048056
  58 H :    0.046081
  59 H :   -0.012352
  60 H :    0.045559
  61 H :    0.171016
  62 H :    0.175658
  63 H :    0.055533
  64 H :   -0.019495
  65 H :    0.046872
  66 H :    0.055702
  67 H :    0.062700
  68 H :    0.057282
  69 H :    0.056466
  70 H :   -0.030027
  71 H :    0.045044
  72 H :    0.071705
  73 H :   -0.007842
  74 H :    0.060782
  75 H :    0.071137
  76 H :    0.075309
  77 H :    0.068263
  78 H :    0.067537
  79 H :   -0.016589
  80 H :    0.061656
  81 H :    0.054458
  82 H :   -0.025087
  83 H :    0.041694
  84 H :    0.054090
  85 H :    0.060850
  86 H :    0.055449
  87 H :    0.057255
  88 H :   -0.014311
  89 H :    0.047347
Sum of atomic charges:   -0.0000000

LOEWDIN ATOMIC CHARGES
----------------------
   0 C :   -0.017032
   1 N :    0.120204
   2 C :   -0.101510
   3 N :    0.182665
   4 C :   -0.013057
   5 N :   -0.133470
   6 C :   -0.028389
   7 N :    0.174962
   8 C :   -0.024348
   9 N :   -0.140676
  10 C :    0.022911
  11 N :    0.142207
  12 C :   -0.104888
  13 N :    0.166867
  14 C :   -0.017907
  15 N :    0.138703
  16 C :   -0.060266
  17 C :   -0.036252
  18 C :   -0.110462
  19 C :   -0.075094
  20 C :    0.005281
  21 C :   -0.113109
  22 C :    0.037874
  23 C :   -0.014497
  24 C :   -0.012501
  25 C :    0.029881
  26 C :   -0.109002
  27 C :   -0.117404
  28 C :   -0.027525
  29 C :   -0.099239
  30 C :   -0.029623
  31 C :    0.025045
  32 C :   -0.094015
  33 C :    0.083012
  34 C :   -0.014886
  35 C :    0.023538
  36 C :    0.035377
  37 C :   -0.093795
  38 C :   -0.052119
  39 C :   -0.017539
  40 C :   -0.108531
  41 C :   -0.091738
  42 C :   -0.010520
  43 C :   -0.099222
  44 C :    0.033513
  45 C :   -0.028532
  46 C :    0.001979
  47 C :    0.029486
  48 C :   -0.094859
  49 C :   -0.068748
  50 C :   -0.018459
  51 C :   -0.109293
  52 H :    0.022434
  53 H :    0.002366
  54 H :    0.008637
  55 H :    0.021997
  56 H :    0.021774
  57 H :    0.026486
  58 H :    0.026370
  59 H :    0.005665
  60 H :    0.007326
  61 H :    0.060137
  62 H :    0.061952
  63 H :    0.030860
  64 H :    0.005006
  65 H :    0.045817
  66 H :    0.029267
  67 H :    0.028353
  68 H :    0.031650
  69 H :    0.030347
  70 H :   -0.004858
  71 H :    0.043585
  72 H :    0.037904
  73 H :    0.007211
  74 H :    0.050857
  75 H :    0.037571
  76 H :    0.035003
  77 H :    0.036311
  78 H :    0.035985
  79 H :    0.002967
  80 H :    0.050892
  81 H :    0.029113
  82 H :   -0.002850
  83 H :    0.042385
  84 H :    0.029849
  85 H :    0.027376
  86 H :    0.030137
  87 H :    0.031425
  88 H :    0.002475
  89 H :    0.045219

  Mayer bond orders larger than 0.100000
B(  0-C ,  1-N ) :   1.1006 B(  0-C , 17-C ) :   1.7174 B(  0-C , 52-H ) :   0.9617
B(  1-N ,  8-C ) :   1.0878 B(  1-N , 10-C ) :   0.9780 B(  2-C , 12-C ) :   1.4865
B(  2-C , 16-C ) :   1.3735 B(  2-C , 53-H ) :   0.9729 B(  3-N , 14-C ) :   1.2217
B(  3-N , 16-C ) :   1.1816 B(  3-N , 61-H ) :   0.8987 B(  4-C ,  6-C ) :   1.2176
B(  4-C , 17-C ) :   1.2183 B(  4-C , 18-C ) :   1.4772 B(  5-N , 19-C ) :   1.4582
B(  5-N , 27-C ) :   1.3708 B(  6-C ,  8-C ) :   1.7235 B(  6-C , 54-H ) :   0.8877
B(  7-N , 30-C ) :   1.1951 B(  7-N , 38-C ) :   1.1895 B(  7-N , 62-H ) :   0.8967
B(  8-C , 55-H ) :   0.9628 B(  9-N , 41-C ) :   1.3933 B(  9-N , 49-C ) :   1.4263
B( 10-C , 56-H ) :   0.9775 B( 10-C , 57-H ) :   0.9830 B( 10-C , 58-H ) :   0.9834
B( 11-N , 20-C ) :   1.1317 B( 11-N , 24-C ) :   1.1072 B( 11-N , 25-C ) :   0.9599
B( 12-C , 14-C ) :   1.3595 B( 12-C , 59-H ) :   0.9331 B( 13-N , 31-C ) :   1.1627
B( 13-N , 35-C ) :   1.1610 B( 13-N , 36-C ) :   0.9409 B( 14-C , 18-C ) :   1.1164
B( 15-N , 42-C ) :   1.1074 B( 15-N , 46-C ) :   1.1246 B( 15-N , 47-C ) :   0.9613
B( 16-C , 51-C ) :   1.1668 B( 17-C , 60-H ) :   0.8941 B( 18-C , 19-C ) :   1.1139
B( 19-C , 21-C ) :   1.2535 B( 20-C , 28-C ) :   1.6281 B( 20-C , 63-H ) :   0.9702
B( 21-C , 26-C ) :   1.5814 B( 21-C , 64-H ) :   0.9284 B( 22-C , 23-C ) :   1.2901
B( 22-C , 28-C ) :   1.2642 B( 22-C , 29-C ) :   1.2260 B( 23-C , 24-C ) :   1.6195
B( 23-C , 65-H ) :   0.9703 B( 24-C , 66-H ) :   0.9695 B( 25-C , 67-H ) :   0.9761
B( 25-C , 68-H ) :   0.9828 B( 25-C , 69-H ) :   0.9823 B( 26-C , 27-C ) :   1.2612
B( 26-C , 70-H ) :   0.9668 B( 27-C , 29-C ) :   1.2050 B( 28-C , 71-H ) :   0.9720
B( 29-C , 30-C ) :   1.2482 B( 30-C , 32-C ) :   1.2773 B( 31-C , 39-C ) :   1.5868
B( 31-C , 72-H ) :   0.9681 B( 32-C , 37-C ) :   1.5815 B( 32-C , 73-H ) :   0.9786
B( 33-C , 34-C ) :   1.3080 B( 33-C , 39-C ) :   1.3047 B( 33-C , 40-C ) :   1.1741
B( 34-C , 35-C ) :   1.5843 B( 34-C , 74-H ) :   0.9696 B( 35-C , 75-H ) :   0.9681
B( 36-C , 76-H ) :   0.9768 B( 36-C , 77-H ) :   0.9815 B( 36-C , 78-H ) :   0.9823
B( 37-C , 38-C ) :   1.2835 B( 37-C , 79-H ) :   0.9764 B( 38-C , 40-C ) :   1.2353
B( 39-C , 80-H ) :   0.9705 B( 40-C , 41-C ) :   1.2511 B( 41-C , 43-C ) :   1.1843
B( 42-C , 50-C ) :   1.6335 B( 42-C , 81-H ) :   0.9696 B( 43-C , 48-C ) :   1.6685
B( 43-C , 82-H ) :   0.9720 B( 44-C , 45-C ) :   1.2630 B( 44-C , 50-C ) :   1.2721
B( 44-C , 51-C ) :   1.2616 B( 45-C , 46-C ) :   1.6349 B( 45-C , 83-H ) :   0.9719
B( 46-C , 84-H ) :   0.9700 B( 47-C , 85-H ) :   0.9762 B( 47-C , 86-H ) :   0.9829
B( 47-C , 87-H ) :   0.9824 B( 48-C , 49-C ) :   1.1878 B( 48-C , 88-H ) :   0.9749
B( 49-C , 51-C ) :   1.2452 B( 50-C , 89-H ) :   0.9708

MP2 TOTAL ENERGY:    -2130.796598716 Eh
FINAL SINGLE POINT ENERGY     -2130.796598716418

DIPOLE MOMENT
-------------
                                X             Y             Z
Electronic contribution:      2.84598      -4.41353      -0.07553
Nuclear contribution   :     -0.02752       0.16992       0.08908
                        -----------------------------------------
Total Dipole Moment    :      2.81846      -4.24360       0.01355
                        -----------------------------------------
Magnitude (a.u.)       :      5.09432
Magnitude (Debye)      :     12.94872

Rotational constants in cm-1:     0.001503     0.001477     0.000760
Rotational constants in MHz :    45.069640    44.292185    22.783844

                             ****ORCA TERMINATED NORMALLY****
TOTAL RUN TIME: 0 days 1 hours 5 minutes 40 seconds 447 msec
