                         Program Version 5.0.4 -  RELEASE  -
|  1> ! PAL2
|  2> ! mp2 cc-pvdz TightSCF  NoKeepInts
|  3>
|  4> %scf
|  5>   MaxCore 2000
|  6> end
|  7> %mp2
|  8>   MaxCore 2000
|  9> end
| 10> * xyz 0 1
| 11>    C       -3.57500         6.10400         1.13700
| 12>    C        1.47400         4.04100         0.05700
| 13>    C       -2.80200         4.09300         0.04900
| 14>    C       -3.65600         4.40500        -1.02000
| 15>    C       -4.43100         5.54600        -0.97800
| 16>    C       -5.20200         7.61000         0.08800
| 17>    C        0.13200         4.30700         0.06100
| 18>    C       -0.56900         3.05600         0.04700
| 19>    C        1.64900         2.61800         0.02300
| 20>    C       -2.77500         4.97700         1.13900
| 21>    N       -4.38700         6.37500         0.09000
| 22>    N        0.38800         2.06700         0.02500
| 23>    N       -2.01000         0.39500        -0.07500
| 24>    N       -0.38800        -2.07400        -0.02700
| 25>    N        2.01000        -0.40100         0.06500
| 26>    C       -1.96000         2.86100         0.02400
| 27>    C       -2.62300         1.61500        -0.01800
| 28>    C       -5.57300        -4.32900         1.06600
| 29>    C       -4.07300         1.47100         0.05600
| 30>    C       -4.10600        -2.75600        -0.02600
| 31>    C       -4.99500        -2.75700        -1.11100
| 32>    C       -6.13200        -3.54200        -1.07600
| 33>    C       -7.65100        -5.11300         0.04000
| 34>    C       -4.32400         0.14100         0.03700
| 35>    C       -3.02500        -0.52000        -0.04800
| 36>    C       -4.42200        -3.56600         1.07500
| 37>    N       -6.40700        -4.31300         0.00100
| 38>    C       -2.86700        -1.92200        -0.04000
| 39>    C       -1.65000        -2.62400        -0.02700
| 40>    C        3.56800        -6.14200        -1.04000
| 41>    C       -1.47600        -4.04900        -0.03400
| 42>    C        2.80300        -4.09900        -0.00800
| 43>    C        3.65700        -4.38400         1.06900
| 44>    C        4.42700        -5.53000         1.05900
| 45>    C        5.24500        -7.58800         0.01400
| 46>    C       -0.13400        -4.31500        -0.02200
| 47>    C        0.56800        -3.06400        -0.02700
| 48>    C        2.77500        -5.01200        -1.07400
| 49>    N        4.37600        -6.39100         0.01700
| 50>    C        1.95900        -2.86900        -0.00900
| 51>    C        2.62100        -1.62200         0.00900
| 52>    C        5.54300         4.33900        -1.13000
| 53>    C        4.07000        -1.47900        -0.09400
| 54>    C        4.10400         2.75100        -0.02100
| 55>    C        5.02700         2.72900         1.03600
| 56>    C        6.16600         3.50900         0.97800
| 57>    C        7.61900         5.15300        -0.11500
| 58>    C        4.32100        -0.14800        -0.09200
| 59>    C        3.02500         0.51400         0.01500
| 60>    C        4.38700         3.58200        -1.11500
| 61>    C        2.86600         1.91600         0.01300
| 62>    N        6.41300         4.29600        -0.09500
| 63>    H       -3.59600         6.80700         1.96100
| 64>    H        2.27400         4.76600         0.08100
| 65>    H       -3.71400         3.76700        -1.89400
| 66>    H       -5.09800         5.83200        -1.78200
| 67>    H       -4.64600         8.40200        -0.41800
| 68>    H       -6.13700         7.41200        -0.43800
| 69>    H       -5.40700         7.89600         1.11900
| 70>    H       -0.33200         5.28200         0.06900
| 71>    H       -2.14700         4.78400         2.00100
| 72>    H        0.18200         1.07200         0.00500
| 73>    H       -0.18300        -1.08000        -0.02100
| 74>    H       -5.86400        -4.96200         1.89500
| 75>    H       -4.79400         2.27200         0.13900
| 76>    H       -4.80000        -2.16000        -1.99400
| 77>    H       -6.84100        -3.58200        -1.89300
| 78>    H       -8.42800        -4.53600         0.54600
| 79>    H       -7.95600        -5.33700        -0.98100
| 80>    H       -7.45600        -6.03700         0.58400
| 81>    H       -5.28700        -0.34400         0.10000
| 82>    H       -3.78000        -3.60100         1.94700
| 83>    H        3.58700        -6.86800        -1.84300
| 84>    H       -2.27600        -4.77400        -0.05000
| 85>    H        3.71400        -3.72400         1.92600
| 86>    H        5.09200        -5.79500         1.87100
| 87>    H        6.20500        -7.32900        -0.43900
| 88>    H        5.39300        -7.91700         1.04200
| 89>    H        4.75900        -8.37300        -0.56400
| 90>    H        0.32900        -5.29000        -0.00800
| 91>    H        2.14600        -4.84200        -1.94000
| 92>    H        5.80800         4.98600        -1.95600
| 93>    H        4.78800        -2.28100        -0.18500
| 94>    H        4.86000         2.11400         1.91200
| 95>    H        6.90100         3.53100         1.77200
| 96>    H        7.38300         6.10900         0.35600
| 97>    H        8.41400         4.65200         0.43500
| 98>    H        7.92100         5.31000        -1.15000
| 99>    H        5.28300         0.33600        -0.17900
|100>    H        3.72000         3.63200        -1.96700
|101> *
|102>
|103>                          ****END OF INPUT****

CARTESIAN COORDINATES (ANGSTROEM)
---------------------------------
  C     -3.575000    6.104000    1.137000
  C      1.474000    4.041000    0.057000
  C     -2.802000    4.093000    0.049000
  C     -3.656000    4.405000   -1.020000
  C     -4.431000    5.546000   -0.978000
  C     -5.202000    7.610000    0.088000
  C      0.132000    4.307000    0.061000
  C     -0.569000    3.056000    0.047000
  C      1.649000    2.618000    0.023000
  C     -2.775000    4.977000    1.139000
  N     -4.387000    6.375000    0.090000
  N      0.388000    2.067000    0.025000
  N     -2.010000    0.395000   -0.075000
  N     -0.388000   -2.074000   -0.027000
  N      2.010000   -0.401000    0.065000
  C     -1.960000    2.861000    0.024000
  C     -2.623000    1.615000   -0.018000
  C     -5.573000   -4.329000    1.066000
  C     -4.073000    1.471000    0.056000
  C     -4.106000   -2.756000   -0.026000
  C     -4.995000   -2.757000   -1.111000
  C     -6.132000   -3.542000   -1.076000
  C     -7.651000   -5.113000    0.040000
  C     -4.324000    0.141000    0.037000
  C     -3.025000   -0.520000   -0.048000
  C     -4.422000   -3.566000    1.075000
  N     -6.407000   -4.313000    0.001000
  C     -2.867000   -1.922000   -0.040000
  C     -1.650000   -2.624000   -0.027000
  C      3.568000   -6.142000   -1.040000
  C     -1.476000   -4.049000   -0.034000
  C      2.803000   -4.099000   -0.008000
  C      3.657000   -4.384000    1.069000
  C      4.427000   -5.530000    1.059000
  C      5.245000   -7.588000    0.014000
  C     -0.134000   -4.315000   -0.022000
  C      0.568000   -3.064000   -0.027000
  C      2.775000   -5.012000   -1.074000
  N      4.376000   -6.391000    0.017000
  C      1.959000   -2.869000   -0.009000
  C      2.621000   -1.622000    0.009000
  C      5.543000    4.339000   -1.130000
  C      4.070000   -1.479000   -0.094000
  C      4.104000    2.751000   -0.021000
  C      5.027000    2.729000    1.036000
  C      6.166000    3.509000    0.978000
  C      7.619000    5.153000   -0.115000
  C      4.321000   -0.148000   -0.092000
  C      3.025000    0.514000    0.015000
  C      4.387000    3.582000   -1.115000
  C      2.866000    1.916000    0.013000
  N      6.413000    4.296000   -0.095000
  H     -3.596000    6.807000    1.961000
  H      2.274000    4.766000    0.081000
  H     -3.714000    3.767000   -1.894000
  H     -5.098000    5.832000   -1.782000
  H     -4.646000    8.402000   -0.418000
  H     -6.137000    7.412000   -0.438000
  H     -5.407000    7.896000    1.119000
  H     -0.332000    5.282000    0.069000
  H     -2.147000    4.784000    2.001000
  H      0.182000    1.072000    0.005000
  H     -0.183000   -1.080000   -0.021000
  H     -5.864000   -4.962000    1.895000
  H     -4.794000    2.272000    0.139000
  H     -4.800000   -2.160000   -1.994000
  H     -6.841000   -3.582000   -1.893000
  H     -8.428000   -4.536000    0.546000
  H     -7.956000   -5.337000   -0.981000
  H     -7.456000   -6.037000    0.584000
  H     -5.287000   -0.344000    0.100000
  H     -3.780000   -3.601000    1.947000
  H      3.587000   -6.868000   -1.843000
  H     -2.276000   -4.774000   -0.050000
  H      3.714000   -3.724000    1.926000
  H      5.092000   -5.795000    1.871000
  H      6.205000   -7.329000   -0.439000
  H      5.393000   -7.917000    1.042000
  H      4.759000   -8.373000   -0.564000
  H      0.329000   -5.290000   -0.008000
  H      2.146000   -4.842000   -1.940000
  H      5.808000    4.986000   -1.956000
  H      4.788000   -2.281000   -0.185000
  H      4.860000    2.114000    1.912000
  H      6.901000    3.531000    1.772000
  H      7.383000    6.109000    0.356000
  H      8.414000    4.652000    0.435000
  H      7.921000    5.310000   -1.150000
  H      5.283000    0.336000   -0.179000
  H      3.720000    3.632000   -1.967000

 Total Charge           Charge          ....    0
 Multiplicity           Mult            ....    1
 Number of Electrons    NEL             ....  358
 Basis Dimension        Dim             ....  918

ORBITAL ENERGIES
----------------

  NO   OCC          E(Eh)            E(eV)
   0   2.0000     -15.639716      -425.5783
   1   2.0000     -15.634650      -425.4405
   2   2.0000     -15.630749      -425.3343
   3   2.0000     -15.628263      -425.2667
   4   2.0000     -15.516978      -422.2384
   5   2.0000     -15.515692      -422.2034
   6   2.0000     -15.444764      -420.2734
   7   2.0000     -15.441575      -420.1866
   8   2.0000     -11.302809      -307.5651
   9   2.0000     -11.300066      -307.4904
  10   2.0000     -11.297420      -307.4184
  11   2.0000     -11.295627      -307.3696
  12   2.0000     -11.294948      -307.3511
  13   2.0000     -11.294431      -307.3371
  14   2.0000     -11.291519      -307.2578
  15   2.0000     -11.290266      -307.2237
  16   2.0000     -11.288899      -307.1866
  17   2.0000     -11.286051      -307.1091
  18   2.0000     -11.285519      -307.0946
  19   2.0000     -11.284710      -307.0726
  20   2.0000     -11.243020      -305.9381
  21   2.0000     -11.239058      -305.8303
  22   2.0000     -11.235509      -305.7337
  23   2.0000     -11.234664      -305.7107
  24   2.0000     -11.233991      -305.6924
  25   2.0000     -11.232502      -305.6519
  26   2.0000     -11.230923      -305.6090
  27   2.0000     -11.230446      -305.5960
  28   2.0000     -11.228226      -305.5356
  29   2.0000     -11.227368      -305.5122
  30   2.0000     -11.226053      -305.4764
  31   2.0000     -11.225956      -305.4738
  32   2.0000     -11.197857      -304.7092
  33   2.0000     -11.197549      -304.7008
  34   2.0000     -11.195677      -304.6499
  35   2.0000     -11.195347      -304.6409
  36   2.0000     -11.173089      -304.0352
  37   2.0000     -11.173048      -304.0341
  38   2.0000     -11.171258      -303.9854
  39   2.0000     -11.169222      -303.9300
  40   2.0000     -11.167885      -303.8936
  41   2.0000     -11.167702      -303.8886
  42   2.0000     -11.166848      -303.8654
  43   2.0000     -11.165558      -303.8303
  44   2.0000     -11.157608      -303.6140
  45   2.0000     -11.155449      -303.5552
  46   2.0000     -11.154856      -303.5391
  47   2.0000     -11.153231      -303.4948
  48   2.0000     -11.144605      -303.2601
  49   2.0000     -11.143026      -303.2172
  50   2.0000     -11.138922      -303.1055
  51   2.0000     -11.137399      -303.0640
  52   2.0000      -1.326077       -36.0844
  53   2.0000      -1.322085       -35.9758
  54   2.0000      -1.318465       -35.8773
  55   2.0000      -1.316094       -35.8128
  56   2.0000      -1.215731       -33.0817
  57   2.0000      -1.213189       -33.0125
  58   2.0000      -1.161732       -31.6123
  59   2.0000      -1.155312       -31.4376
  60   2.0000      -1.115007       -30.3409
  61   2.0000      -1.109532       -30.1919
  62   2.0000      -1.108024       -30.1509
  63   2.0000      -1.103833       -30.0368
  64   2.0000      -1.049833       -28.5674
  65   2.0000      -1.046178       -28.4679
  66   2.0000      -1.042957       -28.3803
  67   2.0000      -1.040616       -28.3166
  68   2.0000      -1.025857       -27.9150
  69   2.0000      -1.010198       -27.4889
  70   2.0000      -1.007782       -27.4231
  71   2.0000      -0.998898       -27.1814
  72   2.0000      -0.979645       -26.6575
  73   2.0000      -0.977061       -26.5872
  74   2.0000      -0.967148       -26.3174
  75   2.0000      -0.961951       -26.1760
  76   2.0000      -0.951878       -25.9019
  77   2.0000      -0.943456       -25.6727
  78   2.0000      -0.938354       -25.5339
  79   2.0000      -0.923308       -25.1245
  80   2.0000      -0.891859       -24.2687
  81   2.0000      -0.876935       -23.8626
  82   2.0000      -0.873519       -23.7697
  83   2.0000      -0.869944       -23.6724
  84   2.0000      -0.866848       -23.5881
  85   2.0000      -0.856490       -23.3063
  86   2.0000      -0.848851       -23.0984
  87   2.0000      -0.843606       -22.9557
  88   2.0000      -0.821847       -22.3636
  89   2.0000      -0.798048       -21.7160
  90   2.0000      -0.797725       -21.7072
  91   2.0000      -0.738821       -20.1043
  92   2.0000      -0.727974       -19.8092
  93   2.0000      -0.727002       -19.7827
  94   2.0000      -0.722189       -19.6518
  95   2.0000      -0.718375       -19.5480
  96   2.0000      -0.711778       -19.3685
  97   2.0000      -0.710707       -19.3393
  98   2.0000      -0.697719       -18.9859
  99   2.0000      -0.690997       -18.8030
 100   2.0000      -0.683036       -18.5863
 101   2.0000      -0.680597       -18.5200
 102   2.0000      -0.677918       -18.4471
 103   2.0000      -0.674253       -18.3474
 104   2.0000      -0.669594       -18.2206
 105   2.0000      -0.667669       -18.1682
 106   2.0000      -0.662290       -18.0218
 107   2.0000      -0.658590       -17.9212
 108   2.0000      -0.655563       -17.8388
 109   2.0000      -0.653424       -17.7806
 110   2.0000      -0.653074       -17.7711
 111   2.0000      -0.650704       -17.7066
 112   2.0000      -0.649145       -17.6641
 113   2.0000      -0.647381       -17.6161
 114   2.0000      -0.634131       -17.2556
 115   2.0000      -0.623132       -16.9563
 116   2.0000      -0.616634       -16.7795
 117   2.0000      -0.613321       -16.6893
 118   2.0000      -0.610521       -16.6131
 119   2.0000      -0.609393       -16.5824
 120   2.0000      -0.608103       -16.5473
 121   2.0000      -0.607278       -16.5249
 122   2.0000      -0.602831       -16.4039
 123   2.0000      -0.594759       -16.1842
 124   2.0000      -0.585329       -15.9276
 125   2.0000      -0.581938       -15.8353
 126   2.0000      -0.579673       -15.7737
 127   2.0000      -0.577831       -15.7236
 128   2.0000      -0.568635       -15.4734
 129   2.0000      -0.564100       -15.3500
 130   2.0000      -0.553415       -15.0592
 131   2.0000      -0.541473       -14.7342
 132   2.0000      -0.539056       -14.6685
 133   2.0000      -0.535736       -14.5781
 134   2.0000      -0.534645       -14.5484
 135   2.0000      -0.530593       -14.4382
 136   2.0000      -0.524465       -14.2714
 137   2.0000      -0.522815       -14.2265
 138   2.0000      -0.517016       -14.0687
 139   2.0000      -0.512867       -13.9558
 140   2.0000      -0.510859       -13.9012
 141   2.0000      -0.508517       -13.8374
 142   2.0000      -0.502987       -13.6870
 143   2.0000      -0.502408       -13.6712
 144   2.0000      -0.497898       -13.5485
 145   2.0000      -0.497049       -13.5254
 146   2.0000      -0.496243       -13.5035
 147   2.0000      -0.494749       -13.4628
 148   2.0000      -0.490869       -13.3572
 149   2.0000      -0.468084       -12.7372
 150   2.0000      -0.459678       -12.5085
 151   2.0000      -0.450814       -12.2673
 152   2.0000      -0.446742       -12.1565
 153   2.0000      -0.445355       -12.1187
 154   2.0000      -0.444941       -12.1075
 155   2.0000      -0.439620       -11.9627
 156   2.0000      -0.434960       -11.8359
 157   2.0000      -0.430774       -11.7219
 158   2.0000      -0.389045       -10.5865
 159   2.0000      -0.382291       -10.4027
 160   2.0000      -0.376930       -10.2568
 161   2.0000      -0.373875       -10.1737
 162   2.0000      -0.360090        -9.7985
 163   2.0000      -0.357061        -9.7161
 164   2.0000      -0.354404        -9.6438
 165   2.0000      -0.352268        -9.5857
 166   2.0000      -0.337465        -9.1829
 167   2.0000      -0.332242        -9.0408
 168   2.0000      -0.327663        -8.9162
 169   2.0000      -0.300199        -8.1688
 170   2.0000      -0.292679        -7.9642
 171   2.0000      -0.290558        -7.9065
 172   2.0000      -0.287200        -7.8151
 173   2.0000      -0.254856        -6.9350
 174   2.0000      -0.246799        -6.7158
 175   2.0000      -0.187384        -5.0990
 176   2.0000      -0.177109        -4.8194
 177   2.0000      -0.064801        -1.7633
 178   2.0000      -0.053874        -1.4660
 179   0.0000       0.031708         0.8628
 180   0.0000       0.070495         1.9183
 181   0.0000       0.092953         2.5294
 182   0.0000       0.095716         2.6046
 183   0.0000       0.133856         3.6424

MULLIKEN ATOMIC CHARGES
-----------------------
   0 C :    0.207514
   1 N :   -0.439220
   2 C :   -0.065798
   3 N :   -0.338850
   4 C :   -0.080253
   5 N :   -0.562651
   6 C :   -0.054273
   7 N :   -0.338075
   8 C :    0.206182
   9 N :   -0.563253
  10 C :    0.113590
  11 N :   -0.437267
  12 C :   -0.066371
  13 N :   -0.440658
  14 C :    0.233187
  15 N :   -0.440638
  16 C :    0.237588
  17 C :   -0.058587
  18 C :   -0.192063
  19 C :    0.225742
  20 C :    0.206897
  21 C :   -0.073658
  22 C :   -0.085521
  23 C :   -0.050692
  24 C :    0.207999
  25 C :    0.113683
  26 C :   -0.073018
  27 C :    0.225355
  28 C :   -0.050764
  29 C :   -0.186542
  30 C :    0.234225
  31 C :    0.209205
  32 C :   -0.064960
  33 C :   -0.083049
  34 C :   -0.049825
  35 C :    0.201884
  36 C :    0.114685
  37 C :   -0.066834
  38 C :    0.237938
  39 C :   -0.062005
  40 C :   -0.190369
  41 C :    0.219811
  42 C :    0.204282
  43 C :   -0.074149
  44 C :   -0.088737
  45 C :   -0.051449
  46 C :    0.201901
  47 C :    0.115639
  48 C :   -0.075785
  49 C :    0.224126
  50 C :   -0.053976
  51 C :   -0.190163
  52 H :    0.056771
  53 H :   -0.013716
  54 H :    0.045988
  55 H :    0.055098
  56 H :    0.061271
  57 H :    0.058464
  58 H :    0.057663
  59 H :   -0.015253
  60 H :    0.047364
  61 H :    0.173086
  62 H :    0.172503
  63 H :    0.057008
  64 H :   -0.021543
  65 H :    0.046225
  66 H :    0.057852
  67 H :    0.063047
  68 H :    0.058251
  69 H :    0.059297
  70 H :   -0.023846
  71 H :    0.048547
  72 H :    0.054738
  73 H :   -0.014718
  74 H :    0.045205
  75 H :    0.053721
  76 H :    0.060611
  77 H :    0.057076
  78 H :    0.056255
  79 H :   -0.013508
  80 H :    0.045406
  81 H :    0.053507
  82 H :   -0.023835
  83 H :    0.043086
  84 H :    0.052904
  85 H :    0.058690
  86 H :    0.056381
  87 H :    0.056617
  88 H :   -0.023001
  89 H :    0.044811
Sum of atomic charges:   -0.0000000

LOEWDIN ATOMIC CHARGES
----------------------
   0 C :   -0.001163
   1 N :    0.141686
   2 C :   -0.100639
   3 N :    0.177157
   4 C :    0.039800
   5 N :   -0.138706
   6 C :   -0.021570
   7 N :    0.177308
   8 C :   -0.002807
   9 N :   -0.138750
  10 C :    0.029735
  11 N :    0.145215
  12 C :   -0.101285
  13 N :    0.139469
  14 C :   -0.046189
  15 N :    0.138520
  16 C :   -0.043661
  17 C :   -0.023991
  18 C :   -0.109497
  19 C :   -0.087858
  20 C :   -0.000225
  21 C :   -0.104136
  22 C :    0.044295
  23 C :   -0.021524
  24 C :    0.000867
  25 C :    0.030555
  26 C :   -0.103462
  27 C :   -0.091197
  28 C :   -0.019992
  29 C :   -0.107958
  30 C :   -0.047690
  31 C :   -0.000765
  32 C :   -0.098919
  33 C :    0.036742
  34 C :   -0.020172
  35 C :   -0.007082
  36 C :    0.029140
  37 C :   -0.101428
  38 C :   -0.040100
  39 C :   -0.026164
  40 C :   -0.109193
  41 C :   -0.094491
  42 C :   -0.004619
  43 C :   -0.105906
  44 C :    0.034289
  45 C :   -0.021719
  46 C :   -0.006672
  47 C :    0.029230
  48 C :   -0.106288
  49 C :   -0.092083
  50 C :   -0.023751
  51 C :   -0.108955
  52 H :    0.030425
  53 H :    0.004481
  54 H :    0.044603
  55 H :    0.030403
  56 H :    0.027618
  57 H :    0.031380
  58 H :    0.031747
  59 H :    0.003827
  60 H :    0.044627
  61 H :    0.060685
  62 H :    0.060289
  63 H :    0.031195
  64 H :   -0.000980
  65 H :    0.044983
  66 H :    0.030735
  67 H :    0.028652
  68 H :    0.032087
  69 H :    0.031571
  70 H :   -0.001868
  71 H :    0.045685
  72 H :    0.029974
  73 H :    0.003897
  74 H :    0.044331
  75 H :    0.029207
  76 H :    0.027395
  77 H :    0.031051
  78 H :    0.030703
  79 H :    0.004551
  80 H :    0.043771
  81 H :    0.028978
  82 H :   -0.002001
  83 H :    0.043578
  84 H :    0.028962
  85 H :    0.026392
  86 H :    0.030479
  87 H :    0.031113
  88 H :   -0.001670
  89 H :    0.043744

  Mayer bond orders larger than 0.100000
B(  0-C ,  1-N ) :   1.1225 B(  0-C , 17-C ) :   1.6297 B(  0-C , 52-H ) :   0.9690
B(  1-N ,  8-C ) :   1.1186 B(  1-N , 10-C ) :   0.9598 B(  2-C , 12-C ) :   1.5392
B(  2-C , 16-C ) :   1.3189 B(  2-C , 53-H ) :   0.9780 B(  3-N , 14-C ) :   1.2003
B(  3-N , 16-C ) :   1.1956 B(  3-N , 61-H ) :   0.8982 B(  4-C ,  6-C ) :   1.2721
B(  4-C , 17-C ) :   1.2697 B(  4-C , 18-C ) :   1.2536 B(  5-N , 19-C ) :   1.4147
B(  5-N , 27-C ) :   1.4092 B(  6-C ,  8-C ) :   1.6298 B(  6-C , 54-H ) :   0.9708
B(  7-N , 30-C ) :   1.1915 B(  7-N , 38-C ) :   1.2031 B(  7-N , 62-H ) :   0.8985
B(  8-C , 55-H ) :   0.9702 B(  9-N , 41-C ) :   1.4096 B(  9-N , 49-C ) :   1.4150
B( 10-C , 56-H ) :   0.9763 B( 10-C , 57-H ) :   0.9823 B( 10-C , 58-H ) :   0.9829
B( 11-N , 20-C ) :   1.1237 B( 11-N , 24-C ) :   1.1260 B( 11-N , 25-C ) :   0.9577
B( 12-C , 14-C ) :   1.3206 B( 12-C , 59-H ) :   0.9775 B( 13-N , 31-C ) :   1.1210
B( 13-N , 35-C ) :   1.1130 B( 13-N , 36-C ) :   0.9616 B( 14-C , 18-C ) :   1.2022
B( 15-N , 42-C ) :   1.1170 B( 15-N , 46-C ) :   1.1129 B( 15-N , 47-C ) :   0.9624
B( 16-C , 51-C ) :   1.2049 B( 17-C , 60-H ) :   0.9713 B( 18-C , 19-C ) :   1.2192
B( 19-C , 21-C ) :   1.2100 B( 20-C , 28-C ) :   1.6218 B( 20-C , 63-H ) :   0.9702
B( 21-C , 26-C ) :   1.6430 B( 21-C , 64-H ) :   0.9738 B( 22-C , 23-C ) :   1.2821
B( 22-C , 28-C ) :   1.2768 B( 22-C , 29-C ) :   1.2298 B( 23-C , 24-C ) :   1.6180
B( 23-C , 65-H ) :   0.9710 B( 24-C , 66-H ) :   0.9691 B( 25-C , 67-H ) :   0.9762
B( 25-C , 68-H ) :   0.9829 B( 25-C , 69-H ) :   0.9821 B( 26-C , 27-C ) :   1.2082
B( 26-C , 70-H ) :   0.9734 B( 27-C , 29-C ) :   1.2283 B( 28-C , 71-H ) :   0.9713
B( 29-C , 30-C ) :   1.2112 B( 30-C , 32-C ) :   1.3133 B( 31-C , 39-C ) :   1.6347
B( 31-C , 72-H ) :   0.9697 B( 32-C , 37-C ) :   1.5450 B( 32-C , 73-H ) :   0.9777
B( 33-C , 34-C ) :   1.2720 B( 33-C , 39-C ) :   1.2645 B( 33-C , 40-C ) :   1.2571
B( 34-C , 35-C ) :   1.6318 B( 34-C , 74-H ) :   0.9705 B( 35-C , 75-H ) :   0.9698
B( 36-C , 76-H ) :   0.9762 B( 36-C , 77-H ) :   0.9821 B( 36-C , 78-H ) :   0.9832
B( 37-C , 38-C ) :   1.3143 B( 37-C , 79-H ) :   0.9779 B( 38-C , 40-C ) :   1.2072
B( 39-C , 80-H ) :   0.9716 B( 40-C , 41-C ) :   1.2132 B( 41-C , 43-C ) :   1.2192
B( 42-C , 50-C ) :   1.6338 B( 42-C , 81-H ) :   0.9696 B( 43-C , 48-C ) :   1.6321
B( 43-C , 82-H ) :   0.9738 B( 44-C , 45-C ) :   1.2717 B( 44-C , 50-C ) :   1.2659
B( 44-C , 51-C ) :   1.2551 B( 45-C , 46-C ) :   1.6321 B( 45-C , 83-H ) :   0.9711
B( 46-C , 84-H ) :   0.9703 B( 47-C , 85-H ) :   0.9761 B( 47-C , 86-H ) :   0.9828
B( 47-C , 87-H ) :   0.9826 B( 48-C , 49-C ) :   1.2184 B( 48-C , 88-H ) :   0.9737
B( 49-C , 51-C ) :   1.2145 B( 50-C , 89-H ) :   0.9714

MP2 TOTAL ENERGY:    -2130.913202535 Eh
FINAL SINGLE POINT ENERGY     -2130.913202534513

DIPOLE MOMENT
-------------
                                X             Y             Z
Electronic contribution:     -0.66838      -0.36837      -0.05717
Nuclear contribution   :      0.02818       0.20680       0.07234
                        -----------------------------------------
Total Dipole Moment    :     -0.64020      -0.16157       0.01516
                        -----------------------------------------
Magnitude (a.u.)       :      0.66045
Magnitude (Debye)      :      1.67873

Rotational constants in cm-1:     0.001499     0.001473     0.000762
Rotational constants in MHz :    44.948454    44.155159    22.851580

                             ****ORCA TERMINATED NORMALLY****
TOTAL RUN TIME: 0 days 1 hours 9 minutes 8 seconds 371 msec
