                         Program Version 5.0.4 -  RELEASE  -
|  1> ! PAL2
|  2> ! mp2 cc-pvdz TightSCF  NoKeepInts
|  3>
|  4> %scf
|  5>   MaxCore 2000
|  6> end
|  7> %mp2
|  8>   MaxCore 2000
|  9> end
| 10> * xyz 0 1
| 11>    C       -3.63700         6.06100         1.16900
| 12>    C        1.47400         4.04100         0.05700
| 13>    C       -2.80200         4.09300         0.04900
| 14>    C       -3.59200         4.44900        -1.05500
| 15>    C       -4.36900         5.58900        -1.01300
| 16>    C       -5.20100         7.61100         0.08800
| 17>    C        0.13200         4.30700         0.06100
| 18>    C       -0.56900         3.05600         0.04700
| 19>    C        1.64900         2.61800         0.02300
| 20>    C       -2.83900         4.93300         1.17300
| 21>    N       -4.38700         6.37500         0.08900
| 22>    N        0.38800         2.06700         0.02500
| 23>    N       -2.01000         0.39500        -0.07500
| 24>    N       -0.38800        -2.07400        -0.02700
| 25>    N        2.01000        -0.40100         0.06500
| 26>    C       -1.96000         2.86100         0.02400
| 27>    C       -2.62300         1.61500        -0.01800
| 28>    C       -5.57300        -4.32900         1.06600
| 29>    C       -4.07300         1.47100         0.05600
| 30>    C       -4.10600        -2.75600        -0.02600
| 31>    C       -4.99500        -2.75700        -1.11100
| 32>    C       -6.13200        -3.54200        -1.07600
| 33>    C       -7.65100        -5.11300         0.04000
| 34>    C       -4.32400         0.14100         0.03700
| 35>    C       -3.02500        -0.52000        -0.04800
| 36>    C       -4.42200        -3.56600         1.07500
| 37>    N       -6.40700        -4.31300         0.00100
| 38>    C       -2.86700        -1.92200        -0.04000
| 39>    C       -1.65000        -2.62400        -0.02700
| 40>    C        3.56800        -6.14200        -1.04000
| 41>    C       -1.47600        -4.04900        -0.03400
| 42>    C        2.80300        -4.09900        -0.00800
| 43>    C        3.65700        -4.38400         1.06900
| 44>    C        4.42700        -5.53000         1.05900
| 45>    C        5.24500        -7.58800         0.01400
| 46>    C       -0.13400        -4.31500        -0.02200
| 47>    C        0.56800        -3.06400        -0.02700
| 48>    C        2.77500        -5.01200        -1.07400
| 49>    N        4.37600        -6.39100         0.01700
| 50>    C        1.95900        -2.86900        -0.00900
| 51>    C        2.62100        -1.62200         0.00900
| 52>    C        5.54300         4.33900        -1.13000
| 53>    C        4.07000        -1.47900        -0.09400
| 54>    C        4.10400         2.75100        -0.02100
| 55>    C        5.02700         2.72900         1.03600
| 56>    C        6.16600         3.50900         0.97800
| 57>    C        7.61900         5.15300        -0.11500
| 58>    C        4.32100        -0.14800        -0.09200
| 59>    C        3.02500         0.51400         0.01500
| 60>    C        4.38700         3.58200        -1.11500
| 61>    C        2.86600         1.91600         0.01300
| 62>    N        6.41300         4.29600        -0.09500
| 63>    H       -3.70500         6.73000         2.01800
| 64>    H        2.27400         4.76600         0.08100
| 65>    H       -3.59900         3.84600        -1.95500
| 66>    H       -4.98700         5.90900        -1.84200
| 67>    H       -4.61600         8.42200        -0.35300
| 68>    H       -6.10300         7.43700        -0.49800
| 69>    H       -5.46500         7.85700         1.11600
| 70>    H       -0.33200         5.28200         0.06900
| 71>    H       -2.26200         4.70500         2.06200
| 72>    H        0.18200         1.07200         0.00500
| 73>    H       -0.18300        -1.08000        -0.02100
| 74>    H       -5.86400        -4.96200         1.89500
| 75>    H       -4.79400         2.27200         0.13900
| 76>    H       -4.80000        -2.16000        -1.99400
| 77>    H       -6.84100        -3.58200        -1.89300
| 78>    H       -8.42800        -4.53600         0.54600
| 79>    H       -7.95600        -5.33700        -0.98100
| 80>    H       -7.45600        -6.03700         0.58400
| 81>    H       -5.28700        -0.34400         0.10000
| 82>    H       -3.78000        -3.60100         1.94700
| 83>    H        3.58700        -6.86800        -1.84300
| 84>    H       -2.27600        -4.77400        -0.05000
| 85>    H        3.71400        -3.72400         1.92600
| 86>    H        5.09200        -5.79500         1.87100
| 87>    H        6.20500        -7.32900        -0.43900
| 88>    H        5.39300        -7.91700         1.04200
| 89>    H        4.75900        -8.37300        -0.56400
| 90>    H        0.32900        -5.29000        -0.00800
| 91>    H        2.14600        -4.84200        -1.94000
| 92>    H        5.80800         4.98600        -1.95600
| 93>    H        4.78800        -2.28100        -0.18500
| 94>    H        4.86000         2.11400         1.91200
| 95>    H        6.90100         3.53100         1.77200
| 96>    H        7.38300         6.10900         0.35600
| 97>    H        8.41400         4.65200         0.43500
| 98>    H        7.92100         5.31000        -1.15000
| 99>    H        5.28300         0.33600        -0.17900
|100>    H        3.72000         3.63200        -1.96700
|101> *
|102>
|103>                          ****END OF INPUT****

CARTESIAN COORDINATES (ANGSTROEM)
---------------------------------
  C     -3.637000    6.061000    1.169000
  C      1.474000    4.041000    0.057000
  C     -2.802000    4.093000    0.049000
  C     -3.592000    4.449000   -1.055000
  C     -4.369000    5.589000   -1.013000
  C     -5.201000    7.611000    0.088000
  C      0.132000    4.307000    0.061000
  C     -0.569000    3.056000    0.047000
  C      1.649000    2.618000    0.023000
  C     -2.839000    4.933000    1.173000
  N     -4.387000    6.375000    0.089000
  N      0.388000    2.067000    0.025000
  N     -2.010000    0.395000   -0.075000
  N     -0.388000   -2.074000   -0.027000
  N      2.010000   -0.401000    0.065000
  C     -1.960000    2.861000    0.024000
  C     -2.623000    1.615000   -0.018000
  C     -5.573000   -4.329000    1.066000
  C     -4.073000    1.471000    0.056000
  C     -4.106000   -2.756000   -0.026000
  C     -4.995000   -2.757000   -1.111000
  C     -6.132000   -3.542000   -1.076000
  C     -7.651000   -5.113000    0.040000
  C     -4.324000    0.141000    0.037000
  C     -3.025000   -0.520000   -0.048000
  C     -4.422000   -3.566000    1.075000
  N     -6.407000   -4.313000    0.001000
  C     -2.867000   -1.922000   -0.040000
  C     -1.650000   -2.624000   -0.027000
  C      3.568000   -6.142000   -1.040000
  C     -1.476000   -4.049000   -0.034000
  C      2.803000   -4.099000   -0.008000
  C      3.657000   -4.384000    1.069000
  C      4.427000   -5.530000    1.059000
  C      5.245000   -7.588000    0.014000
  C     -0.134000   -4.315000   -0.022000
  C      0.568000   -3.064000   -0.027000
  C      2.775000   -5.012000   -1.074000
  N      4.376000   -6.391000    0.017000
  C      1.959000   -2.869000   -0.009000
  C      2.621000   -1.622000    0.009000
  C      5.543000    4.339000   -1.130000
  C      4.070000   -1.479000   -0.094000
  C      4.104000    2.751000   -0.021000
  C      5.027000    2.729000    1.036000
  C      6.166000    3.509000    0.978000
  C      7.619000    5.153000   -0.115000
  C      4.321000   -0.148000   -0.092000
  C      3.025000    0.514000    0.015000
  C      4.387000    3.582000   -1.115000
  C      2.866000    1.916000    0.013000
  N      6.413000    4.296000   -0.095000
  H     -3.705000    6.730000    2.018000
  H      2.274000    4.766000    0.081000
  H     -3.599000    3.846000   -1.955000
  H     -4.987000    5.909000   -1.842000
  H     -4.616000    8.422000   -0.353000
  H     -6.103000    7.437000   -0.498000
  H     -5.465000    7.857000    1.116000
  H     -0.332000    5.282000    0.069000
  H     -2.262000    4.705000    2.062000
  H      0.182000    1.072000    0.005000
  H     -0.183000   -1.080000   -0.021000
  H     -5.864000   -4.962000    1.895000
  H     -4.794000    2.272000    0.139000
  H     -4.800000   -2.160000   -1.994000
  H     -6.841000   -3.582000   -1.893000
  H     -8.428000   -4.536000    0.546000
  H     -7.956000   -5.337000   -0.981000
  H     -7.456000   -6.037000    0.584000
  H     -5.287000   -0.344000    0.100000
  H     -3.780000   -3.601000    1.947000
  H      3.587000   -6.868000   -1.843000
  H     -2.276000   -4.774000   -0.050000
  H      3.714000   -3.724000    1.926000
  H      5.092000   -5.795000    1.871000
  H      6.205000   -7.329000   -0.439000
  H      5.393000   -7.917000    1.042000
  H      4.759000   -8.373000   -0.564000
  H      0.329000   -5.290000   -0.008000
  H      2.146000   -4.842000   -1.940000
  H      5.808000    4.986000   -1.956000
  H      4.788000   -2.281000   -0.185000
  H      4.860000    2.114000    1.912000
  H      6.901000    3.531000    1.772000
  H      7.383000    6.109000    0.356000
  H      8.414000    4.652000    0.435000
  H      7.921000    5.310000   -1.150000
  H      5.283000    0.336000   -0.179000
  H      3.720000    3.632000   -1.967000

 Total Charge           Charge          ....    0
 Multiplicity           Mult            ....    1
 Number of Electrons    NEL             ....  358
 Basis Dimension        Dim             ....  918

ORBITAL ENERGIES
----------------

  NO   OCC          E(Eh)            E(eV)
   0   2.0000     -15.646973      -425.7758
   1   2.0000     -15.639165      -425.5633
   2   2.0000     -15.627694      -425.2512
   3   2.0000     -15.621174      -425.0738
   4   2.0000     -15.516122      -422.2151
   5   2.0000     -15.514848      -422.1805
   6   2.0000     -15.445525      -420.2941
   7   2.0000     -15.439079      -420.1187
   8   2.0000     -11.307369      -307.6892
   9   2.0000     -11.302500      -307.5567
  10   2.0000     -11.301072      -307.5178
  11   2.0000     -11.299986      -307.4882
  12   2.0000     -11.295333      -307.3616
  13   2.0000     -11.295215      -307.3584
  14   2.0000     -11.293189      -307.3033
  15   2.0000     -11.291411      -307.2549
  16   2.0000     -11.285620      -307.0973
  17   2.0000     -11.283398      -307.0369
  18   2.0000     -11.280833      -306.9671
  19   2.0000     -11.277844      -306.8857
  20   2.0000     -11.249550      -306.1158
  21   2.0000     -11.242472      -305.9232
  22   2.0000     -11.239337      -305.8379
  23   2.0000     -11.239090      -305.8312
  24   2.0000     -11.234169      -305.6973
  25   2.0000     -11.233449      -305.6777
  26   2.0000     -11.231863      -305.6345
  27   2.0000     -11.226355      -305.4846
  28   2.0000     -11.225488      -305.4610
  29   2.0000     -11.225383      -305.4582
  30   2.0000     -11.221211      -305.3447
  31   2.0000     -11.220371      -305.3218
  32   2.0000     -11.197626      -304.7029
  33   2.0000     -11.197415      -304.6971
  34   2.0000     -11.194778      -304.6254
  35   2.0000     -11.194643      -304.6217
  36   2.0000     -11.176133      -304.1180
  37   2.0000     -11.176106      -304.1173
  38   2.0000     -11.172674      -304.0239
  39   2.0000     -11.170373      -303.9613
  40   2.0000     -11.165101      -303.8178
  41   2.0000     -11.163579      -303.7764
  42   2.0000     -11.163548      -303.7756
  43   2.0000     -11.162034      -303.7344
  44   2.0000     -11.158064      -303.6264
  45   2.0000     -11.155051      -303.5444
  46   2.0000     -11.154750      -303.5362
  47   2.0000     -11.151393      -303.4448
  48   2.0000     -11.147982      -303.3520
  49   2.0000     -11.146274      -303.3055
  50   2.0000     -11.134857      -302.9949
  51   2.0000     -11.133300      -302.9525
  52   2.0000      -1.332052       -36.2470
  53   2.0000      -1.325619       -36.0719
  54   2.0000      -1.315536       -35.7976
  55   2.0000      -1.310248       -35.6537
  56   2.0000      -1.215373       -33.0720
  57   2.0000      -1.212282       -32.9879
  58   2.0000      -1.163416       -31.6582
  59   2.0000      -1.152455       -31.3599
  60   2.0000      -1.119214       -30.4554
  61   2.0000      -1.112704       -30.2782
  62   2.0000      -1.105144       -30.0725
  63   2.0000      -1.099177       -29.9101
  64   2.0000      -1.055438       -28.7199
  65   2.0000      -1.049382       -28.5551
  66   2.0000      -1.040038       -28.3009
  67   2.0000      -1.035251       -28.1706
  68   2.0000      -1.026734       -27.9389
  69   2.0000      -1.011505       -27.5244
  70   2.0000      -1.006948       -27.4004
  71   2.0000      -0.997192       -27.1350
  72   2.0000      -0.979452       -26.6522
  73   2.0000      -0.976350       -26.5678
  74   2.0000      -0.968577       -26.3563
  75   2.0000      -0.961593       -26.1663
  76   2.0000      -0.950464       -25.8634
  77   2.0000      -0.945852       -25.7379
  78   2.0000      -0.935010       -25.4429
  79   2.0000      -0.922702       -25.1080
  80   2.0000      -0.891580       -24.2611
  81   2.0000      -0.881432       -23.9850
  82   2.0000      -0.875975       -23.8365
  83   2.0000      -0.867344       -23.6016
  84   2.0000      -0.862733       -23.4762
  85   2.0000      -0.856944       -23.3186
  86   2.0000      -0.851827       -23.1794
  87   2.0000      -0.840009       -22.8578
  88   2.0000      -0.822065       -22.3695
  89   2.0000      -0.797408       -21.6986
  90   2.0000      -0.797111       -21.6905
  91   2.0000      -0.739234       -20.1156
  92   2.0000      -0.729066       -19.8389
  93   2.0000      -0.727217       -19.7886
  94   2.0000      -0.723027       -19.6746
  95   2.0000      -0.716915       -19.5083
  96   2.0000      -0.710532       -19.3346
  97   2.0000      -0.709564       -19.3082
  98   2.0000      -0.697556       -18.9815
  99   2.0000      -0.690573       -18.7915
 100   2.0000      -0.685973       -18.6663
 101   2.0000      -0.682209       -18.5638
 102   2.0000      -0.679989       -18.5034
 103   2.0000      -0.671999       -18.2860
 104   2.0000      -0.669080       -18.2066
 105   2.0000      -0.666305       -18.1311
 106   2.0000      -0.662418       -18.0253
 107   2.0000      -0.659611       -17.9489
 108   2.0000      -0.659152       -17.9364
 109   2.0000      -0.655923       -17.8486
 110   2.0000      -0.650845       -17.7104
 111   2.0000      -0.648858       -17.6563
 112   2.0000      -0.647509       -17.6196
 113   2.0000      -0.643535       -17.5115
 114   2.0000      -0.633473       -17.2377
 115   2.0000      -0.623151       -16.9568
 116   2.0000      -0.621677       -16.9167
 117   2.0000      -0.616285       -16.7700
 118   2.0000      -0.611246       -16.6328
 119   2.0000      -0.608011       -16.5448
 120   2.0000      -0.607133       -16.5209
 121   2.0000      -0.603217       -16.4144
 122   2.0000      -0.600769       -16.3478
 123   2.0000      -0.594139       -16.1673
 124   2.0000      -0.589730       -16.0474
 125   2.0000      -0.584904       -15.9160
 126   2.0000      -0.577434       -15.7128
 127   2.0000      -0.573410       -15.6033
 128   2.0000      -0.568577       -15.4718
 129   2.0000      -0.564322       -15.3560
 130   2.0000      -0.553277       -15.0554
 131   2.0000      -0.544772       -14.8240
 132   2.0000      -0.540775       -14.7152
 133   2.0000      -0.534533       -14.5454
 134   2.0000      -0.532085       -14.4788
 135   2.0000      -0.528617       -14.3844
 136   2.0000      -0.523868       -14.2552
 137   2.0000      -0.523399       -14.2424
 138   2.0000      -0.519880       -14.1467
 139   2.0000      -0.515010       -14.0141
 140   2.0000      -0.509374       -13.8608
 141   2.0000      -0.504855       -13.7378
 142   2.0000      -0.503759       -13.7080
 143   2.0000      -0.501326       -13.6418
 144   2.0000      -0.497831       -13.5467
 145   2.0000      -0.496560       -13.5121
 146   2.0000      -0.495657       -13.4875
 147   2.0000      -0.493769       -13.4361
 148   2.0000      -0.489502       -13.3200
 149   2.0000      -0.467191       -12.7129
 150   2.0000      -0.459892       -12.5143
 151   2.0000      -0.451571       -12.2879
 152   2.0000      -0.446613       -12.1529
 153   2.0000      -0.444887       -12.1060
 154   2.0000      -0.443303       -12.0629
 155   2.0000      -0.439557       -11.9610
 156   2.0000      -0.434323       -11.8185
 157   2.0000      -0.428058       -11.6480
 158   2.0000      -0.389306       -10.5936
 159   2.0000      -0.384333       -10.4582
 160   2.0000      -0.374475       -10.1900
 161   2.0000      -0.371977       -10.1220
 162   2.0000      -0.364919        -9.9300
 163   2.0000      -0.359706        -9.7881
 164   2.0000      -0.351736        -9.5712
 165   2.0000      -0.347846        -9.4654
 166   2.0000      -0.337826        -9.1927
 167   2.0000      -0.333338        -9.0706
 168   2.0000      -0.325159        -8.8480
 169   2.0000      -0.300059        -8.1650
 170   2.0000      -0.292595        -7.9619
 171   2.0000      -0.289710        -7.8834
 172   2.0000      -0.286676        -7.8008
 173   2.0000      -0.256322        -6.9749
 174   2.0000      -0.244345        -6.6490
 175   2.0000      -0.186761        -5.0820
 176   2.0000      -0.176427        -4.8008
 177   2.0000      -0.063672        -1.7326
 178   2.0000      -0.053185        -1.4472
 179   0.0000       0.032381         0.8811
 180   0.0000       0.069271         1.8850
 181   0.0000       0.092563         2.5188
 182   0.0000       0.095447         2.5972
 183   0.0000       0.129118         3.5135

MULLIKEN ATOMIC CHARGES
-----------------------
   0 C :    0.211633
   1 N :   -0.435573
   2 C :   -0.066488
   3 N :   -0.339800
   4 C :   -0.083790
   5 N :   -0.563233
   6 C :   -0.045949
   7 N :   -0.337774
   8 C :    0.209530
   9 N :   -0.563623
  10 C :    0.112231
  11 N :   -0.437443
  12 C :   -0.063940
  13 N :   -0.442725
  14 C :    0.230813
  15 N :   -0.440573
  16 C :    0.240803
  17 C :   -0.050648
  18 C :   -0.188672
  19 C :    0.225844
  20 C :    0.204237
  21 C :   -0.070950
  22 C :   -0.085483
  23 C :   -0.053534
  24 C :    0.210477
  25 C :    0.113732
  26 C :   -0.072636
  27 C :    0.229327
  28 C :   -0.048548
  29 C :   -0.188548
  30 C :    0.231834
  31 C :    0.204932
  32 C :   -0.065333
  33 C :   -0.087115
  34 C :   -0.049938
  35 C :    0.197192
  36 C :    0.115931
  37 C :   -0.067399
  38 C :    0.239110
  39 C :   -0.062644
  40 C :   -0.192762
  41 C :    0.219010
  42 C :    0.206103
  43 C :   -0.074592
  44 C :   -0.088564
  45 C :   -0.049045
  46 C :    0.199458
  47 C :    0.115696
  48 C :   -0.077326
  49 C :    0.221120
  50 C :   -0.056051
  51 C :   -0.189936
  52 H :    0.060801
  53 H :   -0.012889
  54 H :    0.048309
  55 H :    0.059031
  56 H :    0.064954
  57 H :    0.061101
  58 H :    0.060341
  59 H :   -0.018087
  60 H :    0.049888
  61 H :    0.173735
  62 H :    0.171718
  63 H :    0.056673
  64 H :   -0.024269
  65 H :    0.045649
  66 H :    0.057754
  67 H :    0.062581
  68 H :    0.058094
  69 H :    0.059512
  70 H :   -0.022456
  71 H :    0.048654
  72 H :    0.051402
  73 H :   -0.015897
  74 H :    0.042146
  75 H :    0.050330
  76 H :    0.057787
  77 H :    0.054927
  78 H :    0.054115
  79 H :   -0.013086
  80 H :    0.042262
  81 H :    0.053310
  82 H :   -0.023606
  83 H :    0.043391
  84 H :    0.052637
  85 H :    0.058224
  86 H :    0.056603
  87 H :    0.056468
  88 H :   -0.024686
  89 H :    0.044206
Sum of atomic charges:    0.0000000

LOEWDIN ATOMIC CHARGES
----------------------
   0 C :    0.004987
   1 N :    0.149346
   2 C :   -0.100688
   3 N :    0.175921
   4 C :    0.051445
   5 N :   -0.140445
   6 C :   -0.018613
   7 N :    0.177432
   8 C :    0.003788
   9 N :   -0.138578
  10 C :    0.031422
  11 N :    0.144868
  12 C :   -0.100263
  13 N :    0.134350
  14 C :   -0.049215
  15 N :    0.138447
  16 C :   -0.039199
  17 C :   -0.021039
  18 C :   -0.111234
  19 C :   -0.088558
  20 C :   -0.002659
  21 C :   -0.102828
  22 C :    0.044017
  23 C :   -0.023515
  24 C :    0.002981
  25 C :    0.030480
  26 C :   -0.102297
  27 C :   -0.084754
  28 C :   -0.018759
  29 C :   -0.110080
  30 C :   -0.051034
  31 C :   -0.005867
  32 C :   -0.099684
  33 C :    0.028173
  34 C :   -0.021436
  35 C :   -0.012593
  36 C :    0.027960
  37 C :   -0.102921
  38 C :   -0.038072
  39 C :   -0.027760
  40 C :   -0.109798
  41 C :   -0.094464
  42 C :   -0.003109
  43 C :   -0.107302
  44 C :    0.034405
  45 C :   -0.020197
  46 C :   -0.008859
  47 C :    0.029177
  48 C :   -0.108269
  49 C :   -0.096876
  50 C :   -0.025135
  51 C :   -0.108998
  52 H :    0.032259
  53 H :    0.004872
  54 H :    0.046211
  55 H :    0.032030
  56 H :    0.029673
  57 H :    0.032415
  58 H :    0.033032
  59 H :    0.003011
  60 H :    0.046479
  61 H :    0.060982
  62 H :    0.059865
  63 H :    0.030951
  64 H :   -0.001746
  65 H :    0.044586
  66 H :    0.030798
  67 H :    0.028444
  68 H :    0.032012
  69 H :    0.031646
  70 H :   -0.001206
  71 H :    0.045855
  72 H :    0.028425
  73 H :    0.003339
  74 H :    0.043045
  75 H :    0.027615
  76 H :    0.025943
  77 H :    0.030045
  78 H :    0.029703
  79 H :    0.004784
  80 H :    0.042417
  81 H :    0.028966
  82 H :   -0.001840
  83 H :    0.043843
  84 H :    0.028752
  85 H :    0.026181
  86 H :    0.030561
  87 H :    0.031040
  88 H :   -0.002475
  89 H :    0.043384

  Mayer bond orders larger than 0.100000
B(  0-C ,  1-N ) :   1.1340 B(  0-C , 17-C ) :   1.6119 B(  0-C , 52-H ) :   0.9687
B(  1-N ,  8-C ) :   1.1288 B(  1-N , 10-C ) :   0.9546 B(  2-C , 12-C ) :   1.5453
B(  2-C , 16-C ) :   1.3114 B(  2-C , 53-H ) :   0.9782 B(  3-N , 14-C ) :   1.1955
B(  3-N , 16-C ) :   1.1971 B(  3-N , 61-H ) :   0.8978 B(  4-C ,  6-C ) :   1.2869
B(  4-C , 17-C ) :   1.2848 B(  4-C , 18-C ) :   1.2152 B(  5-N , 19-C ) :   1.4048
B(  5-N , 27-C ) :   1.4171 B(  6-C ,  8-C ) :   1.6122 B(  6-C , 54-H ) :   0.9710
B(  7-N , 30-C ) :   1.1904 B(  7-N , 38-C ) :   1.2053 B(  7-N , 62-H ) :   0.8990
B(  8-C , 55-H ) :   0.9700 B(  9-N , 41-C ) :   1.4140 B(  9-N , 49-C ) :   1.4114
B( 10-C , 56-H ) :   0.9762 B( 10-C , 57-H ) :   0.9821 B( 10-C , 58-H ) :   0.9828
B( 11-N , 20-C ) :   1.1203 B( 11-N , 24-C ) :   1.1288 B( 11-N , 25-C ) :   0.9579
B( 12-C , 14-C ) :   1.3128 B( 12-C , 59-H ) :   0.9779 B( 13-N , 31-C ) :   1.1134
B( 13-N , 35-C ) :   1.1049 B( 13-N , 36-C ) :   0.9655 B( 14-C , 18-C ) :   1.2146
B( 15-N , 42-C ) :   1.1194 B( 15-N , 46-C ) :   1.1101 B( 15-N , 47-C ) :   0.9626
B( 16-C , 51-C ) :   1.2119 B( 17-C , 60-H ) :   0.9715 B( 18-C , 19-C ) :   1.2366
B( 19-C , 21-C ) :   1.2026 B( 20-C , 28-C ) :   1.6219 B( 20-C , 63-H ) :   0.9703
B( 21-C , 26-C ) :   1.6486 B( 21-C , 64-H ) :   0.9739 B( 22-C , 23-C ) :   1.2784
B( 22-C , 28-C ) :   1.2783 B( 22-C , 29-C ) :   1.2339 B( 23-C , 24-C ) :   1.6198
B( 23-C , 65-H ) :   0.9712 B( 24-C , 66-H ) :   0.9690 B( 25-C , 67-H ) :   0.9762
B( 25-C , 68-H ) :   0.9830 B( 25-C , 69-H ) :   0.9820 B( 26-C , 27-C ) :   1.2024
B( 26-C , 70-H ) :   0.9737 B( 27-C , 29-C ) :   1.2298 B( 28-C , 71-H ) :   0.9712
B( 29-C , 30-C ) :   1.2051 B( 30-C , 32-C ) :   1.3199 B( 31-C , 39-C ) :   1.6438
B( 31-C , 72-H ) :   0.9700 B( 32-C , 37-C ) :   1.5383 B( 32-C , 73-H ) :   0.9775
B( 33-C , 34-C ) :   1.2647 B( 33-C , 39-C ) :   1.2572 B( 33-C , 40-C ) :   1.2745
B( 34-C , 35-C ) :   1.6412 B( 34-C , 74-H ) :   0.9706 B( 35-C , 75-H ) :   0.9700
B( 36-C , 76-H ) :   0.9761 B( 36-C , 77-H ) :   0.9822 B( 36-C , 78-H ) :   0.9833
B( 37-C , 38-C ) :   1.3201 B( 37-C , 79-H ) :   0.9782 B( 38-C , 40-C ) :   1.2020
B( 39-C , 80-H ) :   0.9717 B( 40-C , 41-C ) :   1.2052 B( 41-C , 43-C ) :   1.2259
B( 42-C , 50-C ) :   1.6341 B( 42-C , 81-H ) :   0.9695 B( 43-C , 48-C ) :   1.6254
B( 43-C , 82-H ) :   0.9741 B( 44-C , 45-C ) :   1.2740 B( 44-C , 50-C ) :   1.2641
B( 44-C , 51-C ) :   1.2532 B( 45-C , 46-C ) :   1.6313 B( 45-C , 83-H ) :   0.9709
B( 46-C , 84-H ) :   0.9704 B( 47-C , 85-H ) :   0.9761 B( 47-C , 86-H ) :   0.9827
B( 47-C , 87-H ) :   0.9827 B( 48-C , 49-C ) :   1.2240 B( 48-C , 88-H ) :   0.9734
B( 49-C , 51-C ) :   1.2101 B( 50-C , 89-H ) :   0.9715

MP2 TOTAL ENERGY:    -2130.909631862 Eh
FINAL SINGLE POINT ENERGY     -2130.909631862237

DIPOLE MOMENT
-------------
                                X             Y             Z
Electronic contribution:     -1.33260       0.54897      -0.05903
Nuclear contribution   :      0.03463       0.21148       0.07471
                        -----------------------------------------
Total Dipole Moment    :     -1.29797       0.76045       0.01568
                        -----------------------------------------
Magnitude (a.u.)       :      1.50441
Magnitude (Debye)      :      3.82392

Rotational constants in cm-1:     0.001499     0.001473     0.000762
Rotational constants in MHz :    44.941213    44.144524    22.856140

                             ****ORCA TERMINATED NORMALLY****
TOTAL RUN TIME: 0 days 1 hours 11 minutes 1 seconds 817 msec
