                         Program Version 5.0.4 -  RELEASE  -
|  1> ! PAL2
|  2> ! mp2 cc-pvdz TightSCF  NoKeepInts
|  3>
|  4> %scf
|  5>   MaxCore 2000
|  6> end
|  7> %mp2
|  8>   MaxCore 2000
|  9> end
| 10> * xyz 0 1
| 11>    C       -3.41200         6.25500        -0.83300
| 12>    C        1.47400         4.04100         0.05700
| 13>    C       -2.80200         4.09300         0.04900
| 14>    C       -3.80000         4.26400         1.02000
| 15>    C       -4.56700         5.41300         1.03200
| 16>    C       -5.22900         7.59100         0.13300
| 17>    C        0.13200         4.30700         0.06100
| 18>    C       -0.56900         3.05600         0.04700
| 19>    C        1.64900         2.61800         0.02300
| 20>    C       -2.62400         5.12200        -0.88900
| 21>    N       -4.36500         6.38900         0.11700
| 22>    N        0.38800         2.06700         0.02500
| 23>    N       -2.01000         0.39500        -0.07500
| 24>    N       -0.38800        -2.07400        -0.02700
| 25>    N        2.01000        -0.40100         0.06500
| 26>    C       -1.96000         2.86100         0.02400
| 27>    C       -2.62300         1.61500        -0.01800
| 28>    C       -5.57300        -4.32900         1.06600
| 29>    C       -4.07300         1.47100         0.05600
| 30>    C       -4.10600        -2.75600        -0.02600
| 31>    C       -4.99500        -2.75700        -1.11100
| 32>    C       -6.13200        -3.54200        -1.07600
| 33>    C       -7.65100        -5.11300         0.04000
| 34>    C       -4.32400         0.14100         0.03700
| 35>    C       -3.02500        -0.52000        -0.04800
| 36>    C       -4.42200        -3.56600         1.07500
| 37>    N       -6.40700        -4.31300         0.00100
| 38>    C       -2.86700        -1.92200        -0.04000
| 39>    C       -1.65000        -2.62400        -0.02700
| 40>    C        3.56800        -6.14200        -1.04000
| 41>    C       -1.47600        -4.04900        -0.03400
| 42>    C        2.80300        -4.09900        -0.00800
| 43>    C        3.65700        -4.38400         1.06900
| 44>    C        4.42700        -5.53000         1.05900
| 45>    C        5.24500        -7.58800         0.01400
| 46>    C       -0.13400        -4.31500        -0.02200
| 47>    C        0.56800        -3.06400        -0.02700
| 48>    C        2.77500        -5.01200        -1.07400
| 49>    N        4.37600        -6.39100         0.01700
| 50>    C        1.95900        -2.86900        -0.00900
| 51>    C        2.62100        -1.62200         0.00900
| 52>    C        5.54300         4.33900        -1.13000
| 53>    C        4.07000        -1.47900        -0.09400
| 54>    C        4.10400         2.75100        -0.02100
| 55>    C        5.02700         2.72900         1.03600
| 56>    C        6.16600         3.50900         0.97800
| 57>    C        7.61900         5.15300        -0.11500
| 58>    C        4.32100        -0.14800        -0.09200
| 59>    C        3.02500         0.51400         0.01500
| 60>    C        4.38700         3.58200        -1.11500
| 61>    C        2.86600         1.91600         0.01300
| 62>    N        6.41300         4.29600        -0.09500
| 63>    H       -3.30200         7.07800        -1.52800
| 64>    H        2.27400         4.76600         0.08100
| 65>    H       -3.99200         3.50200         1.76500
| 66>    H       -5.35300         5.58600         1.75500
| 67>    H       -6.13600         7.38500        -0.44000
| 68>    H       -5.48300         7.82600         1.16600
| 69>    H       -4.68300         8.42000        -0.31600
| 70>    H       -0.33200         5.28200         0.06900
| 71>    H       -1.86000         5.05500        -1.65500
| 72>    H        0.18200         1.07200         0.00500
| 73>    H       -0.18300        -1.08000        -0.02100
| 74>    H       -5.86400        -4.96200         1.89500
| 75>    H       -4.79400         2.27200         0.13900
| 76>    H       -4.80000        -2.16000        -1.99400
| 77>    H       -6.84100        -3.58200        -1.89300
| 78>    H       -8.42800        -4.53600         0.54600
| 79>    H       -7.95600        -5.33700        -0.98100
| 80>    H       -7.45600        -6.03700         0.58400
| 81>    H       -5.28700        -0.34400         0.10000
| 82>    H       -3.78000        -3.60100         1.94700
| 83>    H        3.58700        -6.86800        -1.84300
| 84>    H       -2.27600        -4.77400        -0.05000
| 85>    H        3.71400        -3.72400         1.92600
| 86>    H        5.09200        -5.79500         1.87100
| 87>    H        6.20500        -7.32900        -0.43900
| 88>    H        5.39300        -7.91700         1.04200
| 89>    H        4.75900        -8.37300        -0.56400
| 90>    H        0.32900        -5.29000        -0.00800
| 91>    H        2.14600        -4.84200        -1.94000
| 92>    H        5.80800         4.98600        -1.95600
| 93>    H        4.78800        -2.28100        -0.18500
| 94>    H        4.86000         2.11400         1.91200
| 95>    H        6.90100         3.53100         1.77200
| 96>    H        7.38300         6.10900         0.35600
| 97>    H        8.41400         4.65200         0.43500
| 98>    H        7.92100         5.31000        -1.15000
| 99>    H        5.28300         0.33600        -0.17900
|100>    H        3.72000         3.63200        -1.96700
|101> *
|102>
|103>                          ****END OF INPUT****

CARTESIAN COORDINATES (ANGSTROEM)
---------------------------------
  C     -3.412000    6.255000   -0.833000
  C      1.474000    4.041000    0.057000
  C     -2.802000    4.093000    0.049000
  C     -3.800000    4.264000    1.020000
  C     -4.567000    5.413000    1.032000
  C     -5.229000    7.591000    0.133000
  C      0.132000    4.307000    0.061000
  C     -0.569000    3.056000    0.047000
  C      1.649000    2.618000    0.023000
  C     -2.624000    5.122000   -0.889000
  N     -4.365000    6.389000    0.117000
  N      0.388000    2.067000    0.025000
  N     -2.010000    0.395000   -0.075000
  N     -0.388000   -2.074000   -0.027000
  N      2.010000   -0.401000    0.065000
  C     -1.960000    2.861000    0.024000
  C     -2.623000    1.615000   -0.018000
  C     -5.573000   -4.329000    1.066000
  C     -4.073000    1.471000    0.056000
  C     -4.106000   -2.756000   -0.026000
  C     -4.995000   -2.757000   -1.111000
  C     -6.132000   -3.542000   -1.076000
  C     -7.651000   -5.113000    0.040000
  C     -4.324000    0.141000    0.037000
  C     -3.025000   -0.520000   -0.048000
  C     -4.422000   -3.566000    1.075000
  N     -6.407000   -4.313000    0.001000
  C     -2.867000   -1.922000   -0.040000
  C     -1.650000   -2.624000   -0.027000
  C      3.568000   -6.142000   -1.040000
  C     -1.476000   -4.049000   -0.034000
  C      2.803000   -4.099000   -0.008000
  C      3.657000   -4.384000    1.069000
  C      4.427000   -5.530000    1.059000
  C      5.245000   -7.588000    0.014000
  C     -0.134000   -4.315000   -0.022000
  C      0.568000   -3.064000   -0.027000
  C      2.775000   -5.012000   -1.074000
  N      4.376000   -6.391000    0.017000
  C      1.959000   -2.869000   -0.009000
  C      2.621000   -1.622000    0.009000
  C      5.543000    4.339000   -1.130000
  C      4.070000   -1.479000   -0.094000
  C      4.104000    2.751000   -0.021000
  C      5.027000    2.729000    1.036000
  C      6.166000    3.509000    0.978000
  C      7.619000    5.153000   -0.115000
  C      4.321000   -0.148000   -0.092000
  C      3.025000    0.514000    0.015000
  C      4.387000    3.582000   -1.115000
  C      2.866000    1.916000    0.013000
  N      6.413000    4.296000   -0.095000
  H     -3.302000    7.078000   -1.528000
  H      2.274000    4.766000    0.081000
  H     -3.992000    3.502000    1.765000
  H     -5.353000    5.586000    1.755000
  H     -6.136000    7.385000   -0.440000
  H     -5.483000    7.826000    1.166000
  H     -4.683000    8.420000   -0.316000
  H     -0.332000    5.282000    0.069000
  H     -1.860000    5.055000   -1.655000
  H      0.182000    1.072000    0.005000
  H     -0.183000   -1.080000   -0.021000
  H     -5.864000   -4.962000    1.895000
  H     -4.794000    2.272000    0.139000
  H     -4.800000   -2.160000   -1.994000
  H     -6.841000   -3.582000   -1.893000
  H     -8.428000   -4.536000    0.546000
  H     -7.956000   -5.337000   -0.981000
  H     -7.456000   -6.037000    0.584000
  H     -5.287000   -0.344000    0.100000
  H     -3.780000   -3.601000    1.947000
  H      3.587000   -6.868000   -1.843000
  H     -2.276000   -4.774000   -0.050000
  H      3.714000   -3.724000    1.926000
  H      5.092000   -5.795000    1.871000
  H      6.205000   -7.329000   -0.439000
  H      5.393000   -7.917000    1.042000
  H      4.759000   -8.373000   -0.564000
  H      0.329000   -5.290000   -0.008000
  H      2.146000   -4.842000   -1.940000
  H      5.808000    4.986000   -1.956000
  H      4.788000   -2.281000   -0.185000
  H      4.860000    2.114000    1.912000
  H      6.901000    3.531000    1.772000
  H      7.383000    6.109000    0.356000
  H      8.414000    4.652000    0.435000
  H      7.921000    5.310000   -1.150000
  H      5.283000    0.336000   -0.179000
  H      3.720000    3.632000   -1.967000

 Total Charge           Charge          ....    0
 Multiplicity           Mult            ....    1
 Number of Electrons    NEL             ....  358
 Basis Dimension        Dim             ....  918

ORBITAL ENERGIES
----------------

  NO   OCC          E(Eh)            E(eV)
   0   2.0000     -15.645842      -425.7450
   1   2.0000     -15.637650      -425.5221
   2   2.0000     -15.629863      -425.3102
   3   2.0000     -15.617430      -424.9719
   4   2.0000     -15.519914      -422.3183
   5   2.0000     -15.516414      -422.2231
   6   2.0000     -15.445922      -420.3049
   7   2.0000     -15.443494      -420.2388
   8   2.0000     -11.306877      -307.6758
   9   2.0000     -11.301544      -307.5307
  10   2.0000     -11.301377      -307.5261
  11   2.0000     -11.299261      -307.4685
  12   2.0000     -11.296818      -307.4021
  13   2.0000     -11.293980      -307.3248
  14   2.0000     -11.291777      -307.2649
  15   2.0000     -11.289729      -307.2091
  16   2.0000     -11.287240      -307.1414
  17   2.0000     -11.286310      -307.1161
  18   2.0000     -11.278123      -306.8933
  19   2.0000     -11.276918      -306.8605
  20   2.0000     -11.249957      -306.1269
  21   2.0000     -11.240991      -305.8829
  22   2.0000     -11.239204      -305.8343
  23   2.0000     -11.238316      -305.8101
  24   2.0000     -11.234331      -305.7017
  25   2.0000     -11.233432      -305.6772
  26   2.0000     -11.232644      -305.6558
  27   2.0000     -11.227807      -305.5242
  28   2.0000     -11.227641      -305.5196
  29   2.0000     -11.224647      -305.4382
  30   2.0000     -11.218648      -305.2749
  31   2.0000     -11.217877      -305.2539
  32   2.0000     -11.201742      -304.8149
  33   2.0000     -11.201338      -304.8039
  34   2.0000     -11.193850      -304.6002
  35   2.0000     -11.193219      -304.5830
  36   2.0000     -11.175548      -304.1021
  37   2.0000     -11.174511      -304.0739
  38   2.0000     -11.174491      -304.0734
  39   2.0000     -11.171596      -303.9946
  40   2.0000     -11.168938      -303.9223
  41   2.0000     -11.168083      -303.8990
  42   2.0000     -11.167673      -303.8878
  43   2.0000     -11.165318      -303.8237
  44   2.0000     -11.161619      -303.7231
  45   2.0000     -11.160007      -303.6792
  46   2.0000     -11.152314      -303.4699
  47   2.0000     -11.149828      -303.4023
  48   2.0000     -11.146811      -303.3202
  49   2.0000     -11.144570      -303.2592
  50   2.0000     -11.140719      -303.1544
  51   2.0000     -11.137071      -303.0551
  52   2.0000      -1.331422       -36.2298
  53   2.0000      -1.324316       -36.0365
  54   2.0000      -1.317655       -35.8552
  55   2.0000      -1.307724       -35.5850
  56   2.0000      -1.218823       -33.1659
  57   2.0000      -1.212669       -32.9984
  58   2.0000      -1.163099       -31.6495
  59   2.0000      -1.156855       -31.4796
  60   2.0000      -1.119199       -30.4549
  61   2.0000      -1.112440       -30.2710
  62   2.0000      -1.106764       -30.1166
  63   2.0000      -1.098684       -29.8967
  64   2.0000      -1.055095       -28.7106
  65   2.0000      -1.048213       -28.5233
  66   2.0000      -1.042264       -28.3614
  67   2.0000      -1.033571       -28.1249
  68   2.0000      -1.027650       -27.9638
  69   2.0000      -1.010464       -27.4961
  70   2.0000      -1.009672       -27.4746
  71   2.0000      -0.997134       -27.1334
  72   2.0000      -0.983013       -26.7491
  73   2.0000      -0.975583       -26.5470
  74   2.0000      -0.970106       -26.3979
  75   2.0000      -0.960071       -26.1249
  76   2.0000      -0.952226       -25.9114
  77   2.0000      -0.944717       -25.7071
  78   2.0000      -0.939811       -25.5735
  79   2.0000      -0.923381       -25.1265
  80   2.0000      -0.894041       -24.3281
  81   2.0000      -0.881211       -23.9790
  82   2.0000      -0.875275       -23.8174
  83   2.0000      -0.869544       -23.6615
  84   2.0000      -0.863117       -23.4866
  85   2.0000      -0.857006       -23.3203
  86   2.0000      -0.848791       -23.0968
  87   2.0000      -0.842995       -22.9391
  88   2.0000      -0.821918       -22.3655
  89   2.0000      -0.798628       -21.7318
  90   2.0000      -0.797706       -21.7067
  91   2.0000      -0.739930       -20.1345
  92   2.0000      -0.731156       -19.8958
  93   2.0000      -0.729242       -19.8437
  94   2.0000      -0.720916       -19.6171
  95   2.0000      -0.720777       -19.6133
  96   2.0000      -0.712435       -19.3863
  97   2.0000      -0.708890       -19.2899
  98   2.0000      -0.699346       -19.0302
  99   2.0000      -0.693035       -18.8584
 100   2.0000      -0.685816       -18.6620
 101   2.0000      -0.681227       -18.5371
 102   2.0000      -0.679041       -18.4777
 103   2.0000      -0.673992       -18.3403
 104   2.0000      -0.669016       -18.2049
 105   2.0000      -0.665993       -18.1226
 106   2.0000      -0.662430       -18.0256
 107   2.0000      -0.660416       -17.9708
 108   2.0000      -0.657104       -17.8807
 109   2.0000      -0.656490       -17.8640
 110   2.0000      -0.652387       -17.7524
 111   2.0000      -0.650026       -17.6881
 112   2.0000      -0.647772       -17.6268
 113   2.0000      -0.642346       -17.4791
 114   2.0000      -0.635252       -17.2861
 115   2.0000      -0.624069       -16.9818
 116   2.0000      -0.621341       -16.9075
 117   2.0000      -0.615123       -16.7383
 118   2.0000      -0.611889       -16.6503
 119   2.0000      -0.609319       -16.5804
 120   2.0000      -0.608875       -16.5683
 121   2.0000      -0.604273       -16.4431
 122   2.0000      -0.599955       -16.3256
 123   2.0000      -0.592865       -16.1327
 124   2.0000      -0.589579       -16.0433
 125   2.0000      -0.583942       -15.8899
 126   2.0000      -0.579183       -15.7604
 127   2.0000      -0.573171       -15.5968
 128   2.0000      -0.570535       -15.5250
 129   2.0000      -0.560790       -15.2599
 130   2.0000      -0.553724       -15.0676
 131   2.0000      -0.545171       -14.8349
 132   2.0000      -0.540736       -14.7142
 133   2.0000      -0.535853       -14.5813
 134   2.0000      -0.533974       -14.5302
 135   2.0000      -0.529779       -14.4160
 136   2.0000      -0.525189       -14.2911
 137   2.0000      -0.523354       -14.2412
 138   2.0000      -0.519687       -14.1414
 139   2.0000      -0.516046       -14.0423
 140   2.0000      -0.510744       -13.8981
 141   2.0000      -0.505756       -13.7623
 142   2.0000      -0.504598       -13.7308
 143   2.0000      -0.502036       -13.6611
 144   2.0000      -0.499721       -13.5981
 145   2.0000      -0.498385       -13.5617
 146   2.0000      -0.496692       -13.5157
 147   2.0000      -0.492595       -13.4042
 148   2.0000      -0.490907       -13.3583
 149   2.0000      -0.469388       -12.7727
 150   2.0000      -0.460924       -12.5424
 151   2.0000      -0.452371       -12.3096
 152   2.0000      -0.448248       -12.1974
 153   2.0000      -0.446769       -12.1572
 154   2.0000      -0.445723       -12.1287
 155   2.0000      -0.439516       -11.9598
 156   2.0000      -0.435572       -11.8525
 157   2.0000      -0.431383       -11.7385
 158   2.0000      -0.392926       -10.6921
 159   2.0000      -0.384247       -10.4559
 160   2.0000      -0.377808       -10.2807
 161   2.0000      -0.372788       -10.1441
 162   2.0000      -0.364736        -9.9250
 163   2.0000      -0.358778        -9.7628
 164   2.0000      -0.353866        -9.6292
 165   2.0000      -0.345217        -9.3938
 166   2.0000      -0.337092        -9.1727
 167   2.0000      -0.333392        -9.0721
 168   2.0000      -0.329191        -8.9577
 169   2.0000      -0.300310        -8.1719
 170   2.0000      -0.296364        -8.0645
 171   2.0000      -0.288890        -7.8611
 172   2.0000      -0.287238        -7.8161
 173   2.0000      -0.256192        -6.9713
 174   2.0000      -0.248178        -6.7533
 175   2.0000      -0.188453        -5.1281
 176   2.0000      -0.178426        -4.8552
 177   2.0000      -0.067744        -1.8434
 178   2.0000      -0.054920        -1.4944
 179   0.0000       0.030567         0.8318
 180   0.0000       0.070535         1.9193
 181   0.0000       0.092799         2.5252
 182   0.0000       0.098509         2.6806
 183   0.0000       0.129473         3.5231

MULLIKEN ATOMIC CHARGES
-----------------------
   0 C :    0.207239
   1 N :   -0.445775
   2 C :   -0.063242
   3 N :   -0.336731
   4 C :   -0.057942
   5 N :   -0.563194
   6 C :   -0.078396
   7 N :   -0.338379
   8 C :    0.205461
   9 N :   -0.563038
  10 C :    0.116048
  11 N :   -0.437602
  12 C :   -0.075614
  13 N :   -0.437368
  14 C :    0.244618
  15 N :   -0.440705
  16 C :    0.231399
  17 C :   -0.083649
  18 C :   -0.216595
  19 C :    0.240986
  20 C :    0.209329
  21 C :   -0.089239
  22 C :   -0.088121
  23 C :   -0.046366
  24 C :    0.202517
  25 C :    0.114030
  26 C :   -0.072069
  27 C :    0.219878
  28 C :   -0.054860
  29 C :   -0.183955
  30 C :    0.238123
  31 C :    0.215335
  32 C :   -0.064691
  33 C :   -0.076253
  34 C :   -0.050624
  35 C :    0.210291
  36 C :    0.112701
  37 C :   -0.066311
  38 C :    0.235321
  39 C :   -0.060228
  40 C :   -0.187718
  41 C :    0.222702
  42 C :    0.201935
  43 C :   -0.073113
  44 C :   -0.088974
  45 C :   -0.054600
  46 C :    0.205496
  47 C :    0.115494
  48 C :   -0.072330
  49 C :    0.229327
  50 C :   -0.051367
  51 C :   -0.189133
  52 H :    0.050113
  53 H :   -0.014530
  54 H :    0.050065
  55 H :    0.049259
  56 H :    0.056641
  57 H :    0.054513
  58 H :    0.053343
  59 H :   -0.008400
  60 H :    0.045930
  61 H :    0.172490
  62 H :    0.173373
  63 H :    0.056260
  64 H :   -0.015457
  65 H :    0.047360
  66 H :    0.057268
  67 H :    0.062602
  68 H :    0.058019
  69 H :    0.058235
  70 H :   -0.025535
  71 H :    0.046972
  72 H :    0.059954
  73 H :   -0.012755
  74 H :    0.049918
  75 H :    0.059103
  76 H :    0.065019
  77 H :    0.060468
  78 H :    0.059733
  79 H :   -0.014658
  80 H :    0.050482
  81 H :    0.053650
  82 H :   -0.023613
  83 H :    0.043073
  84 H :    0.053647
  85 H :    0.059647
  86 H :    0.056244
  87 H :    0.056788
  88 H :   -0.019818
  89 H :    0.044549
Sum of atomic charges:    0.0000000

LOEWDIN ATOMIC CHARGES
----------------------
   0 C :   -0.009773
   1 N :    0.130714
   2 C :   -0.100434
   3 N :    0.180165
   4 C :    0.023408
   5 N :   -0.137008
   6 C :   -0.026403
   7 N :    0.177298
   8 C :   -0.010184
   9 N :   -0.139568
  10 C :    0.027786
  11 N :    0.144057
  12 C :   -0.104432
  13 N :    0.147585
  14 C :   -0.040051
  15 N :    0.138803
  16 C :   -0.050205
  17 C :   -0.030466
  18 C :   -0.106718
  19 C :   -0.085331
  20 C :    0.001550
  21 C :   -0.108935
  22 C :    0.041123
  23 C :   -0.018542
  24 C :   -0.004160
  25 C :    0.030278
  26 C :   -0.103248
  27 C :   -0.100395
  28 C :   -0.022836
  29 C :   -0.105881
  30 C :   -0.041599
  31 C :    0.006738
  32 C :   -0.098616
  33 C :    0.050412
  34 C :   -0.018828
  35 C :    0.002480
  36 C :    0.031017
  37 C :   -0.099652
  38 C :   -0.044672
  39 C :   -0.023203
  40 C :   -0.108908
  41 C :   -0.092250
  42 C :   -0.006690
  43 C :   -0.103049
  44 C :    0.034052
  45 C :   -0.023626
  46 C :   -0.003387
  47 C :    0.029381
  48 C :   -0.101504
  49 C :   -0.084619
  50 C :   -0.022282
  51 C :   -0.108034
  52 H :    0.027781
  53 H :    0.004080
  54 H :    0.043400
  55 H :    0.027632
  56 H :    0.025299
  57 H :    0.029451
  58 H :    0.029714
  59 H :    0.005465
  60 H :    0.041890
  61 H :    0.060491
  62 H :    0.060776
  63 H :    0.030968
  64 H :    0.000350
  65 H :    0.045630
  66 H :    0.030269
  67 H :    0.028394
  68 H :    0.031979
  69 H :    0.031103
  70 H :   -0.002540
  71 H :    0.044771
  72 H :    0.032384
  73 H :    0.004827
  74 H :    0.046264
  75 H :    0.031783
  76 H :    0.029672
  77 H :    0.032643
  78 H :    0.032324
  79 H :    0.003947
  80 H :    0.046008
  81 H :    0.028943
  82 H :   -0.001983
  83 H :    0.043385
  84 H :    0.029421
  85 H :    0.026824
  86 H :    0.030449
  87 H :    0.031198
  88 H :   -0.000156
  89 H :    0.043804

  Mayer bond orders larger than 0.100000
B(  0-C ,  1-N ) :   1.1082 B(  0-C , 17-C ) :   1.6559 B(  0-C , 52-H ) :   0.9693
B(  1-N ,  8-C ) :   1.1049 B(  1-N , 10-C ) :   0.9665 B(  2-C , 12-C ) :   1.5288
B(  2-C , 16-C ) :   1.3331 B(  2-C , 53-H ) :   0.9773 B(  3-N , 14-C ) :   1.2080
B(  3-N , 16-C ) :   1.1944 B(  3-N , 61-H ) :   0.8985 B(  4-C ,  6-C ) :   1.2460
B(  4-C , 17-C ) :   1.2483 B(  4-C , 18-C ) :   1.3224 B(  5-N , 19-C ) :   1.4298
B(  5-N , 27-C ) :   1.3965 B(  6-C ,  8-C ) :   1.6581 B(  6-C , 54-H ) :   0.9692
B(  7-N , 30-C ) :   1.1946 B(  7-N , 38-C ) :   1.1987 B(  7-N , 62-H ) :   0.8980
B(  8-C , 55-H ) :   0.9695 B(  9-N , 41-C ) :   1.4053 B(  9-N , 49-C ) :   1.4172
B( 10-C , 56-H ) :   0.9765 B( 10-C , 57-H ) :   0.9819 B( 10-C , 58-H ) :   0.9839
B( 11-N , 20-C ) :   1.1266 B( 11-N , 24-C ) :   1.1187 B( 11-N , 25-C ) :   0.9586
B( 12-C , 14-C ) :   1.3342 B( 12-C , 59-H ) :   0.9757 B( 13-N , 31-C ) :   1.1324
B( 13-N , 35-C ) :   1.1272 B( 13-N , 36-C ) :   0.9553 B( 14-C , 18-C ) :   1.1751
B( 15-N , 42-C ) :   1.1140 B( 15-N , 46-C ) :   1.1169 B( 15-N , 47-C ) :   0.9619
B( 16-C , 51-C ) :   1.1912 B( 17-C , 60-H ) :   0.9701 B( 18-C , 19-C ) :   1.1898
B( 19-C , 21-C ) :   1.2184 B( 20-C , 28-C ) :   1.6243 B( 20-C , 63-H ) :   0.9703
B( 21-C , 26-C ) :   1.6365 B( 21-C , 64-H ) :   0.9705 B( 22-C , 23-C ) :   1.2857
B( 22-C , 28-C ) :   1.2719 B( 22-C , 29-C ) :   1.2266 B( 23-C , 24-C ) :   1.6184
B( 23-C , 65-H ) :   0.9708 B( 24-C , 66-H ) :   0.9692 B( 25-C , 67-H ) :   0.9761
B( 25-C , 68-H ) :   0.9829 B( 25-C , 69-H ) :   0.9822 B( 26-C , 27-C ) :   1.2171
B( 26-C , 70-H ) :   0.9728 B( 27-C , 29-C ) :   1.2285 B( 28-C , 71-H ) :   0.9716
B( 29-C , 30-C ) :   1.2168 B( 30-C , 32-C ) :   1.3065 B( 31-C , 39-C ) :   1.6205
B( 31-C , 72-H ) :   0.9693 B( 32-C , 37-C ) :   1.5518 B( 32-C , 73-H ) :   0.9780
B( 33-C , 34-C ) :   1.2826 B( 33-C , 39-C ) :   1.2767 B( 33-C , 40-C ) :   1.2320
B( 34-C , 35-C ) :   1.6176 B( 34-C , 74-H ) :   0.9703 B( 35-C , 75-H ) :   0.9693
B( 36-C , 76-H ) :   0.9764 B( 36-C , 77-H ) :   0.9820 B( 36-C , 78-H ) :   0.9829
B( 37-C , 38-C ) :   1.3087 B( 37-C , 79-H ) :   0.9774 B( 38-C , 40-C ) :   1.2124
B( 39-C , 80-H ) :   0.9713 B( 40-C , 41-C ) :   1.2270 B( 41-C , 43-C ) :   1.2057
B( 42-C , 50-C ) :   1.6330 B( 42-C , 81-H ) :   0.9696 B( 43-C , 48-C ) :   1.6462
B( 43-C , 82-H ) :   0.9734 B( 44-C , 45-C ) :   1.2694 B( 44-C , 50-C ) :   1.2686
B( 44-C , 51-C ) :   1.2554 B( 45-C , 46-C ) :   1.6327 B( 45-C , 83-H ) :   0.9713
B( 46-C , 84-H ) :   0.9701 B( 47-C , 85-H ) :   0.9761 B( 47-C , 86-H ) :   0.9828
B( 47-C , 87-H ) :   0.9825 B( 48-C , 49-C ) :   1.2064 B( 48-C , 88-H ) :   0.9741
B( 49-C , 51-C ) :   1.2267 B( 50-C , 89-H ) :   0.9713

MP2 TOTAL ENERGY:    -2130.913457740 Eh
FINAL SINGLE POINT ENERGY     -2130.913457739910

DIPOLE MOMENT
-------------
                                X             Y             Z
Electronic contribution:      0.56884      -1.56428      -0.13417
Nuclear contribution   :     -0.04898       0.15219       0.16660
                        -----------------------------------------
Total Dipole Moment    :      0.51986      -1.41210       0.03243
                        -----------------------------------------
Magnitude (a.u.)       :      1.50510
Magnitude (Debye)      :      3.82566

Rotational constants in cm-1:     0.001500     0.001475     0.000762
Rotational constants in MHz :    44.958965    44.204522    22.835973

                             ****ORCA TERMINATED NORMALLY****
TOTAL RUN TIME: 0 days 1 hours 35 minutes 16 seconds 97 msec
