                         Program Version 5.0.4 -  RELEASE  -
|  1> ! PAL2
|  2> ! mp2 cc-pvdz TightSCF  NoKeepInts
|  3>
|  4> %scf
|  5>   MaxCore 2000
|  6> end
|  7> %mp2
|  8>   MaxCore 2000
|  9> end
| 10> * xyz 0 1
| 11>    C       -3.40000         6.22600         1.00700
| 12>    C        1.47400         4.04100         0.05700
| 13>    C       -2.80200         4.09300         0.04900
| 14>    C       -3.83500         4.28000        -0.88300
| 15>    C       -4.60700         5.42300        -0.84200
| 16>    C       -5.20800         7.60600         0.08800
| 17>    C        0.13200         4.30700         0.06100
| 18>    C       -0.56900         3.05600         0.04700
| 19>    C        1.64900         2.61800         0.02300
| 20>    C       -2.59700         5.10200         1.00300
| 21>    N       -4.38800         6.37500         0.09500
| 22>    N        0.38800         2.06700         0.02500
| 23>    N       -2.01000         0.39500        -0.07500
| 24>    N       -0.38800        -2.07400        -0.02700
| 25>    N        2.01000        -0.40100         0.06500
| 26>    C       -1.96000         2.86100         0.02400
| 27>    C       -2.62300         1.61500        -0.01800
| 28>    C       -5.57300        -4.32900         1.06600
| 29>    C       -4.07300         1.47100         0.05600
| 30>    C       -4.10600        -2.75600        -0.02600
| 31>    C       -4.99500        -2.75700        -1.11100
| 32>    C       -6.13200        -3.54200        -1.07600
| 33>    C       -7.65100        -5.11300         0.04000
| 34>    C       -4.32400         0.14100         0.03700
| 35>    C       -3.02500        -0.52000        -0.04800
| 36>    C       -4.42200        -3.56600         1.07500
| 37>    N       -6.40700        -4.31300         0.00100
| 38>    C       -2.86700        -1.92200        -0.04000
| 39>    C       -1.65000        -2.62400        -0.02700
| 40>    C        3.56800        -6.14200        -1.04000
| 41>    C       -1.47600        -4.04900        -0.03400
| 42>    C        2.80300        -4.09900        -0.00800
| 43>    C        3.65700        -4.38400         1.06900
| 44>    C        4.42700        -5.53000         1.05900
| 45>    C        5.24500        -7.58800         0.01400
| 46>    C       -0.13400        -4.31500        -0.02200
| 47>    C        0.56800        -3.06400        -0.02700
| 48>    C        2.77500        -5.01200        -1.07400
| 49>    N        4.37600        -6.39100         0.01700
| 50>    C        1.95900        -2.86900        -0.00900
| 51>    C        2.62100        -1.62200         0.00900
| 52>    C        5.54300         4.33900        -1.13000
| 53>    C        4.07000        -1.47900        -0.09400
| 54>    C        4.10400         2.75100        -0.02100
| 55>    C        5.02700         2.72900         1.03600
| 56>    C        6.16600         3.50900         0.97800
| 57>    C        7.61900         5.15300        -0.11500
| 58>    C        4.32100        -0.14800        -0.09200
| 59>    C        3.02500         0.51400         0.01500
| 60>    C        4.38700         3.58200        -1.11500
| 61>    C        2.86600         1.91600         0.01300
| 62>    N        6.41300         4.29600        -0.09500
| 63>    H       -3.28600         7.02300         1.73100
| 64>    H        2.27400         4.76600         0.08100
| 65>    H       -4.03600         3.54100        -1.64900
| 66>    H       -5.40800         5.61500        -1.54400
| 67>    H       -4.76100         8.32700        -0.59900
| 68>    H       -6.21700         7.35300        -0.23700
| 69>    H       -5.23300         8.01600         1.09700
| 70>    H       -0.33200         5.28200         0.06900
| 71>    H       -1.82500         5.01000         1.75800
| 72>    H        0.18200         1.07200         0.00500
| 73>    H       -0.18300        -1.08000        -0.02100
| 74>    H       -5.86400        -4.96200         1.89500
| 75>    H       -4.79400         2.27200         0.13900
| 76>    H       -4.80000        -2.16000        -1.99400
| 77>    H       -6.84100        -3.58200        -1.89300
| 78>    H       -8.42800        -4.53600         0.54600
| 79>    H       -7.95600        -5.33700        -0.98100
| 80>    H       -7.45600        -6.03700         0.58400
| 81>    H       -5.28700        -0.34400         0.10000
| 82>    H       -3.78000        -3.60100         1.94700
| 83>    H        3.58700        -6.86800        -1.84300
| 84>    H       -2.27600        -4.77400        -0.05000
| 85>    H        3.71400        -3.72400         1.92600
| 86>    H        5.09200        -5.79500         1.87100
| 87>    H        6.20500        -7.32900        -0.43900
| 88>    H        5.39300        -7.91700         1.04200
| 89>    H        4.75900        -8.37300        -0.56400
| 90>    H        0.32900        -5.29000        -0.00800
| 91>    H        2.14600        -4.84200        -1.94000
| 92>    H        5.80800         4.98600        -1.95600
| 93>    H        4.78800        -2.28100        -0.18500
| 94>    H        4.86000         2.11400         1.91200
| 95>    H        6.90100         3.53100         1.77200
| 96>    H        7.38300         6.10900         0.35600
| 97>    H        8.41400         4.65200         0.43500
| 98>    H        7.92100         5.31000        -1.15000
| 99>    H        5.28300         0.33600        -0.17900
|100>    H        3.72000         3.63200        -1.96700
|101> *
|102>
|103>                          ****END OF INPUT****

CARTESIAN COORDINATES (ANGSTROEM)
---------------------------------
  C     -3.400000    6.226000    1.007000
  C      1.474000    4.041000    0.057000
  C     -2.802000    4.093000    0.049000
  C     -3.835000    4.280000   -0.883000
  C     -4.607000    5.423000   -0.842000
  C     -5.208000    7.606000    0.088000
  C      0.132000    4.307000    0.061000
  C     -0.569000    3.056000    0.047000
  C      1.649000    2.618000    0.023000
  C     -2.597000    5.102000    1.003000
  N     -4.388000    6.375000    0.095000
  N      0.388000    2.067000    0.025000
  N     -2.010000    0.395000   -0.075000
  N     -0.388000   -2.074000   -0.027000
  N      2.010000   -0.401000    0.065000
  C     -1.960000    2.861000    0.024000
  C     -2.623000    1.615000   -0.018000
  C     -5.573000   -4.329000    1.066000
  C     -4.073000    1.471000    0.056000
  C     -4.106000   -2.756000   -0.026000
  C     -4.995000   -2.757000   -1.111000
  C     -6.132000   -3.542000   -1.076000
  C     -7.651000   -5.113000    0.040000
  C     -4.324000    0.141000    0.037000
  C     -3.025000   -0.520000   -0.048000
  C     -4.422000   -3.566000    1.075000
  N     -6.407000   -4.313000    0.001000
  C     -2.867000   -1.922000   -0.040000
  C     -1.650000   -2.624000   -0.027000
  C      3.568000   -6.142000   -1.040000
  C     -1.476000   -4.049000   -0.034000
  C      2.803000   -4.099000   -0.008000
  C      3.657000   -4.384000    1.069000
  C      4.427000   -5.530000    1.059000
  C      5.245000   -7.588000    0.014000
  C     -0.134000   -4.315000   -0.022000
  C      0.568000   -3.064000   -0.027000
  C      2.775000   -5.012000   -1.074000
  N      4.376000   -6.391000    0.017000
  C      1.959000   -2.869000   -0.009000
  C      2.621000   -1.622000    0.009000
  C      5.543000    4.339000   -1.130000
  C      4.070000   -1.479000   -0.094000
  C      4.104000    2.751000   -0.021000
  C      5.027000    2.729000    1.036000
  C      6.166000    3.509000    0.978000
  C      7.619000    5.153000   -0.115000
  C      4.321000   -0.148000   -0.092000
  C      3.025000    0.514000    0.015000
  C      4.387000    3.582000   -1.115000
  C      2.866000    1.916000    0.013000
  N      6.413000    4.296000   -0.095000
  H     -3.286000    7.023000    1.731000
  H      2.274000    4.766000    0.081000
  H     -4.036000    3.541000   -1.649000
  H     -5.408000    5.615000   -1.544000
  H     -4.761000    8.327000   -0.599000
  H     -6.217000    7.353000   -0.237000
  H     -5.233000    8.016000    1.097000
  H     -0.332000    5.282000    0.069000
  H     -1.825000    5.010000    1.758000
  H      0.182000    1.072000    0.005000
  H     -0.183000   -1.080000   -0.021000
  H     -5.864000   -4.962000    1.895000
  H     -4.794000    2.272000    0.139000
  H     -4.800000   -2.160000   -1.994000
  H     -6.841000   -3.582000   -1.893000
  H     -8.428000   -4.536000    0.546000
  H     -7.956000   -5.337000   -0.981000
  H     -7.456000   -6.037000    0.584000
  H     -5.287000   -0.344000    0.100000
  H     -3.780000   -3.601000    1.947000
  H      3.587000   -6.868000   -1.843000
  H     -2.276000   -4.774000   -0.050000
  H      3.714000   -3.724000    1.926000
  H      5.092000   -5.795000    1.871000
  H      6.205000   -7.329000   -0.439000
  H      5.393000   -7.917000    1.042000
  H      4.759000   -8.373000   -0.564000
  H      0.329000   -5.290000   -0.008000
  H      2.146000   -4.842000   -1.940000
  H      5.808000    4.986000   -1.956000
  H      4.788000   -2.281000   -0.185000
  H      4.860000    2.114000    1.912000
  H      6.901000    3.531000    1.772000
  H      7.383000    6.109000    0.356000
  H      8.414000    4.652000    0.435000
  H      7.921000    5.310000   -1.150000
  H      5.283000    0.336000   -0.179000
  H      3.720000    3.632000   -1.967000

 Total Charge           Charge          ....    0
 Multiplicity           Mult            ....    1
 Number of Electrons    NEL             ....  358
 Basis Dimension        Dim             ....  918

ORBITAL ENERGIES
----------------

  NO   OCC          E(Eh)            E(eV)
   0   2.0000     -15.653362      -425.9496
   1   2.0000     -15.639182      -425.5638
   2   2.0000     -15.628676      -425.2779
   3   2.0000     -15.608193      -424.7205
   4   2.0000     -15.521742      -422.3681
   5   2.0000     -15.515592      -422.2007
   6   2.0000     -15.447269      -420.3416
   7   2.0000     -15.443788      -420.2468
   8   2.0000     -11.311549      -307.8029
   9   2.0000     -11.307898      -307.7035
  10   2.0000     -11.305398      -307.6355
  11   2.0000     -11.302501      -307.5567
  12   2.0000     -11.296102      -307.3826
  13   2.0000     -11.295700      -307.3716
  14   2.0000     -11.292790      -307.2924
  15   2.0000     -11.286831      -307.1303
  16   2.0000     -11.284814      -307.0754
  17   2.0000     -11.284075      -307.0553
  18   2.0000     -11.271075      -306.7016
  19   2.0000     -11.269302      -306.6533
  20   2.0000     -11.257087      -306.3209
  21   2.0000     -11.244630      -305.9819
  22   2.0000     -11.243731      -305.9575
  23   2.0000     -11.242636      -305.9277
  24   2.0000     -11.234697      -305.7117
  25   2.0000     -11.234109      -305.6957
  26   2.0000     -11.233198      -305.6708
  27   2.0000     -11.226887      -305.4991
  28   2.0000     -11.226707      -305.4942
  29   2.0000     -11.217039      -305.2312
  30   2.0000     -11.211816      -305.0890
  31   2.0000     -11.211439      -305.0788
  32   2.0000     -11.204984      -304.9031
  33   2.0000     -11.204116      -304.8795
  34   2.0000     -11.191844      -304.5456
  35   2.0000     -11.191484      -304.5358
  36   2.0000     -11.179111      -304.1991
  37   2.0000     -11.176654      -304.1322
  38   2.0000     -11.176340      -304.1237
  39   2.0000     -11.173483      -304.0459
  40   2.0000     -11.167361      -303.8793
  41   2.0000     -11.166799      -303.8640
  42   2.0000     -11.166050      -303.8437
  43   2.0000     -11.165480      -303.8282
  44   2.0000     -11.163429      -303.7723
  45   2.0000     -11.163212      -303.7664
  46   2.0000     -11.150463      -303.4195
  47   2.0000     -11.149133      -303.3833
  48   2.0000     -11.147389      -303.3359
  49   2.0000     -11.145962      -303.2970
  50   2.0000     -11.138829      -303.1030
  51   2.0000     -11.134675      -302.9899
  52   2.0000      -1.337840       -36.4045
  53   2.0000      -1.325663       -36.0731
  54   2.0000      -1.316669       -35.8284
  55   2.0000      -1.300018       -35.3753
  56   2.0000      -1.221285       -33.2329
  57   2.0000      -1.211409       -32.9641
  58   2.0000      -1.164478       -31.6871
  59   2.0000      -1.156133       -31.4600
  60   2.0000      -1.124528       -30.6000
  61   2.0000      -1.113735       -30.3063
  62   2.0000      -1.106020       -30.0963
  63   2.0000      -1.092765       -29.7356
  64   2.0000      -1.061093       -28.8738
  65   2.0000      -1.049554       -28.5598
  66   2.0000      -1.041323       -28.3358
  67   2.0000      -1.029927       -28.0257
  68   2.0000      -1.026549       -27.9338
  69   2.0000      -1.012360       -27.5477
  70   2.0000      -1.009360       -27.4661
  71   2.0000      -0.994769       -27.0690
  72   2.0000      -0.985674       -26.8215
  73   2.0000      -0.974291       -26.5118
  74   2.0000      -0.972742       -26.4697
  75   2.0000      -0.958798       -26.0902
  76   2.0000      -0.951485       -25.8912
  77   2.0000      -0.945996       -25.7419
  78   2.0000      -0.938258       -25.5313
  79   2.0000      -0.922619       -25.1057
  80   2.0000      -0.895624       -24.3712
  81   2.0000      -0.885778       -24.1032
  82   2.0000      -0.876362       -23.8470
  83   2.0000      -0.869030       -23.6475
  84   2.0000      -0.862540       -23.4709
  85   2.0000      -0.855084       -23.2680
  86   2.0000      -0.848293       -23.0832
  87   2.0000      -0.840810       -22.8796
  88   2.0000      -0.821820       -22.3629
  89   2.0000      -0.798755       -21.7352
  90   2.0000      -0.796556       -21.6754
  91   2.0000      -0.741142       -20.1675
  92   2.0000      -0.734155       -19.9774
  93   2.0000      -0.730579       -19.8801
  94   2.0000      -0.722274       -19.6541
  95   2.0000      -0.719489       -19.5783
  96   2.0000      -0.712754       -19.3950
  97   2.0000      -0.705814       -19.2062
  98   2.0000      -0.700251       -19.0548
  99   2.0000      -0.694954       -18.9107
 100   2.0000      -0.689793       -18.7702
 101   2.0000      -0.681337       -18.5401
 102   2.0000      -0.678824       -18.4717
 103   2.0000      -0.673640       -18.3307
 104   2.0000      -0.670172       -18.2363
 105   2.0000      -0.667011       -18.1503
 106   2.0000      -0.664359       -18.0781
 107   2.0000      -0.660101       -17.9623
 108   2.0000      -0.657576       -17.8936
 109   2.0000      -0.656732       -17.8706
 110   2.0000      -0.651426       -17.7262
 111   2.0000      -0.648856       -17.6563
 112   2.0000      -0.644750       -17.5445
 113   2.0000      -0.637407       -17.3447
 114   2.0000      -0.634903       -17.2766
 115   2.0000      -0.626837       -17.0571
 116   2.0000      -0.622784       -16.9468
 117   2.0000      -0.616320       -16.7709
 118   2.0000      -0.612389       -16.6640
 119   2.0000      -0.610681       -16.6175
 120   2.0000      -0.608544       -16.5593
 121   2.0000      -0.602614       -16.3980
 122   2.0000      -0.594511       -16.1775
 123   2.0000      -0.594344       -16.1729
 124   2.0000      -0.591019       -16.0825
 125   2.0000      -0.584942       -15.9171
 126   2.0000      -0.578379       -15.7385
 127   2.0000      -0.575022       -15.6471
 128   2.0000      -0.565947       -15.4002
 129   2.0000      -0.559068       -15.2130
 130   2.0000      -0.553898       -15.0723
 131   2.0000      -0.548663       -14.9299
 132   2.0000      -0.541900       -14.7459
 133   2.0000      -0.537066       -14.6143
 134   2.0000      -0.534169       -14.5355
 135   2.0000      -0.529472       -14.4077
 136   2.0000      -0.525673       -14.3043
 137   2.0000      -0.522729       -14.2242
 138   2.0000      -0.518865       -14.1190
 139   2.0000      -0.517321       -14.0770
 140   2.0000      -0.509688       -13.8693
 141   2.0000      -0.507382       -13.8066
 142   2.0000      -0.506802       -13.7908
 143   2.0000      -0.501330       -13.6419
 144   2.0000      -0.500028       -13.6065
 145   2.0000      -0.498095       -13.5539
 146   2.0000      -0.494149       -13.4465
 147   2.0000      -0.490594       -13.3497
 148   2.0000      -0.488758       -13.2998
 149   2.0000      -0.469247       -12.7688
 150   2.0000      -0.461969       -12.5708
 151   2.0000      -0.453612       -12.3434
 152   2.0000      -0.448318       -12.1994
 153   2.0000      -0.446520       -12.1504
 154   2.0000      -0.446226       -12.1424
 155   2.0000      -0.439365       -11.9557
 156   2.0000      -0.435075       -11.8390
 157   2.0000      -0.430441       -11.7129
 158   2.0000      -0.395365       -10.7584
 159   2.0000      -0.383949       -10.4478
 160   2.0000      -0.379343       -10.3224
 161   2.0000      -0.371447       -10.1076
 162   2.0000      -0.369722       -10.0607
 163   2.0000      -0.359960        -9.7950
 164   2.0000      -0.353096        -9.6082
 165   2.0000      -0.339731        -9.2445
 166   2.0000      -0.337264        -9.1774
 167   2.0000      -0.334717        -9.1081
 168   2.0000      -0.329044        -8.9538
 169   2.0000      -0.300129        -8.1669
 170   2.0000      -0.299283        -8.1439
 171   2.0000      -0.287888        -7.8338
 172   2.0000      -0.286153        -7.7866
 173   2.0000      -0.257020        -6.9939
 174   2.0000      -0.247158        -6.7255
 175   2.0000      -0.188801        -5.1375
 176   2.0000      -0.178833        -4.8663
 177   2.0000      -0.069050        -1.8789
 178   2.0000      -0.055969        -1.5230
 179   0.0000       0.029917         0.8141
 180   0.0000       0.069487         1.8908
 181   0.0000       0.092780         2.5247
 182   0.0000       0.100911         2.7459
 183   0.0000       0.124144         3.3781

MULLIKEN ATOMIC CHARGES
-----------------------
   0 C :    0.205125
   1 N :   -0.449128
   2 C :   -0.064392
   3 N :   -0.336611
   4 C :   -0.063589
   5 N :   -0.560995
   6 C :   -0.081865
   7 N :   -0.339086
   8 C :    0.202396
   9 N :   -0.562772
  10 C :    0.117555
  11 N :   -0.437356
  12 C :   -0.074139
  13 N :   -0.435611
  14 C :    0.234767
  15 N :   -0.441068
  16 C :    0.231592
  17 C :   -0.088526
  18 C :   -0.191417
  19 C :    0.222341
  20 C :    0.211483
  21 C :   -0.083470
  22 C :   -0.087014
  23 C :   -0.044997
  24 C :    0.201770
  25 C :    0.113842
  26 C :   -0.073431
  27 C :    0.216896
  28 C :   -0.055881
  29 C :   -0.182538
  30 C :    0.239774
  31 C :    0.219509
  32 C :   -0.063401
  33 C :   -0.072973
  34 C :   -0.049634
  35 C :    0.213236
  36 C :    0.111726
  37 C :   -0.065605
  38 C :    0.235339
  39 C :   -0.060554
  40 C :   -0.185273
  41 C :    0.221848
  42 C :    0.200207
  43 C :   -0.073331
  44 C :   -0.089971
  45 C :   -0.056654
  46 C :    0.206285
  47 C :    0.115661
  48 C :   -0.071916
  49 C :    0.231049
  50 C :   -0.050008
  51 C :   -0.191332
  52 H :    0.047355
  53 H :   -0.015167
  54 H :    0.045459
  55 H :    0.045523
  56 H :    0.053378
  57 H :    0.052282
  58 H :    0.051491
  59 H :   -0.006883
  60 H :    0.046089
  61 H :    0.171829
  62 H :    0.174141
  63 H :    0.057045
  64 H :   -0.012936
  65 H :    0.046822
  66 H :    0.057423
  67 H :    0.063480
  68 H :    0.058173
  69 H :    0.058379
  70 H :   -0.026276
  71 H :    0.047580
  72 H :    0.062558
  73 H :   -0.011531
  74 H :    0.052370
  75 H :    0.061668
  76 H :    0.067303
  77 H :    0.062163
  78 H :    0.061323
  79 H :   -0.014567
  80 H :    0.052771
  81 H :    0.053635
  82 H :   -0.024479
  83 H :    0.042006
  84 H :    0.053095
  85 H :    0.059406
  86 H :    0.055673
  87 H :    0.056710
  88 H :   -0.018889
  89 H :    0.045734
Sum of atomic charges:    0.0000000

LOEWDIN ATOMIC CHARGES
----------------------
   0 C :   -0.013046
   1 N :    0.124793
   2 C :   -0.100770
   3 N :    0.180559
   4 C :    0.014098
   5 N :   -0.134010
   6 C :   -0.028419
   7 N :    0.176669
   8 C :   -0.015937
   9 N :   -0.139463
  10 C :    0.026201
  11 N :    0.144819
  12 C :   -0.103536
  13 N :    0.151734
  14 C :   -0.039768
  15 N :    0.138024
  16 C :   -0.052259
  17 C :   -0.033431
  18 C :   -0.103959
  19 C :   -0.086804
  20 C :    0.003674
  21 C :   -0.107575
  22 C :    0.042371
  23 C :   -0.017764
  24 C :   -0.004783
  25 C :    0.030478
  26 C :   -0.105602
  27 C :   -0.104862
  28 C :   -0.023144
  29 C :   -0.103109
  30 C :   -0.039832
  31 C :    0.011426
  32 C :   -0.096428
  33 C :    0.057342
  34 C :   -0.017276
  35 C :    0.006114
  36 C :    0.031956
  37 C :   -0.098011
  38 C :   -0.044701
  39 C :   -0.022474
  40 C :   -0.108232
  41 C :   -0.094345
  42 C :   -0.008166
  43 C :   -0.102888
  44 C :    0.032602
  45 C :   -0.025222
  46 C :   -0.002940
  47 C :    0.029225
  48 C :   -0.101392
  49 C :   -0.081031
  50 C :   -0.021271
  51 C :   -0.109270
  52 H :    0.026450
  53 H :    0.003788
  54 H :    0.041621
  55 H :    0.026233
  56 H :    0.023614
  57 H :    0.028423
  58 H :    0.029003
  59 H :    0.006307
  60 H :    0.041239
  61 H :    0.060181
  62 H :    0.061153
  63 H :    0.031390
  64 H :    0.001560
  65 H :    0.045529
  66 H :    0.030300
  67 H :    0.028804
  68 H :    0.032057
  69 H :    0.031195
  70 H :   -0.003011
  71 H :    0.044976
  72 H :    0.033633
  73 H :    0.005416
  74 H :    0.047357
  75 H :    0.032971
  76 H :    0.030844
  77 H :    0.033438
  78 H :    0.033076
  79 H :    0.003976
  80 H :    0.046959
  81 H :    0.028878
  82 H :   -0.002430
  83 H :    0.042817
  84 H :    0.029220
  85 H :    0.026696
  86 H :    0.030193
  87 H :    0.031164
  88 H :    0.000289
  89 H :    0.044326

  Mayer bond orders larger than 0.100000
B(  0-C ,  1-N ) :   1.1019 B(  0-C , 17-C ) :   1.6712 B(  0-C , 52-H ) :   0.9688
B(  1-N ,  8-C ) :   1.0955 B(  1-N , 10-C ) :   0.9708 B(  2-C , 12-C ) :   1.5262
B(  2-C , 16-C ) :   1.3357 B(  2-C , 53-H ) :   0.9773 B(  3-N , 14-C ) :   1.2106
B(  3-N , 16-C ) :   1.1937 B(  3-N , 61-H ) :   0.8990 B(  4-C ,  6-C ) :   1.2361
B(  4-C , 17-C ) :   1.2343 B(  4-C , 18-C ) :   1.3474 B(  5-N , 19-C ) :   1.4360
B(  5-N , 27-C ) :   1.3929 B(  6-C ,  8-C ) :   1.6728 B(  6-C , 54-H ) :   0.9688
B(  7-N , 30-C ) :   1.1933 B(  7-N , 38-C ) :   1.1976 B(  7-N , 62-H ) :   0.8975
B(  8-C , 55-H ) :   0.9701 B(  9-N , 41-C ) :   1.4001 B(  9-N , 49-C ) :   1.4226
B( 10-C , 56-H ) :   0.9764 B( 10-C , 57-H ) :   0.9828 B( 10-C , 58-H ) :   0.9833
B( 11-N , 20-C ) :   1.1292 B( 11-N , 24-C ) :   1.1181 B( 11-N , 25-C ) :   0.9580
B( 12-C , 14-C ) :   1.3388 B( 12-C , 59-H ) :   0.9756 B( 13-N , 31-C ) :   1.1399
B( 13-N , 35-C ) :   1.1331 B( 13-N , 36-C ) :   0.9523 B( 14-C , 18-C ) :   1.1687
B( 15-N , 42-C ) :   1.1112 B( 15-N , 46-C ) :   1.1178 B( 15-N , 47-C ) :   0.9623
B( 16-C , 51-C ) :   1.1884 B( 17-C , 60-H ) :   0.9693 B( 18-C , 19-C ) :   1.1774
B( 19-C , 21-C ) :   1.2262 B( 20-C , 28-C ) :   1.6232 B( 20-C , 63-H ) :   0.9702
B( 21-C , 26-C ) :   1.6314 B( 21-C , 64-H ) :   0.9722 B( 22-C , 23-C ) :   1.2881
B( 22-C , 28-C ) :   1.2722 B( 22-C , 29-C ) :   1.2227 B( 23-C , 24-C ) :   1.6165
B( 23-C , 65-H ) :   0.9707 B( 24-C , 66-H ) :   0.9693 B( 25-C , 67-H ) :   0.9761
B( 25-C , 68-H ) :   0.9828 B( 25-C , 69-H ) :   0.9822 B( 26-C , 27-C ) :   1.2214
B( 26-C , 70-H ) :   0.9723 B( 27-C , 29-C ) :   1.2231 B( 28-C , 71-H ) :   0.9716
B( 29-C , 30-C ) :   1.2264 B( 30-C , 32-C ) :   1.2973 B( 31-C , 39-C ) :   1.6133
B( 31-C , 72-H ) :   0.9690 B( 32-C , 37-C ) :   1.5614 B( 32-C , 73-H ) :   0.9781
B( 33-C , 34-C ) :   1.2892 B( 33-C , 39-C ) :   1.2820 B( 33-C , 40-C ) :   1.2176
B( 34-C , 35-C ) :   1.6099 B( 34-C , 74-H ) :   0.9701 B( 35-C , 75-H ) :   0.9691
B( 36-C , 76-H ) :   0.9765 B( 36-C , 77-H ) :   0.9819 B( 36-C , 78-H ) :   0.9828
B( 37-C , 38-C ) :   1.3000 B( 37-C , 79-H ) :   0.9773 B( 38-C , 40-C ) :   1.2199
B( 39-C , 80-H ) :   0.9712 B( 40-C , 41-C ) :   1.2314 B( 41-C , 43-C ) :   1.2038
B( 42-C , 50-C ) :   1.6346 B( 42-C , 81-H ) :   0.9696 B( 43-C , 48-C ) :   1.6477
B( 43-C , 82-H ) :   0.9730 B( 44-C , 45-C ) :   1.2663 B( 44-C , 50-C ) :   1.2683
B( 44-C , 51-C ) :   1.2604 B( 45-C , 46-C ) :   1.6348 B( 45-C , 83-H ) :   0.9715
B( 46-C , 84-H ) :   0.9702 B( 47-C , 85-H ) :   0.9762 B( 47-C , 86-H ) :   0.9829
B( 47-C , 87-H ) :   0.9825 B( 48-C , 49-C ) :   1.2054 B( 48-C , 88-H ) :   0.9743
B( 49-C , 51-C ) :   1.2251 B( 50-C , 89-H ) :   0.9711

MP2 TOTAL ENERGY:    -2130.915923695 Eh
FINAL SINGLE POINT ENERGY     -2130.915923694649

DIPOLE MOMENT
-------------
                                X             Y             Z
Electronic contribution:      0.85604      -2.40266      -0.05944
Nuclear contribution   :      0.01537       0.19668       0.07134
                        -----------------------------------------
Total Dipole Moment    :      0.87141      -2.20597       0.01190
                        -----------------------------------------
Magnitude (a.u.)       :      2.37188
Magnitude (Debye)      :      6.02884

Rotational constants in cm-1:     0.001500     0.001474     0.000762
Rotational constants in MHz :    44.977016    44.190241    22.834395

                             ****ORCA TERMINATED NORMALLY****
TOTAL RUN TIME: 0 days 1 hours 6 minutes 34 seconds 710 msec
