                         Program Version 5.0.4 -  RELEASE  -
|  1> ! PAL2
|  2> ! mp2 cc-pvdz TightSCF  NoKeepInts
|  3>
|  4> %scf
|  5>   MaxCore 2000
|  6> end
|  7> %mp2
|  8>   MaxCore 2000
|  9> end
| 10> * xyz 0 1
| 11>    C       -3.12000         6.44600        -0.38500
| 12>    C        1.47400         4.04100         0.05700
| 13>    C       -2.80200         4.09300         0.04900
| 14>    C       -4.10800         4.06400         0.56200
| 15>    C       -4.87100         5.21400         0.58200
| 16>    C       -5.23100         7.59000         0.11700
| 17>    C        0.13200         4.30700         0.06100
| 18>    C       -0.56900         3.05600         0.04700
| 19>    C        1.64900         2.61800         0.02300
| 20>    C       -2.32000         5.32000        -0.43200
| 21>    N       -4.37400         6.38300         0.11600
| 22>    N        0.38800         2.06700         0.02500
| 23>    N       -2.01000         0.39500        -0.07500
| 24>    N       -0.38800        -2.07400        -0.02700
| 25>    N        2.01000        -0.40100         0.06500
| 26>    C       -1.96000         2.86100         0.02400
| 27>    C       -2.62300         1.61500        -0.01800
| 28>    C       -5.57300        -4.32900         1.06600
| 29>    C       -4.07300         1.47100         0.05600
| 30>    C       -4.10600        -2.75600        -0.02600
| 31>    C       -4.99500        -2.75700        -1.11100
| 32>    C       -6.13200        -3.54200        -1.07600
| 33>    C       -7.65100        -5.11300         0.04000
| 34>    C       -4.32400         0.14100         0.03700
| 35>    C       -3.02500        -0.52000        -0.04800
| 36>    C       -4.42200        -3.56600         1.07500
| 37>    N       -6.40700        -4.31300         0.00100
| 38>    C       -2.86700        -1.92200        -0.04000
| 39>    C       -1.65000        -2.62400        -0.02700
| 40>    C        3.56800        -6.14200        -1.04000
| 41>    C       -1.47600        -4.04900        -0.03400
| 42>    C        2.80300        -4.09900        -0.00800
| 43>    C        3.65700        -4.38400         1.06900
| 44>    C        4.42700        -5.53000         1.05900
| 45>    C        5.24500        -7.58800         0.01400
| 46>    C       -0.13400        -4.31500        -0.02200
| 47>    C        0.56800        -3.06400        -0.02700
| 48>    C        2.77500        -5.01200        -1.07400
| 49>    N        4.37600        -6.39100         0.01700
| 50>    C        1.95900        -2.86900        -0.00900
| 51>    C        2.62100        -1.62200         0.00900
| 52>    C        5.54300         4.33900        -1.13000
| 53>    C        4.07000        -1.47900        -0.09400
| 54>    C        4.10400         2.75100        -0.02100
| 55>    C        5.02700         2.72900         1.03600
| 56>    C        6.16600         3.50900         0.97800
| 57>    C        7.61900         5.15300        -0.11500
| 58>    C        4.32100        -0.14800        -0.09200
| 59>    C        3.02500         0.51400         0.01500
| 60>    C        4.38700         3.58200        -1.11500
| 61>    C        2.86600         1.91600         0.01300
| 62>    N        6.41300         4.29600        -0.09500
| 63>    H       -2.78500         7.41500        -0.73300
| 64>    H        2.27400         4.76600         0.08100
| 65>    H       -4.54000         3.14400         0.93900
| 66>    H       -5.88500         5.23800         0.95900
| 67>    H       -5.83000         7.60100        -0.79600
| 68>    H       -5.88100         7.55800         0.99100
| 69>    H       -4.59300         8.47200         0.15700
| 70>    H       -0.33200         5.28200         0.06900
| 71>    H       -1.31500         5.41100        -0.82700
| 72>    H        0.18200         1.07200         0.00500
| 73>    H       -0.18300        -1.08000        -0.02100
| 74>    H       -5.86400        -4.96200         1.89500
| 75>    H       -4.79400         2.27200         0.13900
| 76>    H       -4.80000        -2.16000        -1.99400
| 77>    H       -6.84100        -3.58200        -1.89300
| 78>    H       -8.42800        -4.53600         0.54600
| 79>    H       -7.95600        -5.33700        -0.98100
| 80>    H       -7.45600        -6.03700         0.58400
| 81>    H       -5.28700        -0.34400         0.10000
| 82>    H       -3.78000        -3.60100         1.94700
| 83>    H        3.58700        -6.86800        -1.84300
| 84>    H       -2.27600        -4.77400        -0.05000
| 85>    H        3.71400        -3.72400         1.92600
| 86>    H        5.09200        -5.79500         1.87100
| 87>    H        6.20500        -7.32900        -0.43900
| 88>    H        5.39300        -7.91700         1.04200
| 89>    H        4.75900        -8.37300        -0.56400
| 90>    H        0.32900        -5.29000        -0.00800
| 91>    H        2.14600        -4.84200        -1.94000
| 92>    H        5.80800         4.98600        -1.95600
| 93>    H        4.78800        -2.28100        -0.18500
| 94>    H        4.86000         2.11400         1.91200
| 95>    H        6.90100         3.53100         1.77200
| 96>    H        7.38300         6.10900         0.35600
| 97>    H        8.41400         4.65200         0.43500
| 98>    H        7.92100         5.31000        -1.15000
| 99>    H        5.28300         0.33600        -0.17900
|100>    H        3.72000         3.63200        -1.96700
|101> *
|102>
|103>                          ****END OF INPUT****

CARTESIAN COORDINATES (ANGSTROEM)
---------------------------------
  C     -3.120000    6.446000   -0.385000
  C      1.474000    4.041000    0.057000
  C     -2.802000    4.093000    0.049000
  C     -4.108000    4.064000    0.562000
  C     -4.871000    5.214000    0.582000
  C     -5.231000    7.590000    0.117000
  C      0.132000    4.307000    0.061000
  C     -0.569000    3.056000    0.047000
  C      1.649000    2.618000    0.023000
  C     -2.320000    5.320000   -0.432000
  N     -4.374000    6.383000    0.116000
  N      0.388000    2.067000    0.025000
  N     -2.010000    0.395000   -0.075000
  N     -0.388000   -2.074000   -0.027000
  N      2.010000   -0.401000    0.065000
  C     -1.960000    2.861000    0.024000
  C     -2.623000    1.615000   -0.018000
  C     -5.573000   -4.329000    1.066000
  C     -4.073000    1.471000    0.056000
  C     -4.106000   -2.756000   -0.026000
  C     -4.995000   -2.757000   -1.111000
  C     -6.132000   -3.542000   -1.076000
  C     -7.651000   -5.113000    0.040000
  C     -4.324000    0.141000    0.037000
  C     -3.025000   -0.520000   -0.048000
  C     -4.422000   -3.566000    1.075000
  N     -6.407000   -4.313000    0.001000
  C     -2.867000   -1.922000   -0.040000
  C     -1.650000   -2.624000   -0.027000
  C      3.568000   -6.142000   -1.040000
  C     -1.476000   -4.049000   -0.034000
  C      2.803000   -4.099000   -0.008000
  C      3.657000   -4.384000    1.069000
  C      4.427000   -5.530000    1.059000
  C      5.245000   -7.588000    0.014000
  C     -0.134000   -4.315000   -0.022000
  C      0.568000   -3.064000   -0.027000
  C      2.775000   -5.012000   -1.074000
  N      4.376000   -6.391000    0.017000
  C      1.959000   -2.869000   -0.009000
  C      2.621000   -1.622000    0.009000
  C      5.543000    4.339000   -1.130000
  C      4.070000   -1.479000   -0.094000
  C      4.104000    2.751000   -0.021000
  C      5.027000    2.729000    1.036000
  C      6.166000    3.509000    0.978000
  C      7.619000    5.153000   -0.115000
  C      4.321000   -0.148000   -0.092000
  C      3.025000    0.514000    0.015000
  C      4.387000    3.582000   -1.115000
  C      2.866000    1.916000    0.013000
  N      6.413000    4.296000   -0.095000
  H     -2.785000    7.415000   -0.733000
  H      2.274000    4.766000    0.081000
  H     -4.540000    3.144000    0.939000
  H     -5.885000    5.238000    0.959000
  H     -5.830000    7.601000   -0.796000
  H     -5.881000    7.558000    0.991000
  H     -4.593000    8.472000    0.157000
  H     -0.332000    5.282000    0.069000
  H     -1.315000    5.411000   -0.827000
  H      0.182000    1.072000    0.005000
  H     -0.183000   -1.080000   -0.021000
  H     -5.864000   -4.962000    1.895000
  H     -4.794000    2.272000    0.139000
  H     -4.800000   -2.160000   -1.994000
  H     -6.841000   -3.582000   -1.893000
  H     -8.428000   -4.536000    0.546000
  H     -7.956000   -5.337000   -0.981000
  H     -7.456000   -6.037000    0.584000
  H     -5.287000   -0.344000    0.100000
  H     -3.780000   -3.601000    1.947000
  H      3.587000   -6.868000   -1.843000
  H     -2.276000   -4.774000   -0.050000
  H      3.714000   -3.724000    1.926000
  H      5.092000   -5.795000    1.871000
  H      6.205000   -7.329000   -0.439000
  H      5.393000   -7.917000    1.042000
  H      4.759000   -8.373000   -0.564000
  H      0.329000   -5.290000   -0.008000
  H      2.146000   -4.842000   -1.940000
  H      5.808000    4.986000   -1.956000
  H      4.788000   -2.281000   -0.185000
  H      4.860000    2.114000    1.912000
  H      6.901000    3.531000    1.772000
  H      7.383000    6.109000    0.356000
  H      8.414000    4.652000    0.435000
  H      7.921000    5.310000   -1.150000
  H      5.283000    0.336000   -0.179000
  H      3.720000    3.632000   -1.967000

 Total Charge           Charge          ....    0
 Multiplicity           Mult            ....    1
 Number of Electrons    NEL             ....  358
 Basis Dimension        Dim             ....  918

ORBITAL ENERGIES
----------------

  NO   OCC          E(Eh)            E(eV)
   0   2.0000     -15.675900      -426.5629
   1   2.0000     -15.633790      -425.4171
   2   2.0000     -15.631667      -425.3593
   3   2.0000     -15.590225      -424.2316
   4   2.0000     -15.524727      -422.4493
   5   2.0000     -15.516027      -422.2126
   6   2.0000     -15.453172      -420.5022
   7   2.0000     -15.440601      -420.1601
   8   2.0000     -11.326230      -308.2024
   9   2.0000     -11.325533      -308.1834
  10   2.0000     -11.325062      -308.1706
  11   2.0000     -11.299213      -307.4672
  12   2.0000     -11.298243      -307.4408
  13   2.0000     -11.292663      -307.2890
  14   2.0000     -11.290828      -307.2390
  15   2.0000     -11.286625      -307.1247
  16   2.0000     -11.286598      -307.1239
  17   2.0000     -11.278404      -306.9010
  18   2.0000     -11.272155      -306.7309
  19   2.0000     -11.260665      -306.4183
  20   2.0000     -11.259689      -306.3917
  21   2.0000     -11.255203      -306.2696
  22   2.0000     -11.252443      -306.1945
  23   2.0000     -11.237509      -305.7882
  24   2.0000     -11.236428      -305.7588
  25   2.0000     -11.231047      -305.6123
  26   2.0000     -11.230240      -305.5904
  27   2.0000     -11.229634      -305.5739
  28   2.0000     -11.229521      -305.5708
  29   2.0000     -11.210072      -305.0416
  30   2.0000     -11.208811      -305.0073
  31   2.0000     -11.197992      -304.7128
  32   2.0000     -11.190519      -304.5095
  33   2.0000     -11.189884      -304.4922
  34   2.0000     -11.188925      -304.4661
  35   2.0000     -11.188494      -304.4544
  36   2.0000     -11.187099      -304.4164
  37   2.0000     -11.185853      -304.3825
  38   2.0000     -11.185065      -304.3611
  39   2.0000     -11.173257      -304.0398
  40   2.0000     -11.172056      -304.0071
  41   2.0000     -11.170697      -303.9701
  42   2.0000     -11.167449      -303.8817
  43   2.0000     -11.160577      -303.6947
  44   2.0000     -11.160384      -303.6895
  45   2.0000     -11.157863      -303.6209
  46   2.0000     -11.155967      -303.5693
  47   2.0000     -11.155535      -303.5575
  48   2.0000     -11.147843      -303.3482
  49   2.0000     -11.138109      -303.0833
  50   2.0000     -11.130920      -302.8877
  51   2.0000     -11.119914      -302.5882
  52   2.0000      -1.357078       -36.9280
  53   2.0000      -1.321067       -35.9481
  54   2.0000      -1.319468       -35.9045
  55   2.0000      -1.283828       -34.9347
  56   2.0000      -1.225472       -33.3468
  57   2.0000      -1.210509       -32.9396
  58   2.0000      -1.172425       -31.9033
  59   2.0000      -1.151336       -31.3295
  60   2.0000      -1.140909       -31.0457
  61   2.0000      -1.110185       -30.2097
  62   2.0000      -1.108759       -30.1709
  63   2.0000      -1.079653       -29.3789
  64   2.0000      -1.079016       -29.3615
  65   2.0000      -1.045259       -28.4430
  66   2.0000      -1.044148       -28.4127
  67   2.0000      -1.039273       -28.2801
  68   2.0000      -1.014589       -27.6084
  69   2.0000      -1.013454       -27.5775
  70   2.0000      -1.009524       -27.4705
  71   2.0000      -0.992864       -27.0172
  72   2.0000      -0.986548       -26.8453
  73   2.0000      -0.980446       -26.6793
  74   2.0000      -0.972386       -26.4600
  75   2.0000      -0.961377       -26.1604
  76   2.0000      -0.953784       -25.9538
  77   2.0000      -0.946131       -25.7455
  78   2.0000      -0.935332       -25.4517
  79   2.0000      -0.918636       -24.9974
  80   2.0000      -0.907749       -24.7011
  81   2.0000      -0.894644       -24.3445
  82   2.0000      -0.875057       -23.8115
  83   2.0000      -0.871778       -23.7223
  84   2.0000      -0.869674       -23.6650
  85   2.0000      -0.857567       -23.3356
  86   2.0000      -0.841595       -22.9010
  87   2.0000      -0.835624       -22.7385
  88   2.0000      -0.824953       -22.4481
  89   2.0000      -0.797482       -21.7006
  90   2.0000      -0.790901       -21.5215
  91   2.0000      -0.751912       -20.4606
  92   2.0000      -0.746156       -20.3039
  93   2.0000      -0.732960       -19.9448
  94   2.0000      -0.724899       -19.7255
  95   2.0000      -0.722090       -19.6491
  96   2.0000      -0.716616       -19.5001
  97   2.0000      -0.712917       -19.3994
  98   2.0000      -0.708667       -19.2838
  99   2.0000      -0.697108       -18.9693
 100   2.0000      -0.696297       -18.9472
 101   2.0000      -0.685991       -18.6668
 102   2.0000      -0.682257       -18.5652
 103   2.0000      -0.681737       -18.5510
 104   2.0000      -0.678246       -18.4560
 105   2.0000      -0.673791       -18.3348
 106   2.0000      -0.670482       -18.2447
 107   2.0000      -0.660465       -17.9722
 108   2.0000      -0.657031       -17.8787
 109   2.0000      -0.652964       -17.7680
 110   2.0000      -0.651400       -17.7255
 111   2.0000      -0.643849       -17.5200
 112   2.0000      -0.643295       -17.5049
 113   2.0000      -0.638961       -17.3870
 114   2.0000      -0.637514       -17.3476
 115   2.0000      -0.627991       -17.0885
 116   2.0000      -0.623749       -16.9731
 117   2.0000      -0.620207       -16.8767
 118   2.0000      -0.612614       -16.6701
 119   2.0000      -0.612161       -16.6577
 120   2.0000      -0.611346       -16.6356
 121   2.0000      -0.608859       -16.5679
 122   2.0000      -0.600741       -16.3470
 123   2.0000      -0.586704       -15.9650
 124   2.0000      -0.581582       -15.8256
 125   2.0000      -0.580637       -15.7999
 126   2.0000      -0.579574       -15.7710
 127   2.0000      -0.573366       -15.6021
 128   2.0000      -0.568316       -15.4647
 129   2.0000      -0.559428       -15.2228
 130   2.0000      -0.551657       -15.0114
 131   2.0000      -0.547562       -14.8999
 132   2.0000      -0.542148       -14.7526
 133   2.0000      -0.541587       -14.7373
 134   2.0000      -0.538161       -14.6441
 135   2.0000      -0.535888       -14.5823
 136   2.0000      -0.529203       -14.4004
 137   2.0000      -0.521508       -14.1910
 138   2.0000      -0.516686       -14.0597
 139   2.0000      -0.514214       -13.9925
 140   2.0000      -0.512534       -13.9467
 141   2.0000      -0.511303       -13.9133
 142   2.0000      -0.508976       -13.8499
 143   2.0000      -0.504281       -13.7222
 144   2.0000      -0.501987       -13.6598
 145   2.0000      -0.496681       -13.5154
 146   2.0000      -0.491656       -13.3786
 147   2.0000      -0.483036       -13.1441
 148   2.0000      -0.479207       -13.0399
 149   2.0000      -0.466711       -12.6998
 150   2.0000      -0.466413       -12.6917
 151   2.0000      -0.457190       -12.4408
 152   2.0000      -0.450996       -12.2722
 153   2.0000      -0.444969       -12.1082
 154   2.0000      -0.440653       -11.9908
 155   2.0000      -0.428409       -11.6576
 156   2.0000      -0.424191       -11.5428
 157   2.0000      -0.408631       -11.1194
 158   2.0000      -0.403037       -10.9672
 159   2.0000      -0.388427       -10.5696
 160   2.0000      -0.385125       -10.4798
 161   2.0000      -0.378462       -10.2985
 162   2.0000      -0.370082       -10.0704
 163   2.0000      -0.356538        -9.7019
 164   2.0000      -0.355730        -9.6799
 165   2.0000      -0.341145        -9.2830
 166   2.0000      -0.337560        -9.1855
 167   2.0000      -0.325446        -8.8558
 168   2.0000      -0.323359        -8.7990
 169   2.0000      -0.304433        -8.2841
 170   2.0000      -0.299644        -8.1537
 171   2.0000      -0.285676        -7.7736
 172   2.0000      -0.280880        -7.6431
 173   2.0000      -0.263274        -7.1640
 174   2.0000      -0.242082        -6.5874
 175   2.0000      -0.189893        -5.1672
 176   2.0000      -0.180416        -4.9094
 177   2.0000      -0.076934        -2.0935
 178   2.0000      -0.058831        -1.6009
 179   0.0000       0.028422         0.7734
 180   0.0000       0.065963         1.7950
 181   0.0000       0.090914         2.4739
 182   0.0000       0.108748         2.9592
 183   0.0000       0.111762         3.0412

MULLIKEN ATOMIC CHARGES
-----------------------
   0 C :    0.211441
   1 N :   -0.455195
   2 C :   -0.068057
   3 N :   -0.338292
   4 C :   -0.048604
   5 N :   -0.565527
   6 C :   -0.110751
   7 N :   -0.340437
   8 C :    0.207706
   9 N :   -0.562205
  10 C :    0.119212
  11 N :   -0.438495
  12 C :   -0.078165
  13 N :   -0.430318
  14 C :    0.230169
  15 N :   -0.440947
  16 C :    0.228620
  17 C :   -0.122063
  18 C :   -0.191200
  19 C :    0.222515
  20 C :    0.212894
  21 C :   -0.087011
  22 C :   -0.091232
  23 C :   -0.040094
  24 C :    0.194187
  25 C :    0.114630
  26 C :   -0.085131
  27 C :    0.213502
  28 C :   -0.061198
  29 C :   -0.180773
  30 C :    0.245542
  31 C :    0.228549
  32 C :   -0.062073
  33 C :   -0.062061
  34 C :   -0.051145
  35 C :    0.226489
  36 C :    0.108727
  37 C :   -0.064431
  38 C :    0.231482
  39 C :   -0.057873
  40 C :   -0.181899
  41 C :    0.225738
  42 C :    0.197794
  43 C :   -0.072338
  44 C :   -0.089432
  45 C :   -0.060779
  46 C :    0.211132
  47 C :    0.115353
  48 C :   -0.067352
  49 C :    0.238104
  50 C :   -0.046866
  51 C :   -0.192033
  52 H :    0.038437
  53 H :   -0.017088
  54 H :    0.051991
  55 H :    0.037384
  56 H :    0.049633
  57 H :    0.048051
  58 H :    0.047355
  59 H :    0.000068
  60 H :    0.047310
  61 H :    0.171238
  62 H :    0.175271
  63 H :    0.055098
  64 H :   -0.011487
  65 H :    0.047185
  66 H :    0.055654
  67 H :    0.062216
  68 H :    0.057198
  69 H :    0.056361
  70 H :   -0.029825
  71 H :    0.044655
  72 H :    0.070172
  73 H :   -0.008311
  74 H :    0.059329
  75 H :    0.069577
  76 H :    0.073912
  77 H :    0.067229
  78 H :    0.066539
  79 H :   -0.016409
  80 H :    0.060241
  81 H :    0.054274
  82 H :   -0.024658
  83 H :    0.042140
  84 H :    0.054254
  85 H :    0.060871
  86 H :    0.055664
  87 H :    0.057183
  88 H :   -0.014842
  89 H :    0.046324
Sum of atomic charges:   -0.0000000

LOEWDIN ATOMIC CHARGES
----------------------
   0 C :   -0.019724
   1 N :    0.118508
   2 C :   -0.101341
   3 N :    0.183284
   4 C :   -0.009668
   5 N :   -0.133260
   6 C :   -0.035671
   7 N :    0.175513
   8 C :   -0.023100
   9 N :   -0.140408
  10 C :    0.024109
  11 N :    0.141755
  12 C :   -0.116361
  13 N :    0.164237
  14 C :   -0.024951
  15 N :    0.138865
  16 C :   -0.059519
  17 C :   -0.045653
  18 C :   -0.105200
  19 C :   -0.079895
  20 C :    0.004020
  21 C :   -0.122433
  22 C :    0.036509
  23 C :   -0.014872
  24 C :   -0.012163
  25 C :    0.029771
  26 C :   -0.108399
  27 C :   -0.115499
  28 C :   -0.027371
  29 C :   -0.100393
  30 C :   -0.030653
  31 C :    0.022428
  32 C :   -0.094841
  33 C :    0.078484
  34 C :   -0.015534
  35 C :    0.020927
  36 C :    0.034794
  37 C :   -0.094595
  38 C :   -0.051620
  39 C :   -0.018108
  40 C :   -0.108349
  41 C :   -0.091232
  42 C :   -0.010063
  43 C :   -0.099504
  44 C :    0.033540
  45 C :   -0.027666
  46 C :    0.001572
  47 C :    0.029520
  48 C :   -0.095295
  49 C :   -0.070800
  50 C :   -0.019165
  51 C :   -0.108469
  52 H :    0.023262
  53 H :    0.002876
  54 H :    0.035111
  55 H :    0.023138
  56 H :    0.021885
  57 H :    0.026506
  58 H :    0.026997
  59 H :    0.011074
  60 H :    0.036157
  61 H :    0.060102
  62 H :    0.061749
  63 H :    0.030624
  64 H :    0.005324
  65 H :    0.045890
  66 H :    0.029269
  67 H :    0.028122
  68 H :    0.031609
  69 H :    0.030284
  70 H :   -0.004552
  71 H :    0.043429
  72 H :    0.037172
  73 H :    0.006978
  74 H :    0.050224
  75 H :    0.036824
  76 H :    0.034279
  77 H :    0.035824
  78 H :    0.035513
  79 H :    0.003054
  80 H :    0.050281
  81 H :    0.029051
  82 H :   -0.002627
  83 H :    0.042633
  84 H :    0.029898
  85 H :    0.027383
  86 H :    0.030234
  87 H :    0.031391
  88 H :    0.002214
  89 H :    0.044761

  Mayer bond orders larger than 0.100000
B(  0-C ,  1-N ) :   1.0968 B(  0-C , 17-C ) :   1.7030 B(  0-C , 52-H ) :   0.9662
B(  1-N ,  8-C ) :   1.0876 B(  1-N , 10-C ) :   0.9770 B(  2-C , 12-C ) :   1.5032
B(  2-C , 16-C ) :   1.3596 B(  2-C , 53-H ) :   0.9746 B(  3-N , 14-C ) :   1.2196
B(  3-N , 16-C ) :   1.1874 B(  3-N , 61-H ) :   0.8990 B(  4-C ,  6-C ) :   1.2118
B(  4-C , 17-C ) :   1.2138 B(  4-C , 18-C ) :   1.4457 B(  5-N , 19-C ) :   1.4532
B(  5-N , 27-C ) :   1.3772 B(  6-C ,  8-C ) :   1.7118 B(  6-C , 54-H ) :   0.9381
B(  7-N , 30-C ) :   1.1959 B(  7-N , 38-C ) :   1.1904 B(  7-N , 62-H ) :   0.8969
B(  8-C , 55-H ) :   0.9660 B(  9-N , 41-C ) :   1.3952 B(  9-N , 49-C ) :   1.4246
B( 10-C , 56-H ) :   0.9773 B( 10-C , 57-H ) :   0.9822 B( 10-C , 58-H ) :   0.9843
B( 11-N , 20-C ) :   1.1301 B( 11-N , 24-C ) :   1.1074 B( 11-N , 25-C ) :   0.9603
B( 12-C , 14-C ) :   1.3560 B( 12-C , 59-H ) :   0.9683 B( 13-N , 31-C ) :   1.1581
B( 13-N , 35-C ) :   1.1566 B( 13-N , 36-C ) :   0.9429 B( 14-C , 18-C ) :   1.1278
B( 15-N , 42-C ) :   1.1083 B( 15-N , 46-C ) :   1.1236 B( 15-N , 47-C ) :   0.9613
B( 16-C , 51-C ) :   1.1710 B( 17-C , 60-H ) :   0.9477 B( 18-C , 19-C ) :   1.1305
B( 19-C , 21-C ) :   1.2482 B( 20-C , 28-C ) :   1.6289 B( 20-C , 63-H ) :   0.9703
B( 21-C , 26-C ) :   1.5977 B( 21-C , 64-H ) :   0.9585 B( 22-C , 23-C ) :   1.2886
B( 22-C , 28-C ) :   1.2640 B( 22-C , 29-C ) :   1.2254 B( 23-C , 24-C ) :   1.6207
B( 23-C , 65-H ) :   0.9703 B( 24-C , 66-H ) :   0.9695 B( 25-C , 67-H ) :   0.9760
B( 25-C , 68-H ) :   0.9828 B( 25-C , 69-H ) :   0.9823 B( 26-C , 27-C ) :   1.2483
B( 26-C , 70-H ) :   0.9699 B( 27-C , 29-C ) :   1.2100 B( 28-C , 71-H ) :   0.9720
B( 29-C , 30-C ) :   1.2425 B( 30-C , 32-C ) :   1.2824 B( 31-C , 39-C ) :   1.5914
B( 31-C , 72-H ) :   0.9682 B( 32-C , 37-C ) :   1.5763 B( 32-C , 73-H ) :   0.9786
B( 33-C , 34-C ) :   1.3044 B( 33-C , 39-C ) :   1.3011 B( 33-C , 40-C ) :   1.1820
B( 34-C , 35-C ) :   1.5889 B( 34-C , 74-H ) :   0.9697 B( 35-C , 75-H ) :   0.9682
B( 36-C , 76-H ) :   0.9767 B( 36-C , 77-H ) :   0.9816 B( 36-C , 78-H ) :   0.9824
B( 37-C , 38-C ) :   1.2878 B( 37-C , 79-H ) :   0.9766 B( 38-C , 40-C ) :   1.2313
B( 39-C , 80-H ) :   0.9706 B( 40-C , 41-C ) :   1.2485 B( 41-C , 43-C ) :   1.1862
B( 42-C , 50-C ) :   1.6330 B( 42-C , 81-H ) :   0.9697 B( 43-C , 48-C ) :   1.6664
B( 43-C , 82-H ) :   0.9723 B( 44-C , 45-C ) :   1.2642 B( 44-C , 50-C ) :   1.2722
B( 44-C , 51-C ) :   1.2597 B( 45-C , 46-C ) :   1.6344 B( 45-C , 83-H ) :   0.9718
B( 46-C , 84-H ) :   0.9700 B( 47-C , 85-H ) :   0.9762 B( 47-C , 86-H ) :   0.9829
B( 47-C , 87-H ) :   0.9824 B( 48-C , 49-C ) :   1.1897 B( 48-C , 88-H ) :   0.9748
B( 49-C , 51-C ) :   1.2422 B( 50-C , 89-H ) :   0.9709

MP2 TOTAL ENERGY:    -2130.861547695 Eh
FINAL SINGLE POINT ENERGY     -2130.861547695272

DIPOLE MOMENT
-------------
                                X             Y             Z
Electronic contribution:      2.63624      -3.96346      -0.10969
Nuclear contribution   :     -0.04873       0.15201       0.12888
                        -----------------------------------------
Total Dipole Moment    :      2.58751      -3.81145       0.01919
                        -----------------------------------------
Magnitude (a.u.)       :      4.60681
Magnitude (Debye)      :     11.70959

Rotational constants in cm-1:     0.001502     0.001477     0.000760
Rotational constants in MHz :    45.038618    44.280108    22.795119

                             ****ORCA TERMINATED NORMALLY****
TOTAL RUN TIME: 0 days 1 hours 30 minutes 28 seconds 571 msec
