                         Program Version 5.0.4 -  RELEASE  -
|  1> ! PAL2
|  2> ! mp2 cc-pvdz TightSCF  NoKeepInts
|  3>
|  4> %scf
|  5>   MaxCore 2000
|  6> end
|  7> %mp2
|  8>   MaxCore 2000
|  9> end
| 10> * xyz 0 1
| 11>    C       -3.45500         6.22600        -0.87100
| 12>    C        1.47400         4.04100         0.05700
| 13>    C       -2.80200         4.09300         0.04900
| 14>    C       -3.75600         4.29400         1.05900
| 15>    C       -4.52200         5.44200         1.07000
| 16>    C       -5.22800         7.59100         0.13400
| 17>    C        0.13200         4.30700         0.06100
| 18>    C       -0.56900         3.05600         0.04700
| 19>    C        1.64900         2.61800         0.02300
| 20>    C       -2.66800         5.09200        -0.92700
| 21>    N       -4.36500         6.39000         0.11600
| 22>    N        0.38800         2.06700         0.02500
| 23>    N       -2.01000         0.39500        -0.07500
| 24>    N       -0.38800        -2.07400        -0.02700
| 25>    N        2.01000        -0.40100         0.06500
| 26>    C       -1.96000         2.86100         0.02400
| 27>    C       -2.62300         1.61500        -0.01800
| 28>    C       -5.57300        -4.32900         1.06600
| 29>    C       -4.07300         1.47100         0.05600
| 30>    C       -4.10600        -2.75600        -0.02600
| 31>    C       -4.99500        -2.75700        -1.11100
| 32>    C       -6.13200        -3.54200        -1.07600
| 33>    C       -7.65100        -5.11300         0.04000
| 34>    C       -4.32400         0.14100         0.03700
| 35>    C       -3.02500        -0.52000        -0.04800
| 36>    C       -4.42200        -3.56600         1.07500
| 37>    N       -6.40700        -4.31300         0.00100
| 38>    C       -2.86700        -1.92200        -0.04000
| 39>    C       -1.65000        -2.62400        -0.02700
| 40>    C        3.56800        -6.14200        -1.04000
| 41>    C       -1.47600        -4.04900        -0.03400
| 42>    C        2.80300        -4.09900        -0.00800
| 43>    C        3.65700        -4.38400         1.06900
| 44>    C        4.42700        -5.53000         1.05900
| 45>    C        5.24500        -7.58800         0.01400
| 46>    C       -0.13400        -4.31500        -0.02200
| 47>    C        0.56800        -3.06400        -0.02700
| 48>    C        2.77500        -5.01200        -1.07400
| 49>    N        4.37600        -6.39100         0.01700
| 50>    C        1.95900        -2.86900        -0.00900
| 51>    C        2.62100        -1.62200         0.00900
| 52>    C        5.54300         4.33900        -1.13000
| 53>    C        4.07000        -1.47900        -0.09400
| 54>    C        4.10400         2.75100        -0.02100
| 55>    C        5.02700         2.72900         1.03600
| 56>    C        6.16600         3.50900         0.97800
| 57>    C        7.61900         5.15300        -0.11500
| 58>    C        4.32100        -0.14800        -0.09200
| 59>    C        3.02500         0.51400         0.01500
| 60>    C        4.38700         3.58200        -1.11500
| 61>    C        2.86600         1.91600         0.01300
| 62>    N        6.41300         4.29600        -0.09500
| 63>    H       -3.37800         7.02800        -1.59500
| 64>    H        2.27400         4.76600         0.08100
| 65>    H       -3.91200         3.55500         1.83500
| 66>    H       -5.27600         5.63700         1.82200
| 67>    H       -6.16000         7.36700        -0.39000
| 68>    H       -5.43600         7.85900         1.17000
| 69>    H       -4.70500         8.40700        -0.36400
| 70>    H       -0.33200         5.28200         0.06900
| 71>    H       -1.94000         5.00200        -1.72500
| 72>    H        0.18200         1.07200         0.00500
| 73>    H       -0.18300        -1.08000        -0.02100
| 74>    H       -5.86400        -4.96200         1.89500
| 75>    H       -4.79400         2.27200         0.13900
| 76>    H       -4.80000        -2.16000        -1.99400
| 77>    H       -6.84100        -3.58200        -1.89300
| 78>    H       -8.42800        -4.53600         0.54600
| 79>    H       -7.95600        -5.33700        -0.98100
| 80>    H       -7.45600        -6.03700         0.58400
| 81>    H       -5.28700        -0.34400         0.10000
| 82>    H       -3.78000        -3.60100         1.94700
| 83>    H        3.58700        -6.86800        -1.84300
| 84>    H       -2.27600        -4.77400        -0.05000
| 85>    H        3.71400        -3.72400         1.92600
| 86>    H        5.09200        -5.79500         1.87100
| 87>    H        6.20500        -7.32900        -0.43900
| 88>    H        5.39300        -7.91700         1.04200
| 89>    H        4.75900        -8.37300        -0.56400
| 90>    H        0.32900        -5.29000        -0.00800
| 91>    H        2.14600        -4.84200        -1.94000
| 92>    H        5.80800         4.98600        -1.95600
| 93>    H        4.78800        -2.28100        -0.18500
| 94>    H        4.86000         2.11400         1.91200
| 95>    H        6.90100         3.53100         1.77200
| 96>    H        7.38300         6.10900         0.35600
| 97>    H        8.41400         4.65200         0.43500
| 98>    H        7.92100         5.31000        -1.15000
| 99>    H        5.28300         0.33600        -0.17900
|100>    H        3.72000         3.63200        -1.96700
|101> *
|102>
|103>                          ****END OF INPUT****

CARTESIAN COORDINATES (ANGSTROEM)
---------------------------------
  C     -3.455000    6.226000   -0.871000
  C      1.474000    4.041000    0.057000
  C     -2.802000    4.093000    0.049000
  C     -3.756000    4.294000    1.059000
  C     -4.522000    5.442000    1.070000
  C     -5.228000    7.591000    0.134000
  C      0.132000    4.307000    0.061000
  C     -0.569000    3.056000    0.047000
  C      1.649000    2.618000    0.023000
  C     -2.668000    5.092000   -0.927000
  N     -4.365000    6.390000    0.116000
  N      0.388000    2.067000    0.025000
  N     -2.010000    0.395000   -0.075000
  N     -0.388000   -2.074000   -0.027000
  N      2.010000   -0.401000    0.065000
  C     -1.960000    2.861000    0.024000
  C     -2.623000    1.615000   -0.018000
  C     -5.573000   -4.329000    1.066000
  C     -4.073000    1.471000    0.056000
  C     -4.106000   -2.756000   -0.026000
  C     -4.995000   -2.757000   -1.111000
  C     -6.132000   -3.542000   -1.076000
  C     -7.651000   -5.113000    0.040000
  C     -4.324000    0.141000    0.037000
  C     -3.025000   -0.520000   -0.048000
  C     -4.422000   -3.566000    1.075000
  N     -6.407000   -4.313000    0.001000
  C     -2.867000   -1.922000   -0.040000
  C     -1.650000   -2.624000   -0.027000
  C      3.568000   -6.142000   -1.040000
  C     -1.476000   -4.049000   -0.034000
  C      2.803000   -4.099000   -0.008000
  C      3.657000   -4.384000    1.069000
  C      4.427000   -5.530000    1.059000
  C      5.245000   -7.588000    0.014000
  C     -0.134000   -4.315000   -0.022000
  C      0.568000   -3.064000   -0.027000
  C      2.775000   -5.012000   -1.074000
  N      4.376000   -6.391000    0.017000
  C      1.959000   -2.869000   -0.009000
  C      2.621000   -1.622000    0.009000
  C      5.543000    4.339000   -1.130000
  C      4.070000   -1.479000   -0.094000
  C      4.104000    2.751000   -0.021000
  C      5.027000    2.729000    1.036000
  C      6.166000    3.509000    0.978000
  C      7.619000    5.153000   -0.115000
  C      4.321000   -0.148000   -0.092000
  C      3.025000    0.514000    0.015000
  C      4.387000    3.582000   -1.115000
  C      2.866000    1.916000    0.013000
  N      6.413000    4.296000   -0.095000
  H     -3.378000    7.028000   -1.595000
  H      2.274000    4.766000    0.081000
  H     -3.912000    3.555000    1.835000
  H     -5.276000    5.637000    1.822000
  H     -6.160000    7.367000   -0.390000
  H     -5.436000    7.859000    1.170000
  H     -4.705000    8.407000   -0.364000
  H     -0.332000    5.282000    0.069000
  H     -1.940000    5.002000   -1.725000
  H      0.182000    1.072000    0.005000
  H     -0.183000   -1.080000   -0.021000
  H     -5.864000   -4.962000    1.895000
  H     -4.794000    2.272000    0.139000
  H     -4.800000   -2.160000   -1.994000
  H     -6.841000   -3.582000   -1.893000
  H     -8.428000   -4.536000    0.546000
  H     -7.956000   -5.337000   -0.981000
  H     -7.456000   -6.037000    0.584000
  H     -5.287000   -0.344000    0.100000
  H     -3.780000   -3.601000    1.947000
  H      3.587000   -6.868000   -1.843000
  H     -2.276000   -4.774000   -0.050000
  H      3.714000   -3.724000    1.926000
  H      5.092000   -5.795000    1.871000
  H      6.205000   -7.329000   -0.439000
  H      5.393000   -7.917000    1.042000
  H      4.759000   -8.373000   -0.564000
  H      0.329000   -5.290000   -0.008000
  H      2.146000   -4.842000   -1.940000
  H      5.808000    4.986000   -1.956000
  H      4.788000   -2.281000   -0.185000
  H      4.860000    2.114000    1.912000
  H      6.901000    3.531000    1.772000
  H      7.383000    6.109000    0.356000
  H      8.414000    4.652000    0.435000
  H      7.921000    5.310000   -1.150000
  H      5.283000    0.336000   -0.179000
  H      3.720000    3.632000   -1.967000

 Total Charge           Charge          ....    0
 Multiplicity           Mult            ....    1
 Number of Electrons    NEL             ....  358
 Basis Dimension        Dim             ....  918

ORBITAL ENERGIES
----------------

  NO   OCC          E(Eh)            E(eV)
   0   2.0000     -15.640316      -425.5946
   1   2.0000     -15.637965      -425.5307
   2   2.0000     -15.629785      -425.3081
   3   2.0000     -15.623436      -425.1353
   4   2.0000     -15.518811      -422.2883
   5   2.0000     -15.516532      -422.2263
   6   2.0000     -15.444585      -420.2685
   7   2.0000     -15.443824      -420.2478
   8   2.0000     -11.303431      -307.5820
   9   2.0000     -11.301731      -307.5357
  10   2.0000     -11.296735      -307.3998
  11   2.0000     -11.296714      -307.3992
  12   2.0000     -11.294547      -307.3403
  13   2.0000     -11.293835      -307.3209
  14   2.0000     -11.293298      -307.3063
  15   2.0000     -11.292464      -307.2836
  16   2.0000     -11.286740      -307.1278
  17   2.0000     -11.286511      -307.1216
  18   2.0000     -11.283037      -307.0270
  19   2.0000     -11.281688      -306.9903
  20   2.0000     -11.244697      -305.9838
  21   2.0000     -11.241261      -305.8903
  22   2.0000     -11.235216      -305.7258
  23   2.0000     -11.234338      -305.7019
  24   2.0000     -11.234177      -305.6975
  25   2.0000     -11.233544      -305.6803
  26   2.0000     -11.232752      -305.6587
  27   2.0000     -11.229944      -305.5823
  28   2.0000     -11.227637      -305.5195
  29   2.0000     -11.227458      -305.5147
  30   2.0000     -11.223105      -305.3962
  31   2.0000     -11.222489      -305.3794
  32   2.0000     -11.200010      -304.7678
  33   2.0000     -11.199789      -304.7617
  34   2.0000     -11.194799      -304.6260
  35   2.0000     -11.194240      -304.6107
  36   2.0000     -11.173092      -304.0353
  37   2.0000     -11.172466      -304.0183
  38   2.0000     -11.171972      -304.0048
  39   2.0000     -11.171205      -303.9839
  40   2.0000     -11.170503      -303.9648
  41   2.0000     -11.169328      -303.9329
  42   2.0000     -11.167684      -303.8881
  43   2.0000     -11.166956      -303.8683
  44   2.0000     -11.159561      -303.6671
  45   2.0000     -11.158214      -303.6304
  46   2.0000     -11.153237      -303.4950
  47   2.0000     -11.151486      -303.4473
  48   2.0000     -11.144410      -303.2548
  49   2.0000     -11.142566      -303.2046
  50   2.0000     -11.142167      -303.1938
  51   2.0000     -11.139325      -303.1165
  52   2.0000      -1.326692       -36.1011
  53   2.0000      -1.324576       -36.0436
  54   2.0000      -1.317536       -35.8520
  55   2.0000      -1.312632       -35.7185
  56   2.0000      -1.217490       -33.1296
  57   2.0000      -1.213177       -33.0122
  58   2.0000      -1.161963       -31.6186
  59   2.0000      -1.157267       -31.4908
  60   2.0000      -1.115644       -30.3582
  61   2.0000      -1.112314       -30.2676
  62   2.0000      -1.106501       -30.1094
  63   2.0000      -1.102600       -30.0033
  64   2.0000      -1.050675       -28.5903
  65   2.0000      -1.048430       -28.5292
  66   2.0000      -1.042112       -28.3573
  67   2.0000      -1.038085       -28.2477
  68   2.0000      -1.026592       -27.9350
  69   2.0000      -1.009796       -27.4779
  70   2.0000      -1.009348       -27.4658
  71   2.0000      -0.998399       -27.1678
  72   2.0000      -0.981521       -26.7085
  73   2.0000      -0.976335       -26.5674
  74   2.0000      -0.968507       -26.3544
  75   2.0000      -0.960888       -26.1471
  76   2.0000      -0.952479       -25.9183
  77   2.0000      -0.943133       -25.6640
  78   2.0000      -0.940892       -25.6030
  79   2.0000      -0.923578       -25.1318
  80   2.0000      -0.893201       -24.3052
  81   2.0000      -0.877655       -23.8822
  82   2.0000      -0.875318       -23.8186
  83   2.0000      -0.869506       -23.6605
  84   2.0000      -0.865356       -23.5475
  85   2.0000      -0.856964       -23.3192
  86   2.0000      -0.847639       -23.0654
  87   2.0000      -0.844850       -22.9895
  88   2.0000      -0.821874       -22.3643
  89   2.0000      -0.798543       -21.7295
  90   2.0000      -0.798028       -21.7154
  91   2.0000      -0.739378       -20.1195
  92   2.0000      -0.729100       -19.8398
  93   2.0000      -0.728642       -19.8274
  94   2.0000      -0.721207       -19.6250
  95   2.0000      -0.720200       -19.5976
  96   2.0000      -0.712165       -19.3790
  97   2.0000      -0.710268       -19.3274
  98   2.0000      -0.698724       -19.0132
  99   2.0000      -0.692152       -18.8344
 100   2.0000      -0.683675       -18.6037
 101   2.0000      -0.680596       -18.5200
 102   2.0000      -0.679014       -18.4769
 103   2.0000      -0.674184       -18.3455
 104   2.0000      -0.668155       -18.1814
 105   2.0000      -0.667610       -18.1666
 106   2.0000      -0.662538       -18.0286
 107   2.0000      -0.658885       -17.9292
 108   2.0000      -0.656951       -17.8765
 109   2.0000      -0.654537       -17.8108
 110   2.0000      -0.652297       -17.7499
 111   2.0000      -0.651564       -17.7299
 112   2.0000      -0.648626       -17.6500
 113   2.0000      -0.645755       -17.5719
 114   2.0000      -0.634903       -17.2766
 115   2.0000      -0.623943       -16.9784
 116   2.0000      -0.617316       -16.7980
 117   2.0000      -0.615330       -16.7440
 118   2.0000      -0.611281       -16.6338
 119   2.0000      -0.609179       -16.5766
 120   2.0000      -0.608180       -16.5494
 121   2.0000      -0.605586       -16.4788
 122   2.0000      -0.602716       -16.4007
 123   2.0000      -0.594053       -16.1650
 124   2.0000      -0.586015       -15.9463
 125   2.0000      -0.584125       -15.8948
 126   2.0000      -0.579090       -15.7578
 127   2.0000      -0.575246       -15.6532
 128   2.0000      -0.570482       -15.5236
 129   2.0000      -0.562207       -15.2984
 130   2.0000      -0.553764       -15.0687
 131   2.0000      -0.542355       -14.7582
 132   2.0000      -0.540432       -14.7059
 133   2.0000      -0.535625       -14.5751
 134   2.0000      -0.533866       -14.5272
 135   2.0000      -0.531182       -14.4542
 136   2.0000      -0.524523       -14.2730
 137   2.0000      -0.523965       -14.2578
 138   2.0000      -0.516943       -14.0667
 139   2.0000      -0.515922       -14.0389
 140   2.0000      -0.510962       -13.9040
 141   2.0000      -0.505998       -13.7689
 142   2.0000      -0.503691       -13.7061
 143   2.0000      -0.502722       -13.6798
 144   2.0000      -0.498956       -13.5773
 145   2.0000      -0.498493       -13.5647
 146   2.0000      -0.497443       -13.5361
 147   2.0000      -0.493437       -13.4271
 148   2.0000      -0.491563       -13.3761
 149   2.0000      -0.469185       -12.7672
 150   2.0000      -0.460356       -12.5269
 151   2.0000      -0.451542       -12.2871
 152   2.0000      -0.448278       -12.1983
 153   2.0000      -0.446547       -12.1512
 154   2.0000      -0.445123       -12.1124
 155   2.0000      -0.439809       -11.9678
 156   2.0000      -0.435356       -11.8466
 157   2.0000      -0.432131       -11.7589
 158   2.0000      -0.391805       -10.6616
 159   2.0000      -0.382463       -10.4073
 160   2.0000      -0.377662       -10.2767
 161   2.0000      -0.373847       -10.1729
 162   2.0000      -0.360990        -9.8230
 163   2.0000      -0.358931        -9.7670
 164   2.0000      -0.353685        -9.6243
 165   2.0000      -0.349503        -9.5104
 166   2.0000      -0.337184        -9.1753
 167   2.0000      -0.332337        -9.0433
 168   2.0000      -0.329461        -8.9651
 169   2.0000      -0.300377        -8.1737
 170   2.0000      -0.294760        -8.0208
 171   2.0000      -0.289645        -7.8816
 172   2.0000      -0.287546        -7.8245
 173   2.0000      -0.255404        -6.9499
 174   2.0000      -0.248500        -6.7620
 175   2.0000      -0.188148        -5.1198
 176   2.0000      -0.178058        -4.8452
 177   2.0000      -0.066735        -1.8160
 178   2.0000      -0.054405        -1.4804
 179   0.0000       0.030958         0.8424
 180   0.0000       0.070791         1.9263
 181   0.0000       0.092761         2.5241
 182   0.0000       0.097044         2.6407
 183   0.0000       0.133387         3.6296

MULLIKEN ATOMIC CHARGES
-----------------------
   0 C :    0.207654
   1 N :   -0.444177
   2 C :   -0.063677
   3 N :   -0.337171
   4 C :   -0.062077
   5 N :   -0.563477
   6 C :   -0.071147
   7 N :   -0.338120
   8 C :    0.206301
   9 N :   -0.563202
  10 C :    0.115096
  11 N :   -0.437548
  12 C :   -0.073178
  13 N :   -0.438611
  14 C :    0.243808
  15 N :   -0.440605
  16 C :    0.232933
  17 C :   -0.076128
  18 C :   -0.215687
  19 C :    0.241213
  20 C :    0.208347
  21 C :   -0.086687
  22 C :   -0.087538
  23 C :   -0.047746
  24 C :    0.204125
  25 C :    0.113966
  26 C :   -0.071865
  27 C :    0.221992
  28 C :   -0.053591
  29 C :   -0.185176
  30 C :    0.236838
  31 C :    0.212781
  32 C :   -0.065196
  33 C :   -0.078766
  34 C :   -0.050704
  35 C :    0.207521
  36 C :    0.113428
  37 C :   -0.066587
  38 C :    0.235866
  39 C :   -0.060557
  40 C :   -0.188912
  41 C :    0.222266
  42 C :    0.202979
  43 C :   -0.073257
  44 C :   -0.088729
  45 C :   -0.053337
  46 C :    0.204397
  47 C :    0.115489
  48 C :   -0.073214
  49 C :    0.227712
  50 C :   -0.052345
  51 C :   -0.188958
  52 H :    0.052351
  53 H :   -0.014167
  54 H :    0.049761
  55 H :    0.051526
  56 H :    0.058204
  57 H :    0.055902
  58 H :    0.054691
  59 H :   -0.010434
  60 H :    0.045896
  61 H :    0.172805
  62 H :    0.172966
  63 H :    0.056328
  64 H :   -0.017352
  65 H :    0.047229
  66 H :    0.057430
  67 H :    0.062567
  68 H :    0.058076
  69 H :    0.058506
  70 H :   -0.024894
  71 H :    0.047282
  72 H :    0.058039
  73 H :   -0.013592
  74 H :    0.048159
  75 H :    0.057163
  76 H :    0.063379
  77 H :    0.059223
  78 H :    0.058493
  79 H :   -0.014396
  80 H :    0.048678
  81 H :    0.053647
  82 H :   -0.023400
  83 H :    0.043322
  84 H :    0.053598
  85 H :    0.059479
  86 H :    0.056414
  87 H :    0.056773
  88 H :   -0.020769
  89 H :    0.044375
Sum of atomic charges:   -0.0000000

LOEWDIN ATOMIC CHARGES
----------------------
   0 C :   -0.006423
   1 N :    0.134127
   2 C :   -0.100468
   3 N :    0.179408
   4 C :    0.029738
   5 N :   -0.138054
   6 C :   -0.024418
   7 N :    0.177475
   8 C :   -0.007221
   9 N :   -0.139441
  10 C :    0.027901
  11 N :    0.144254
  12 C :   -0.103550
  13 N :    0.144572
  14 C :   -0.041825
  15 N :    0.138923
  16 C :   -0.048009
  17 C :   -0.028684
  18 C :   -0.107647
  19 C :   -0.085838
  20 C :    0.000754
  21 C :   -0.107574
  22 C :    0.041834
  23 C :   -0.019433
  24 C :   -0.002681
  25 C :    0.030324
  26 C :   -0.102734
  27 C :   -0.097012
  28 C :   -0.022021
  29 C :   -0.107236
  30 C :   -0.043469
  31 C :    0.003722
  32 C :   -0.099382
  33 C :    0.045324
  34 C :   -0.019556
  35 C :   -0.000745
  36 C :    0.030329
  37 C :   -0.100484
  38 C :   -0.043635
  39 C :   -0.024091
  40 C :   -0.109109
  41 C :   -0.092199
  42 C :   -0.005769
  43 C :   -0.103696
  44 C :    0.034420
  45 C :   -0.022783
  46 C :   -0.004329
  47 C :    0.029386
  48 C :   -0.102609
  49 C :   -0.087227
  50 C :   -0.022892
  51 C :   -0.108026
  52 H :    0.028742
  53 H :    0.004251
  54 H :    0.044039
  55 H :    0.028673
  56 H :    0.026094
  57 H :    0.030233
  58 H :    0.030343
  59 H :    0.004866
  60 H :    0.042641
  61 H :    0.060622
  62 H :    0.060561
  63 H :    0.030958
  64 H :   -0.000317
  65 H :    0.045507
  66 H :    0.030403
  67 H :    0.028392
  68 H :    0.032005
  69 H :    0.031218
  70 H :   -0.002249
  71 H :    0.044979
  72 H :    0.031487
  73 H :    0.004424
  74 H :    0.045519
  75 H :    0.030864
  76 H :    0.028826
  77 H :    0.032058
  78 H :    0.031744
  79 H :    0.004088
  80 H :    0.045228
  81 H :    0.028982
  82 H :   -0.001853
  83 H :    0.043563
  84 H :    0.029356
  85 H :    0.026753
  86 H :    0.030517
  87 H :    0.031190
  88 H :   -0.000611
  89 H :    0.043681

  Mayer bond orders larger than 0.100000
B(  0-C ,  1-N ) :   1.1132 B(  0-C , 17-C ) :   1.6455 B(  0-C , 52-H ) :   0.9694
B(  1-N ,  8-C ) :   1.1081 B(  1-N , 10-C ) :   0.9646 B(  2-C , 12-C ) :   1.5320
B(  2-C , 16-C ) :   1.3290 B(  2-C , 53-H ) :   0.9775 B(  3-N , 14-C ) :   1.2054
B(  3-N , 16-C ) :   1.1951 B(  3-N , 61-H ) :   0.8983 B(  4-C ,  6-C ) :   1.2532
B(  4-C , 17-C ) :   1.2575 B(  4-C , 18-C ) :   1.2998 B(  5-N , 19-C ) :   1.4245
B(  5-N , 27-C ) :   1.4007 B(  6-C ,  8-C ) :   1.6500 B(  6-C , 54-H ) :   0.9699
B(  7-N , 30-C ) :   1.1943 B(  7-N , 38-C ) :   1.1999 B(  7-N , 62-H ) :   0.8982
B(  8-C , 55-H ) :   0.9696 B(  9-N , 41-C ) :   1.4077 B(  9-N , 49-C ) :   1.4153
B( 10-C , 56-H ) :   0.9764 B( 10-C , 57-H ) :   0.9818 B( 10-C , 58-H ) :   0.9837
B( 11-N , 20-C ) :   1.1254 B( 11-N , 24-C ) :   1.1207 B( 11-N , 25-C ) :   0.9585
B( 12-C , 14-C ) :   1.3299 B( 12-C , 59-H ) :   0.9762 B( 13-N , 31-C ) :   1.1278
B( 13-N , 35-C ) :   1.1223 B( 13-N , 36-C ) :   0.9576 B( 14-C , 18-C ) :   1.1832
B( 15-N , 42-C ) :   1.1154 B( 15-N , 46-C ) :   1.1157 B( 15-N , 47-C ) :   0.9619
B( 16-C , 51-C ) :   1.1949 B( 17-C , 60-H ) :   0.9707 B( 18-C , 19-C ) :   1.2003
B( 19-C , 21-C ) :   1.2141 B( 20-C , 28-C ) :   1.6238 B( 20-C , 63-H ) :   0.9703
B( 21-C , 26-C ) :   1.6398 B( 21-C , 64-H ) :   0.9710 B( 22-C , 23-C ) :   1.2844
B( 22-C , 28-C ) :   1.2731 B( 22-C , 29-C ) :   1.2284 B( 23-C , 24-C ) :   1.6186
B( 23-C , 65-H ) :   0.9708 B( 24-C , 66-H ) :   0.9692 B( 25-C , 67-H ) :   0.9761
B( 25-C , 68-H ) :   0.9829 B( 25-C , 69-H ) :   0.9821 B( 26-C , 27-C ) :   1.2135
B( 26-C , 70-H ) :   0.9730 B( 27-C , 29-C ) :   1.2299 B( 28-C , 71-H ) :   0.9715
B( 29-C , 30-C ) :   1.2128 B( 30-C , 32-C ) :   1.3106 B( 31-C , 39-C ) :   1.6258
B( 31-C , 72-H ) :   0.9695 B( 32-C , 37-C ) :   1.5475 B( 32-C , 73-H ) :   0.9779
B( 33-C , 34-C ) :   1.2784 B( 33-C , 39-C ) :   1.2724 B( 33-C , 40-C ) :   1.2416
B( 34-C , 35-C ) :   1.6230 B( 34-C , 74-H ) :   0.9704 B( 35-C , 75-H ) :   0.9694
B( 36-C , 76-H ) :   0.9763 B( 36-C , 77-H ) :   0.9820 B( 36-C , 78-H ) :   0.9830
B( 37-C , 38-C ) :   1.3125 B( 37-C , 79-H ) :   0.9776 B( 38-C , 40-C ) :   1.2091
B( 39-C , 80-H ) :   0.9714 B( 40-C , 41-C ) :   1.2228 B( 41-C , 43-C ) :   1.2092
B( 42-C , 50-C ) :   1.6328 B( 42-C , 81-H ) :   0.9696 B( 43-C , 48-C ) :   1.6426
B( 43-C , 82-H ) :   0.9736 B( 44-C , 45-C ) :   1.2707 B( 44-C , 50-C ) :   1.2679
B( 44-C , 51-C ) :   1.2541 B( 45-C , 46-C ) :   1.6320 B( 45-C , 83-H ) :   0.9712
B( 46-C , 84-H ) :   0.9702 B( 47-C , 85-H ) :   0.9761 B( 47-C , 86-H ) :   0.9828
B( 47-C , 87-H ) :   0.9826 B( 48-C , 49-C ) :   1.2093 B( 48-C , 88-H ) :   0.9740
B( 49-C , 51-C ) :   1.2244 B( 50-C , 89-H ) :   0.9713

MP2 TOTAL ENERGY:    -2130.913491936 Eh
FINAL SINGLE POINT ENERGY     -2130.913491936152

DIPOLE MOMENT
-------------
                                X             Y             Z
Electronic contribution:      0.20450      -1.08655      -0.13800
Nuclear contribution   :     -0.04910       0.15411       0.17138
                        -----------------------------------------
Total Dipole Moment    :      0.15540      -0.93244       0.03338
                        -----------------------------------------
Magnitude (a.u.)       :      0.94589
Magnitude (Debye)      :      2.40425

Rotational constants in cm-1:     0.001499     0.001474     0.000762
Rotational constants in MHz :    44.951401    44.194847    22.840722

                             ****ORCA TERMINATED NORMALLY****
TOTAL RUN TIME: 0 days 1 hours 31 minutes 36 seconds 383 msec
