                         Program Version 5.0.4 -  RELEASE  -
|  1> ! PAL2
|  2> ! mp2 cc-pvdz TightSCF  NoKeepInts
|  3>
|  4> %scf
|  5>   MaxCore 2000
|  6> end
|  7> %mp2
|  8>   MaxCore 2000
|  9> end
| 10> * xyz 0 1
| 11>    C       -4.94000         5.18800         0.28100
| 12>    C        1.47400         4.04100         0.05700
| 13>    C       -2.80200         4.09300         0.04900
| 14>    C       -2.23400         5.35900        -0.15900
| 15>    C       -3.02800         6.48800        -0.13700
| 16>    C       -5.17900         7.62500         0.13100
| 17>    C        0.13200         4.30700         0.06100
| 18>    C       -0.56900         3.05600         0.04700
| 19>    C        1.64900         2.61800         0.02300
| 20>    C       -4.18600         4.03100         0.27500
| 21>    N       -4.36100         6.39300         0.07700
| 22>    N        0.38800         2.06700         0.02500
| 23>    N       -2.01000         0.39500        -0.07500
| 24>    N       -0.38800        -2.07400        -0.02700
| 25>    N        2.01000        -0.40100         0.06500
| 26>    C       -1.96000         2.86100         0.02400
| 27>    C       -2.62300         1.61500        -0.01800
| 28>    C       -5.57300        -4.32900         1.06600
| 29>    C       -4.07300         1.47100         0.05600
| 30>    C       -4.10600        -2.75600        -0.02600
| 31>    C       -4.99500        -2.75700        -1.11100
| 32>    C       -6.13200        -3.54200        -1.07600
| 33>    C       -7.65100        -5.11300         0.04000
| 34>    C       -4.32400         0.14100         0.03700
| 35>    C       -3.02500        -0.52000        -0.04800
| 36>    C       -4.42200        -3.56600         1.07500
| 37>    N       -6.40700        -4.31300         0.00100
| 38>    C       -2.86700        -1.92200        -0.04000
| 39>    C       -1.65000        -2.62400        -0.02700
| 40>    C        3.56800        -6.14200        -1.04000
| 41>    C       -1.47600        -4.04900        -0.03400
| 42>    C        2.80300        -4.09900        -0.00800
| 43>    C        3.65700        -4.38400         1.06900
| 44>    C        4.42700        -5.53000         1.05900
| 45>    C        5.24500        -7.58800         0.01400
| 46>    C       -0.13400        -4.31500        -0.02200
| 47>    C        0.56800        -3.06400        -0.02700
| 48>    C        2.77500        -5.01200        -1.07400
| 49>    N        4.37600        -6.39100         0.01700
| 50>    C        1.95900        -2.86900        -0.00900
| 51>    C        2.62100        -1.62200         0.00900
| 52>    C        5.54300         4.33900        -1.13000
| 53>    C        4.07000        -1.47900        -0.09400
| 54>    C        4.10400         2.75100        -0.02100
| 55>    C        5.02700         2.72900         1.03600
| 56>    C        6.16600         3.50900         0.97800
| 57>    C        7.61900         5.15300        -0.11500
| 58>    C        4.32100        -0.14800        -0.09200
| 59>    C        3.02500         0.51400         0.01500
| 60>    C        4.38700         3.58200        -1.11500
| 61>    C        2.86600         1.91600         0.01300
| 62>    N        6.41300         4.29600        -0.09500
| 63>    H       -6.01200         5.18600         0.43900
| 64>    H        2.27400         4.76600         0.08100
| 65>    H       -1.17000         5.47300        -0.32800
| 66>    H       -2.63400         7.48500        -0.28300
| 67>    H       -5.15000         8.02600         1.14700
| 68>    H       -4.76800         8.35000        -0.57000
| 69>    H       -6.20400         7.37800        -0.14400
| 70>    H       -0.33200         5.28200         0.06900
| 71>    H       -4.68600         3.08100         0.42700
| 72>    H        0.18200         1.07200         0.00500
| 73>    H       -0.18300        -1.08000        -0.02100
| 74>    H       -5.86400        -4.96200         1.89500
| 75>    H       -4.79400         2.27200         0.13900
| 76>    H       -4.80000        -2.16000        -1.99400
| 77>    H       -6.84100        -3.58200        -1.89300
| 78>    H       -8.42800        -4.53600         0.54600
| 79>    H       -7.95600        -5.33700        -0.98100
| 80>    H       -7.45600        -6.03700         0.58400
| 81>    H       -5.28700        -0.34400         0.10000
| 82>    H       -3.78000        -3.60100         1.94700
| 83>    H        3.58700        -6.86800        -1.84300
| 84>    H       -2.27600        -4.77400        -0.05000
| 85>    H        3.71400        -3.72400         1.92600
| 86>    H        5.09200        -5.79500         1.87100
| 87>    H        6.20500        -7.32900        -0.43900
| 88>    H        5.39300        -7.91700         1.04200
| 89>    H        4.75900        -8.37300        -0.56400
| 90>    H        0.32900        -5.29000        -0.00800
| 91>    H        2.14600        -4.84200        -1.94000
| 92>    H        5.80800         4.98600        -1.95600
| 93>    H        4.78800        -2.28100        -0.18500
| 94>    H        4.86000         2.11400         1.91200
| 95>    H        6.90100         3.53100         1.77200
| 96>    H        7.38300         6.10900         0.35600
| 97>    H        8.41400         4.65200         0.43500
| 98>    H        7.92100         5.31000        -1.15000
| 99>    H        5.28300         0.33600        -0.17900
|100>    H        3.72000         3.63200        -1.96700
|101> *
|102>
|103>                          ****END OF INPUT****

CARTESIAN COORDINATES (ANGSTROEM)
---------------------------------
  C     -4.940000    5.188000    0.281000
  C      1.474000    4.041000    0.057000
  C     -2.802000    4.093000    0.049000
  C     -2.234000    5.359000   -0.159000
  C     -3.028000    6.488000   -0.137000
  C     -5.179000    7.625000    0.131000
  C      0.132000    4.307000    0.061000
  C     -0.569000    3.056000    0.047000
  C      1.649000    2.618000    0.023000
  C     -4.186000    4.031000    0.275000
  N     -4.361000    6.393000    0.077000
  N      0.388000    2.067000    0.025000
  N     -2.010000    0.395000   -0.075000
  N     -0.388000   -2.074000   -0.027000
  N      2.010000   -0.401000    0.065000
  C     -1.960000    2.861000    0.024000
  C     -2.623000    1.615000   -0.018000
  C     -5.573000   -4.329000    1.066000
  C     -4.073000    1.471000    0.056000
  C     -4.106000   -2.756000   -0.026000
  C     -4.995000   -2.757000   -1.111000
  C     -6.132000   -3.542000   -1.076000
  C     -7.651000   -5.113000    0.040000
  C     -4.324000    0.141000    0.037000
  C     -3.025000   -0.520000   -0.048000
  C     -4.422000   -3.566000    1.075000
  N     -6.407000   -4.313000    0.001000
  C     -2.867000   -1.922000   -0.040000
  C     -1.650000   -2.624000   -0.027000
  C      3.568000   -6.142000   -1.040000
  C     -1.476000   -4.049000   -0.034000
  C      2.803000   -4.099000   -0.008000
  C      3.657000   -4.384000    1.069000
  C      4.427000   -5.530000    1.059000
  C      5.245000   -7.588000    0.014000
  C     -0.134000   -4.315000   -0.022000
  C      0.568000   -3.064000   -0.027000
  C      2.775000   -5.012000   -1.074000
  N      4.376000   -6.391000    0.017000
  C      1.959000   -2.869000   -0.009000
  C      2.621000   -1.622000    0.009000
  C      5.543000    4.339000   -1.130000
  C      4.070000   -1.479000   -0.094000
  C      4.104000    2.751000   -0.021000
  C      5.027000    2.729000    1.036000
  C      6.166000    3.509000    0.978000
  C      7.619000    5.153000   -0.115000
  C      4.321000   -0.148000   -0.092000
  C      3.025000    0.514000    0.015000
  C      4.387000    3.582000   -1.115000
  C      2.866000    1.916000    0.013000
  N      6.413000    4.296000   -0.095000
  H     -6.012000    5.186000    0.439000
  H      2.274000    4.766000    0.081000
  H     -1.170000    5.473000   -0.328000
  H     -2.634000    7.485000   -0.283000
  H     -5.150000    8.026000    1.147000
  H     -4.768000    8.350000   -0.570000
  H     -6.204000    7.378000   -0.144000
  H     -0.332000    5.282000    0.069000
  H     -4.686000    3.081000    0.427000
  H      0.182000    1.072000    0.005000
  H     -0.183000   -1.080000   -0.021000
  H     -5.864000   -4.962000    1.895000
  H     -4.794000    2.272000    0.139000
  H     -4.800000   -2.160000   -1.994000
  H     -6.841000   -3.582000   -1.893000
  H     -8.428000   -4.536000    0.546000
  H     -7.956000   -5.337000   -0.981000
  H     -7.456000   -6.037000    0.584000
  H     -5.287000   -0.344000    0.100000
  H     -3.780000   -3.601000    1.947000
  H      3.587000   -6.868000   -1.843000
  H     -2.276000   -4.774000   -0.050000
  H      3.714000   -3.724000    1.926000
  H      5.092000   -5.795000    1.871000
  H      6.205000   -7.329000   -0.439000
  H      5.393000   -7.917000    1.042000
  H      4.759000   -8.373000   -0.564000
  H      0.329000   -5.290000   -0.008000
  H      2.146000   -4.842000   -1.940000
  H      5.808000    4.986000   -1.956000
  H      4.788000   -2.281000   -0.185000
  H      4.860000    2.114000    1.912000
  H      6.901000    3.531000    1.772000
  H      7.383000    6.109000    0.356000
  H      8.414000    4.652000    0.435000
  H      7.921000    5.310000   -1.150000
  H      5.283000    0.336000   -0.179000
  H      3.720000    3.632000   -1.967000

 Total Charge           Charge          ....    0
 Multiplicity           Mult            ....    1
 Number of Electrons    NEL             ....  358
 Basis Dimension        Dim             ....  918

ORBITAL ENERGIES
----------------

  NO   OCC          E(Eh)            E(eV)
   0   2.0000     -15.679769      -426.6682
   1   2.0000     -15.633588      -425.4115
   2   2.0000     -15.632217      -425.3743
   3   2.0000     -15.588310      -424.1795
   4   2.0000     -15.525014      -422.4571
   5   2.0000     -15.515585      -422.2005
   6   2.0000     -15.453842      -420.5204
   7   2.0000     -15.439502      -420.1302
   8   2.0000     -11.329359      -308.2875
   9   2.0000     -11.328375      -308.2608
  10   2.0000     -11.327911      -308.2481
  11   2.0000     -11.299085      -307.4637
  12   2.0000     -11.298608      -307.4508
  13   2.0000     -11.292702      -307.2901
  14   2.0000     -11.291529      -307.2581
  15   2.0000     -11.286881      -307.1317
  16   2.0000     -11.286172      -307.1123
  17   2.0000     -11.282011      -306.9991
  18   2.0000     -11.269805      -306.6670
  19   2.0000     -11.263324      -306.4906
  20   2.0000     -11.262329      -306.4635
  21   2.0000     -11.250903      -306.1526
  22   2.0000     -11.249357      -306.1106
  23   2.0000     -11.237363      -305.7842
  24   2.0000     -11.236976      -305.7737
  25   2.0000     -11.230843      -305.6068
  26   2.0000     -11.230094      -305.5864
  27   2.0000     -11.230019      -305.5843
  28   2.0000     -11.229858      -305.5800
  29   2.0000     -11.210931      -305.0649
  30   2.0000     -11.209510      -305.0263
  31   2.0000     -11.194238      -304.6107
  32   2.0000     -11.191844      -304.5456
  33   2.0000     -11.191378      -304.5329
  34   2.0000     -11.188502      -304.4546
  35   2.0000     -11.188249      -304.4477
  36   2.0000     -11.187082      -304.4160
  37   2.0000     -11.174581      -304.0758
  38   2.0000     -11.174578      -304.0757
  39   2.0000     -11.172006      -304.0057
  40   2.0000     -11.170908      -303.9759
  41   2.0000     -11.170110      -303.9541
  42   2.0000     -11.168237      -303.9032
  43   2.0000     -11.161953      -303.7322
  44   2.0000     -11.160721      -303.6987
  45   2.0000     -11.156774      -303.5913
  46   2.0000     -11.156494      -303.5836
  47   2.0000     -11.151811      -303.4562
  48   2.0000     -11.146984      -303.3249
  49   2.0000     -11.135296      -303.0068
  50   2.0000     -11.129543      -302.8503
  51   2.0000     -11.117480      -302.5220
  52   2.0000      -1.360355       -37.0171
  53   2.0000      -1.320884       -35.9431
  54   2.0000      -1.319949       -35.9176
  55   2.0000      -1.280577       -34.8463
  56   2.0000      -1.226086       -33.3635
  57   2.0000      -1.210424       -32.9373
  58   2.0000      -1.173519       -31.9331
  59   2.0000      -1.150651       -31.3108
  60   2.0000      -1.143621       -31.1195
  61   2.0000      -1.110232       -30.2109
  62   2.0000      -1.108978       -30.1768
  63   2.0000      -1.082042       -29.4439
  64   2.0000      -1.077534       -29.3212
  65   2.0000      -1.045078       -28.4380
  66   2.0000      -1.044585       -28.4246
  67   2.0000      -1.041095       -28.3296
  68   2.0000      -1.014911       -27.6171
  69   2.0000      -1.014155       -27.5966
  70   2.0000      -1.009132       -27.4599
  71   2.0000      -0.993478       -27.0339
  72   2.0000      -0.985674       -26.8215
  73   2.0000      -0.981749       -26.7148
  74   2.0000      -0.973590       -26.4927
  75   2.0000      -0.962228       -26.1836
  76   2.0000      -0.954763       -25.9804
  77   2.0000      -0.946306       -25.7503
  78   2.0000      -0.938490       -25.5376
  79   2.0000      -0.916963       -24.9518
  80   2.0000      -0.910536       -24.7769
  81   2.0000      -0.897592       -24.4247
  82   2.0000      -0.876922       -23.8623
  83   2.0000      -0.872038       -23.7294
  84   2.0000      -0.870898       -23.6983
  85   2.0000      -0.860693       -23.4206
  86   2.0000      -0.844426       -22.9780
  87   2.0000      -0.837037       -22.7769
  88   2.0000      -0.828500       -22.5446
  89   2.0000      -0.796520       -21.6744
  90   2.0000      -0.789174       -21.4745
  91   2.0000      -0.769434       -20.9374
  92   2.0000      -0.752972       -20.4894
  93   2.0000      -0.733803       -19.9678
  94   2.0000      -0.727510       -19.7965
  95   2.0000      -0.725292       -19.7362
  96   2.0000      -0.719874       -19.5888
  97   2.0000      -0.717502       -19.5242
  98   2.0000      -0.713595       -19.4179
  99   2.0000      -0.698770       -19.0145
 100   2.0000      -0.698267       -19.0008
 101   2.0000      -0.694074       -18.8867
 102   2.0000      -0.685350       -18.6493
 103   2.0000      -0.684298       -18.6207
 104   2.0000      -0.678832       -18.4719
 105   2.0000      -0.674495       -18.3540
 106   2.0000      -0.672714       -18.3055
 107   2.0000      -0.660799       -17.9813
 108   2.0000      -0.658186       -17.9102
 109   2.0000      -0.652752       -17.7623
 110   2.0000      -0.652170       -17.7464
 111   2.0000      -0.646159       -17.5829
 112   2.0000      -0.645606       -17.5678
 113   2.0000      -0.637883       -17.3577
 114   2.0000      -0.636020       -17.3070
 115   2.0000      -0.628519       -17.1029
 116   2.0000      -0.623060       -16.9543
 117   2.0000      -0.620934       -16.8965
 118   2.0000      -0.613040       -16.6817
 119   2.0000      -0.612052       -16.6548
 120   2.0000      -0.611837       -16.6489
 121   2.0000      -0.611365       -16.6361
 122   2.0000      -0.601425       -16.3656
 123   2.0000      -0.588760       -16.0210
 124   2.0000      -0.581435       -15.8216
 125   2.0000      -0.580946       -15.8083
 126   2.0000      -0.580278       -15.7902
 127   2.0000      -0.571145       -15.5416
 128   2.0000      -0.567325       -15.4377
 129   2.0000      -0.559922       -15.2362
 130   2.0000      -0.555110       -15.1053
 131   2.0000      -0.547899       -14.9091
 132   2.0000      -0.542731       -14.7685
 133   2.0000      -0.540687       -14.7128
 134   2.0000      -0.538657       -14.6576
 135   2.0000      -0.536234       -14.5917
 136   2.0000      -0.531730       -14.4691
 137   2.0000      -0.518772       -14.1165
 138   2.0000      -0.516721       -14.0607
 139   2.0000      -0.514708       -14.0059
 140   2.0000      -0.512019       -13.9328
 141   2.0000      -0.510154       -13.8820
 142   2.0000      -0.508036       -13.8244
 143   2.0000      -0.505048       -13.7431
 144   2.0000      -0.502560       -13.6754
 145   2.0000      -0.495893       -13.4939
 146   2.0000      -0.488561       -13.2944
 147   2.0000      -0.481529       -13.1031
 148   2.0000      -0.477113       -12.9829
 149   2.0000      -0.467688       -12.7264
 150   2.0000      -0.466330       -12.6895
 151   2.0000      -0.456538       -12.4230
 152   2.0000      -0.451558       -12.2875
 153   2.0000      -0.444937       -12.1074
 154   2.0000      -0.438379       -11.9289
 155   2.0000      -0.427628       -11.6364
 156   2.0000      -0.409467       -11.1422
 157   2.0000      -0.394529       -10.7357
 158   2.0000      -0.390300       -10.6206
 159   2.0000      -0.387605       -10.5473
 160   2.0000      -0.378471       -10.2987
 161   2.0000      -0.374269       -10.1844
 162   2.0000      -0.365786        -9.9535
 163   2.0000      -0.356500        -9.7009
 164   2.0000      -0.356014        -9.6876
 165   2.0000      -0.341896        -9.3035
 166   2.0000      -0.337643        -9.1877
 167   2.0000      -0.324576        -8.8322
 168   2.0000      -0.321549        -8.7498
 169   2.0000      -0.305275        -8.3070
 170   2.0000      -0.299384        -8.1467
 171   2.0000      -0.285746        -7.7756
 172   2.0000      -0.278615        -7.5815
 173   2.0000      -0.263627        -7.1736
 174   2.0000      -0.241847        -6.5810
 175   2.0000      -0.190002        -5.1702
 176   2.0000      -0.181191        -4.9305
 177   2.0000      -0.079743        -2.1699
 178   2.0000      -0.059675        -1.6238
 179   0.0000       0.028371         0.7720
 180   0.0000       0.065350         1.7783
 181   0.0000       0.090222         2.4551
 182   0.0000       0.106275         2.8919
 183   0.0000       0.115868         3.1529

MULLIKEN ATOMIC CHARGES
-----------------------
   0 C :    0.215529
   1 N :   -0.455552
   2 C :   -0.073118
   3 N :   -0.341540
   4 C :   -0.079049
   5 N :   -0.568294
   6 C :   -0.112682
   7 N :   -0.340951
   8 C :    0.218851
   9 N :   -0.562318
  10 C :    0.119625
  11 N :   -0.438513
  12 C :   -0.050987
  13 N :   -0.429349
  14 C :    0.218203
  15 N :   -0.440848
  16 C :    0.232252
  17 C :   -0.103754
  18 C :   -0.180292
  19 C :    0.214594
  20 C :    0.213597
  21 C :   -0.057395
  22 C :   -0.090963
  23 C :   -0.039466
  24 C :    0.193344
  25 C :    0.114652
  26 C :   -0.087922
  27 C :    0.217236
  28 C :   -0.061852
  29 C :   -0.181897
  30 C :    0.245718
  31 C :    0.230215
  32 C :   -0.061564
  33 C :   -0.060047
  34 C :   -0.051324
  35 C :    0.228753
  36 C :    0.108206
  37 C :   -0.064422
  38 C :    0.231023
  39 C :   -0.057537
  40 C :   -0.181612
  41 C :    0.226139
  42 C :    0.197426
  43 C :   -0.072483
  44 C :   -0.089240
  45 C :   -0.061568
  46 C :    0.211997
  47 C :    0.115288
  48 C :   -0.066648
  49 C :    0.238731
  50 C :   -0.046219
  51 C :   -0.193141
  52 H :    0.034967
  53 H :   -0.018017
  54 H :    0.042036
  55 H :    0.033623
  56 H :    0.049493
  57 H :    0.046715
  58 H :    0.047332
  59 H :   -0.014922
  60 H :    0.048752
  61 H :    0.171239
  62 H :    0.175471
  63 H :    0.055107
  64 H :   -0.035815
  65 H :    0.047093
  66 H :    0.055455
  67 H :    0.062286
  68 H :    0.057134
  69 H :    0.056233
  70 H :   -0.030710
  71 H :    0.044593
  72 H :    0.071454
  73 H :   -0.007937
  74 H :    0.060534
  75 H :    0.070913
  76 H :    0.075073
  77 H :    0.068103
  78 H :    0.067418
  79 H :   -0.016759
  80 H :    0.061486
  81 H :    0.054534
  82 H :   -0.024912
  83 H :    0.042135
  84 H :    0.054425
  85 H :    0.061085
  86 H :    0.055674
  87 H :    0.057350
  88 H :   -0.014407
  89 H :    0.046935
Sum of atomic charges:    0.0000000

LOEWDIN ATOMIC CHARGES
----------------------
   0 C :   -0.020948
   1 N :    0.121690
   2 C :   -0.100711
   3 N :    0.182502
   4 C :   -0.011135
   5 N :   -0.134616
   6 C :   -0.029305
   7 N :    0.175064
   8 C :   -0.018663
   9 N :   -0.140676
  10 C :    0.023121
  11 N :    0.141679
  12 C :   -0.102944
  13 N :    0.166459
  14 C :   -0.016265
  15 N :    0.139113
  16 C :   -0.060739
  17 C :   -0.019647
  18 C :   -0.112632
  19 C :   -0.073733
  20 C :    0.004636
  21 C :   -0.100770
  22 C :    0.036871
  23 C :   -0.014474
  24 C :   -0.013063
  25 C :    0.029747
  26 C :   -0.107969
  27 C :   -0.117028
  28 C :   -0.027843
  29 C :   -0.099545
  30 C :   -0.029686
  31 C :    0.024407
  32 C :   -0.094360
  33 C :    0.082391
  34 C :   -0.015202
  35 C :    0.023457
  36 C :    0.035287
  37 C :   -0.094098
  38 C :   -0.052449
  39 C :   -0.017458
  40 C :   -0.108837
  41 C :   -0.090973
  42 C :   -0.010259
  43 C :   -0.099214
  44 C :    0.034250
  45 C :   -0.028162
  46 C :    0.002398
  47 C :    0.029581
  48 C :   -0.094628
  49 C :   -0.069315
  50 C :   -0.018585
  51 C :   -0.108570
  52 H :    0.022342
  53 H :    0.002517
  54 H :    0.001645
  55 H :    0.021945
  56 H :    0.022038
  57 H :    0.025779
  58 H :    0.027015
  59 H :    0.004994
  60 H :   -0.008757
  61 H :    0.060235
  62 H :    0.061885
  63 H :    0.030657
  64 H :   -0.003439
  65 H :    0.045898
  66 H :    0.029148
  67 H :    0.028151
  68 H :    0.031580
  69 H :    0.030232
  70 H :   -0.004990
  71 H :    0.043376
  72 H :    0.037774
  73 H :    0.007171
  74 H :    0.050732
  75 H :    0.037478
  76 H :    0.034884
  77 H :    0.036236
  78 H :    0.035926
  79 H :    0.002887
  80 H :    0.050836
  81 H :    0.029150
  82 H :   -0.002761
  83 H :    0.042593
  84 H :    0.030003
  85 H :    0.027491
  86 H :    0.030244
  87 H :    0.031468
  88 H :    0.002430
  89 H :    0.045053

  Mayer bond orders larger than 0.100000
B(  0-C ,  1-N ) :   1.0936 B(  0-C , 17-C ) :   1.7243 B(  0-C , 52-H ) :   0.9611
B(  1-N ,  8-C ) :   1.0980 B(  1-N , 10-C ) :   0.9770 B(  2-C , 12-C ) :   1.4873
B(  2-C , 16-C ) :   1.3736 B(  2-C , 53-H ) :   0.9719 B(  3-N , 14-C ) :   1.2224
B(  3-N , 16-C ) :   1.1794 B(  3-N , 61-H ) :   0.8985 B(  4-C ,  6-C ) :   1.2213
B(  4-C , 17-C ) :   1.2191 B(  4-C , 18-C ) :   1.4761 B(  5-N , 19-C ) :   1.4612
B(  5-N , 27-C ) :   1.3697 B(  6-C ,  8-C ) :   1.7167 B(  6-C , 54-H ) :   0.8890
B(  7-N , 30-C ) :   1.1954 B(  7-N , 38-C ) :   1.1895 B(  7-N , 62-H ) :   0.8968
B(  8-C , 55-H ) :   0.9624 B(  9-N , 41-C ) :   1.3946 B(  9-N , 49-C ) :   1.4248
B( 10-C , 56-H ) :   0.9777 B( 10-C , 57-H ) :   0.9824 B( 10-C , 58-H ) :   0.9840
B( 11-N , 20-C ) :   1.1310 B( 11-N , 24-C ) :   1.1064 B( 11-N , 25-C ) :   0.9604
B( 12-C , 14-C ) :   1.3584 B( 12-C , 59-H ) :   0.9262 B( 13-N , 31-C ) :   1.1616
B( 13-N , 35-C ) :   1.1608 B( 13-N , 36-C ) :   0.9412 B( 14-C , 18-C ) :   1.1183
B( 15-N , 42-C ) :   1.1080 B( 15-N , 46-C ) :   1.1250 B( 15-N , 47-C ) :   0.9610
B( 16-C , 51-C ) :   1.1676 B( 17-C , 60-H ) :   0.8697 B( 18-C , 19-C ) :   1.1169
B( 19-C , 21-C ) :   1.2537 B( 20-C , 28-C ) :   1.6290 B( 20-C , 63-H ) :   0.9703
B( 21-C , 26-C ) :   1.5791 B( 21-C , 64-H ) :   0.9049 B( 22-C , 23-C ) :   1.2891
B( 22-C , 28-C ) :   1.2633 B( 22-C , 29-C ) :   1.2261 B( 23-C , 24-C ) :   1.6205
B( 23-C , 65-H ) :   0.9703 B( 24-C , 66-H ) :   0.9695 B( 25-C , 67-H ) :   0.9761
B( 25-C , 68-H ) :   0.9828 B( 25-C , 69-H ) :   0.9823 B( 26-C , 27-C ) :   1.2635
B( 26-C , 70-H ) :   0.9669 B( 27-C , 29-C ) :   1.2060 B( 28-C , 71-H ) :   0.9720
B( 29-C , 30-C ) :   1.2471 B( 30-C , 32-C ) :   1.2788 B( 31-C , 39-C ) :   1.5874
B( 31-C , 72-H ) :   0.9681 B( 32-C , 37-C ) :   1.5799 B( 32-C , 73-H ) :   0.9786
B( 33-C , 34-C ) :   1.3070 B( 33-C , 39-C ) :   1.3044 B( 33-C , 40-C ) :   1.1759
B( 34-C , 35-C ) :   1.5852 B( 34-C , 74-H ) :   0.9696 B( 35-C , 75-H ) :   0.9681
B( 36-C , 76-H ) :   0.9768 B( 36-C , 77-H ) :   0.9816 B( 36-C , 78-H ) :   0.9823
B( 37-C , 38-C ) :   1.2849 B( 37-C , 79-H ) :   0.9764 B( 38-C , 40-C ) :   1.2340
B( 39-C , 80-H ) :   0.9705 B( 40-C , 41-C ) :   1.2506 B( 41-C , 43-C ) :   1.1840
B( 42-C , 50-C ) :   1.6325 B( 42-C , 81-H ) :   0.9696 B( 43-C , 48-C ) :   1.6689
B( 43-C , 82-H ) :   0.9721 B( 44-C , 45-C ) :   1.2639 B( 44-C , 50-C ) :   1.2730
B( 44-C , 51-C ) :   1.2601 B( 45-C , 46-C ) :   1.6341 B( 45-C , 83-H ) :   0.9718
B( 46-C , 84-H ) :   0.9700 B( 47-C , 85-H ) :   0.9762 B( 47-C , 86-H ) :   0.9829
B( 47-C , 87-H ) :   0.9824 B( 48-C , 49-C ) :   1.1875 B( 48-C , 88-H ) :   0.9748
B( 49-C , 51-C ) :   1.2454 B( 50-C , 89-H ) :   0.9708 B( 60-H , 64-H ) :   0.1106

MP2 TOTAL ENERGY:    -2130.770739088 Eh
FINAL SINGLE POINT ENERGY     -2130.770739088378

DIPOLE MOMENT
-------------
                                X             Y             Z
Electronic contribution:      2.77577      -4.34128      -0.19062
Nuclear contribution   :      0.07080       0.23263       0.18909
                        -----------------------------------------
Total Dipole Moment    :      2.84658      -4.10865      -0.00153
                        -----------------------------------------
Magnitude (a.u.)       :      4.99840
Magnitude (Debye)      :     12.70493

Rotational constants in cm-1:     0.001501     0.001479     0.000760
Rotational constants in MHz :    45.010068    44.354048    22.782863

                             ****ORCA TERMINATED NORMALLY****
TOTAL RUN TIME: 0 days 1 hours 14 minutes 52 seconds 604 msec
