                         Program Version 5.0.4 -  RELEASE  -
|  1> ! PAL2
|  2> ! mp2 cc-pvdz TightSCF  NoKeepInts
|  3>
|  4> %scf
|  5>   MaxCore 2000
|  6> end
|  7> %mp2
|  8>   MaxCore 2000
|  9> end
| 10> * xyz 0 1
| 11>    C       -4.91000         5.22000        -0.28500
| 12>    C        1.47400         4.04100         0.05700
| 13>    C       -2.80200         4.09300         0.04900
| 14>    C       -2.25800         5.33000         0.42700
| 15>    C       -3.05000         6.46100         0.44000
| 16>    C       -5.18600         7.62000         0.14500
| 17>    C        0.13200         4.30700         0.06100
| 18>    C       -0.56900         3.05600         0.04700
| 19>    C        1.64900         2.61800         0.02300
| 20>    C       -4.15900         4.06100        -0.30800
| 21>    N       -4.35500         6.39700         0.08400
| 22>    N        0.38800         2.06700         0.02500
| 23>    N       -2.01000         0.39500        -0.07500
| 24>    N       -0.38800        -2.07400        -0.02700
| 25>    N        2.01000        -0.40100         0.06500
| 26>    C       -1.96000         2.86100         0.02400
| 27>    C       -2.62300         1.61500        -0.01800
| 28>    C       -5.57300        -4.32900         1.06600
| 29>    C       -4.07300         1.47100         0.05600
| 30>    C       -4.10600        -2.75600        -0.02600
| 31>    C       -4.99500        -2.75700        -1.11100
| 32>    C       -6.13200        -3.54200        -1.07600
| 33>    C       -7.65100        -5.11300         0.04000
| 34>    C       -4.32400         0.14100         0.03700
| 35>    C       -3.02500        -0.52000        -0.04800
| 36>    C       -4.42200        -3.56600         1.07500
| 37>    N       -6.40700        -4.31300         0.00100
| 38>    C       -2.86700        -1.92200        -0.04000
| 39>    C       -1.65000        -2.62400        -0.02700
| 40>    C        3.56800        -6.14200        -1.04000
| 41>    C       -1.47600        -4.04900        -0.03400
| 42>    C        2.80300        -4.09900        -0.00800
| 43>    C        3.65700        -4.38400         1.06900
| 44>    C        4.42700        -5.53000         1.05900
| 45>    C        5.24500        -7.58800         0.01400
| 46>    C       -0.13400        -4.31500        -0.02200
| 47>    C        0.56800        -3.06400        -0.02700
| 48>    C        2.77500        -5.01200        -1.07400
| 49>    N        4.37600        -6.39100         0.01700
| 50>    C        1.95900        -2.86900        -0.00900
| 51>    C        2.62100        -1.62200         0.00900
| 52>    C        5.54300         4.33900        -1.13000
| 53>    C        4.07000        -1.47900        -0.09400
| 54>    C        4.10400         2.75100        -0.02100
| 55>    C        5.02700         2.72900         1.03600
| 56>    C        6.16600         3.50900         0.97800
| 57>    C        7.61900         5.15300        -0.11500
| 58>    C        4.32100        -0.14800        -0.09200
| 59>    C        3.02500         0.51400         0.01500
| 60>    C        4.38700         3.58200        -1.11500
| 61>    C        2.86600         1.91600         0.01300
| 62>    N        6.41300         4.29600        -0.09500
| 63>    H       -5.95600         5.24500        -0.56400
| 64>    H        2.27400         4.76600         0.08100
| 65>    H       -1.22000         5.41800         0.72300
| 66>    H       -2.67900         7.43400         0.73200
| 67>    H       -5.57600         7.73500         1.15800
| 68>    H       -4.56800         8.47800        -0.11900
| 69>    H       -6.00800         7.52000        -0.56400
| 70>    H       -0.33200         5.28200         0.06900
| 71>    H       -4.63300         3.13900        -0.62300
| 72>    H        0.18200         1.07200         0.00500
| 73>    H       -0.18300        -1.08000        -0.02100
| 74>    H       -5.86400        -4.96200         1.89500
| 75>    H       -4.79400         2.27200         0.13900
| 76>    H       -4.80000        -2.16000        -1.99400
| 77>    H       -6.84100        -3.58200        -1.89300
| 78>    H       -8.42800        -4.53600         0.54600
| 79>    H       -7.95600        -5.33700        -0.98100
| 80>    H       -7.45600        -6.03700         0.58400
| 81>    H       -5.28700        -0.34400         0.10000
| 82>    H       -3.78000        -3.60100         1.94700
| 83>    H        3.58700        -6.86800        -1.84300
| 84>    H       -2.27600        -4.77400        -0.05000
| 85>    H        3.71400        -3.72400         1.92600
| 86>    H        5.09200        -5.79500         1.87100
| 87>    H        6.20500        -7.32900        -0.43900
| 88>    H        5.39300        -7.91700         1.04200
| 89>    H        4.75900        -8.37300        -0.56400
| 90>    H        0.32900        -5.29000        -0.00800
| 91>    H        2.14600        -4.84200        -1.94000
| 92>    H        5.80800         4.98600        -1.95600
| 93>    H        4.78800        -2.28100        -0.18500
| 94>    H        4.86000         2.11400         1.91200
| 95>    H        6.90100         3.53100         1.77200
| 96>    H        7.38300         6.10900         0.35600
| 97>    H        8.41400         4.65200         0.43500
| 98>    H        7.92100         5.31000        -1.15000
| 99>    H        5.28300         0.33600        -0.17900
|100>    H        3.72000         3.63200        -1.96700
|101> *
|102>
|103>                          ****END OF INPUT****

CARTESIAN COORDINATES (ANGSTROEM)
---------------------------------
  C     -4.910000    5.220000   -0.285000
  C      1.474000    4.041000    0.057000
  C     -2.802000    4.093000    0.049000
  C     -2.258000    5.330000    0.427000
  C     -3.050000    6.461000    0.440000
  C     -5.186000    7.620000    0.145000
  C      0.132000    4.307000    0.061000
  C     -0.569000    3.056000    0.047000
  C      1.649000    2.618000    0.023000
  C     -4.159000    4.061000   -0.308000
  N     -4.355000    6.397000    0.084000
  N      0.388000    2.067000    0.025000
  N     -2.010000    0.395000   -0.075000
  N     -0.388000   -2.074000   -0.027000
  N      2.010000   -0.401000    0.065000
  C     -1.960000    2.861000    0.024000
  C     -2.623000    1.615000   -0.018000
  C     -5.573000   -4.329000    1.066000
  C     -4.073000    1.471000    0.056000
  C     -4.106000   -2.756000   -0.026000
  C     -4.995000   -2.757000   -1.111000
  C     -6.132000   -3.542000   -1.076000
  C     -7.651000   -5.113000    0.040000
  C     -4.324000    0.141000    0.037000
  C     -3.025000   -0.520000   -0.048000
  C     -4.422000   -3.566000    1.075000
  N     -6.407000   -4.313000    0.001000
  C     -2.867000   -1.922000   -0.040000
  C     -1.650000   -2.624000   -0.027000
  C      3.568000   -6.142000   -1.040000
  C     -1.476000   -4.049000   -0.034000
  C      2.803000   -4.099000   -0.008000
  C      3.657000   -4.384000    1.069000
  C      4.427000   -5.530000    1.059000
  C      5.245000   -7.588000    0.014000
  C     -0.134000   -4.315000   -0.022000
  C      0.568000   -3.064000   -0.027000
  C      2.775000   -5.012000   -1.074000
  N      4.376000   -6.391000    0.017000
  C      1.959000   -2.869000   -0.009000
  C      2.621000   -1.622000    0.009000
  C      5.543000    4.339000   -1.130000
  C      4.070000   -1.479000   -0.094000
  C      4.104000    2.751000   -0.021000
  C      5.027000    2.729000    1.036000
  C      6.166000    3.509000    0.978000
  C      7.619000    5.153000   -0.115000
  C      4.321000   -0.148000   -0.092000
  C      3.025000    0.514000    0.015000
  C      4.387000    3.582000   -1.115000
  C      2.866000    1.916000    0.013000
  N      6.413000    4.296000   -0.095000
  H     -5.956000    5.245000   -0.564000
  H      2.274000    4.766000    0.081000
  H     -1.220000    5.418000    0.723000
  H     -2.679000    7.434000    0.732000
  H     -5.576000    7.735000    1.158000
  H     -4.568000    8.478000   -0.119000
  H     -6.008000    7.520000   -0.564000
  H     -0.332000    5.282000    0.069000
  H     -4.633000    3.139000   -0.623000
  H      0.182000    1.072000    0.005000
  H     -0.183000   -1.080000   -0.021000
  H     -5.864000   -4.962000    1.895000
  H     -4.794000    2.272000    0.139000
  H     -4.800000   -2.160000   -1.994000
  H     -6.841000   -3.582000   -1.893000
  H     -8.428000   -4.536000    0.546000
  H     -7.956000   -5.337000   -0.981000
  H     -7.456000   -6.037000    0.584000
  H     -5.287000   -0.344000    0.100000
  H     -3.780000   -3.601000    1.947000
  H      3.587000   -6.868000   -1.843000
  H     -2.276000   -4.774000   -0.050000
  H      3.714000   -3.724000    1.926000
  H      5.092000   -5.795000    1.871000
  H      6.205000   -7.329000   -0.439000
  H      5.393000   -7.917000    1.042000
  H      4.759000   -8.373000   -0.564000
  H      0.329000   -5.290000   -0.008000
  H      2.146000   -4.842000   -1.940000
  H      5.808000    4.986000   -1.956000
  H      4.788000   -2.281000   -0.185000
  H      4.860000    2.114000    1.912000
  H      6.901000    3.531000    1.772000
  H      7.383000    6.109000    0.356000
  H      8.414000    4.652000    0.435000
  H      7.921000    5.310000   -1.150000
  H      5.283000    0.336000   -0.179000
  H      3.720000    3.632000   -1.967000

 Total Charge           Charge          ....    0
 Multiplicity           Mult            ....    1
 Number of Electrons    NEL             ....  358
 Basis Dimension        Dim             ....  918

ORBITAL ENERGIES
----------------

  NO   OCC          E(Eh)            E(eV)
   0   2.0000     -15.679229      -426.6535
   1   2.0000     -15.635952      -425.4759
   2   2.0000     -15.630016      -425.3144
   3   2.0000     -15.587239      -424.1503
   4   2.0000     -15.525676      -422.4751
   5   2.0000     -15.515489      -422.1979
   6   2.0000     -15.453279      -420.5051
   7   2.0000     -15.440891      -420.1680
   8   2.0000     -11.329209      -308.2834
   9   2.0000     -11.327609      -308.2399
  10   2.0000     -11.327575      -308.2390
  11   2.0000     -11.300550      -307.5036
  12   2.0000     -11.297229      -307.4132
  13   2.0000     -11.294614      -307.3421
  14   2.0000     -11.289628      -307.2064
  15   2.0000     -11.288375      -307.1723
  16   2.0000     -11.285039      -307.0815
  17   2.0000     -11.281539      -306.9863
  18   2.0000     -11.269880      -306.6690
  19   2.0000     -11.262998      -306.4818
  20   2.0000     -11.262023      -306.4552
  21   2.0000     -11.251491      -306.1686
  22   2.0000     -11.249851      -306.1240
  23   2.0000     -11.239665      -305.8468
  24   2.0000     -11.234869      -305.7163
  25   2.0000     -11.232653      -305.6560
  26   2.0000     -11.232017      -305.6387
  27   2.0000     -11.228401      -305.5403
  28   2.0000     -11.228083      -305.5317
  29   2.0000     -11.211846      -305.0898
  30   2.0000     -11.210347      -305.0490
  31   2.0000     -11.194352      -304.6138
  32   2.0000     -11.191377      -304.5329
  33   2.0000     -11.190250      -304.5022
  34   2.0000     -11.188040      -304.4421
  35   2.0000     -11.187383      -304.4242
  36   2.0000     -11.186076      -304.3886
  37   2.0000     -11.179557      -304.2112
  38   2.0000     -11.178797      -304.1905
  39   2.0000     -11.175231      -304.0935
  40   2.0000     -11.173707      -304.0520
  41   2.0000     -11.169450      -303.9362
  42   2.0000     -11.169381      -303.9343
  43   2.0000     -11.160992      -303.7060
  44   2.0000     -11.160379      -303.6894
  45   2.0000     -11.157702      -303.6165
  46   2.0000     -11.155471      -303.5558
  47   2.0000     -11.154212      -303.5215
  48   2.0000     -11.145937      -303.2964
  49   2.0000     -11.135130      -303.0023
  50   2.0000     -11.130703      -302.8818
  51   2.0000     -11.118729      -302.5560
  52   2.0000      -1.359898       -37.0047
  53   2.0000      -1.322929       -35.9987
  54   2.0000      -1.318059       -35.8662
  55   2.0000      -1.280305       -34.8389
  56   2.0000      -1.226819       -33.3834
  57   2.0000      -1.209922       -32.9236
  58   2.0000      -1.172740       -31.9119
  59   2.0000      -1.151395       -31.3311
  60   2.0000      -1.143236       -31.1090
  61   2.0000      -1.111582       -30.2477
  62   2.0000      -1.107754       -30.1435
  63   2.0000      -1.081632       -29.4327
  64   2.0000      -1.077266       -29.3139
  65   2.0000      -1.047046       -28.4916
  66   2.0000      -1.042788       -28.3757
  67   2.0000      -1.040945       -28.3256
  68   2.0000      -1.015317       -27.6282
  69   2.0000      -1.012142       -27.5418
  70   2.0000      -1.008643       -27.4466
  71   2.0000      -0.994185       -27.0531
  72   2.0000      -0.985529       -26.8176
  73   2.0000      -0.981788       -26.7158
  74   2.0000      -0.972342       -26.4588
  75   2.0000      -0.961359       -26.1599
  76   2.0000      -0.954054       -25.9611
  77   2.0000      -0.945589       -25.7308
  78   2.0000      -0.935611       -25.4593
  79   2.0000      -0.917343       -24.9622
  80   2.0000      -0.910112       -24.7654
  81   2.0000      -0.896084       -24.3837
  82   2.0000      -0.876333       -23.8462
  83   2.0000      -0.873601       -23.7719
  84   2.0000      -0.869189       -23.6518
  85   2.0000      -0.858377       -23.3576
  86   2.0000      -0.839771       -22.8513
  87   2.0000      -0.836706       -22.7679
  88   2.0000      -0.826018       -22.4771
  89   2.0000      -0.796878       -21.6842
  90   2.0000      -0.789345       -21.4792
  91   2.0000      -0.755681       -20.5631
  92   2.0000      -0.751461       -20.4483
  93   2.0000      -0.734012       -19.9735
  94   2.0000      -0.726135       -19.7592
  95   2.0000      -0.723493       -19.6873
  96   2.0000      -0.717794       -19.5322
  97   2.0000      -0.715500       -19.4697
  98   2.0000      -0.709862       -19.3163
  99   2.0000      -0.698364       -19.0035
 100   2.0000      -0.696511       -18.9530
 101   2.0000      -0.686604       -18.6834
 102   2.0000      -0.684053       -18.6140
 103   2.0000      -0.683763       -18.6061
 104   2.0000      -0.679434       -18.4883
 105   2.0000      -0.673607       -18.3298
 106   2.0000      -0.671624       -18.2758
 107   2.0000      -0.660516       -17.9736
 108   2.0000      -0.656609       -17.8673
 109   2.0000      -0.654148       -17.8003
 110   2.0000      -0.650524       -17.7017
 111   2.0000      -0.645737       -17.5714
 112   2.0000      -0.644818       -17.5464
 113   2.0000      -0.637938       -17.3592
 114   2.0000      -0.636522       -17.3206
 115   2.0000      -0.627193       -17.0668
 116   2.0000      -0.621622       -16.9152
 117   2.0000      -0.620423       -16.8826
 118   2.0000      -0.614027       -16.7085
 119   2.0000      -0.613251       -16.6874
 120   2.0000      -0.611102       -16.6289
 121   2.0000      -0.610052       -16.6004
 122   2.0000      -0.599903       -16.3242
 123   2.0000      -0.587393       -15.9838
 124   2.0000      -0.582793       -15.8586
 125   2.0000      -0.580617       -15.7994
 126   2.0000      -0.579280       -15.7630
 127   2.0000      -0.571939       -15.5633
 128   2.0000      -0.569208       -15.4889
 129   2.0000      -0.559442       -15.2232
 130   2.0000      -0.552689       -15.0394
 131   2.0000      -0.547952       -14.9105
 132   2.0000      -0.543020       -14.7763
 133   2.0000      -0.542250       -14.7554
 134   2.0000      -0.539515       -14.6809
 135   2.0000      -0.534963       -14.5571
 136   2.0000      -0.530042       -14.4232
 137   2.0000      -0.518956       -14.1215
 138   2.0000      -0.518395       -14.1063
 139   2.0000      -0.514290       -13.9945
 140   2.0000      -0.511770       -13.9260
 141   2.0000      -0.510753       -13.8983
 142   2.0000      -0.509783       -13.8719
 143   2.0000      -0.504454       -13.7269
 144   2.0000      -0.500858       -13.6290
 145   2.0000      -0.495586       -13.4856
 146   2.0000      -0.491166       -13.3653
 147   2.0000      -0.481802       -13.1105
 148   2.0000      -0.477315       -12.9884
 149   2.0000      -0.467525       -12.7220
 150   2.0000      -0.466076       -12.6826
 151   2.0000      -0.456763       -12.4291
 152   2.0000      -0.450908       -12.2698
 153   2.0000      -0.445506       -12.1228
 154   2.0000      -0.439643       -11.9633
 155   2.0000      -0.427587       -11.6352
 156   2.0000      -0.409671       -11.1477
 157   2.0000      -0.407696       -11.0940
 158   2.0000      -0.400991       -10.9115
 159   2.0000      -0.387285       -10.5386
 160   2.0000      -0.386609       -10.5202
 161   2.0000      -0.377820       -10.2810
 162   2.0000      -0.371305       -10.1037
 163   2.0000      -0.358017        -9.7421
 164   2.0000      -0.354627        -9.6499
 165   2.0000      -0.341268        -9.2864
 166   2.0000      -0.337896        -9.1946
 167   2.0000      -0.325713        -8.8631
 168   2.0000      -0.320680        -8.7261
 169   2.0000      -0.306049        -8.3280
 170   2.0000      -0.299254        -8.1431
 171   2.0000      -0.285004        -7.7553
 172   2.0000      -0.279226        -7.5981
 173   2.0000      -0.263030        -7.1574
 174   2.0000      -0.241824        -6.5804
 175   2.0000      -0.190122        -5.1735
 176   2.0000      -0.180900        -4.9225
 177   2.0000      -0.079213        -2.1555
 178   2.0000      -0.059425        -1.6170
 179   0.0000       0.028170         0.7665
 180   0.0000       0.065220         1.7747
 181   0.0000       0.090494         2.4625
 182   0.0000       0.106573         2.9000
 183   0.0000       0.114111         3.1051

MULLIKEN ATOMIC CHARGES
-----------------------
   0 C :    0.213587
   1 N :   -0.457604
   2 C :   -0.076123
   3 N :   -0.340200
   4 C :   -0.061171
   5 N :   -0.565960
   6 C :   -0.122925
   7 N :   -0.340866
   8 C :    0.215974
   9 N :   -0.562557
  10 C :    0.119424
  11 N :   -0.438049
  12 C :   -0.062655
  13 N :   -0.429458
  14 C :    0.212388
  15 N :   -0.441339
  16 C :    0.232657
  17 C :   -0.119948
  18 C :   -0.155160
  19 C :    0.202572
  20 C :    0.214558
  21 C :   -0.078165
  22 C :   -0.089166
  23 C :   -0.039778
  24 C :    0.194551
  25 C :    0.114340
  26 C :   -0.088060
  27 C :    0.213651
  28 C :   -0.061437
  29 C :   -0.182509
  30 C :    0.245990
  31 C :    0.230839
  32 C :   -0.061291
  33 C :   -0.060544
  34 C :   -0.050326
  35 C :    0.227401
  36 C :    0.108294
  37 C :   -0.064260
  38 C :    0.231876
  39 C :   -0.058416
  40 C :   -0.180880
  41 C :    0.224922
  42 C :    0.196954
  43 C :   -0.072645
  44 C :   -0.090577
  45 C :   -0.061560
  46 C :    0.210657
  47 C :    0.115568
  48 C :   -0.067149
  49 C :    0.238294
  50 C :   -0.046299
  51 C :   -0.195243
  52 H :    0.036604
  53 H :   -0.017833
  54 H :    0.047430
  55 H :    0.034819
  56 H :    0.049045
  57 H :    0.047415
  58 H :    0.046397
  59 H :   -0.004818
  60 H :    0.050953
  61 H :    0.170973
  62 H :    0.175729
  63 H :    0.056018
  64 H :   -0.009466
  65 H :    0.047156
  66 H :    0.056159
  67 H :    0.063099
  68 H :    0.057548
  69 H :    0.056804
  70 H :   -0.029733
  71 H :    0.045547
  72 H :    0.071312
  73 H :   -0.007910
  74 H :    0.060435
  75 H :    0.070664
  76 H :    0.074964
  77 H :    0.067981
  78 H :    0.067192
  79 H :   -0.016252
  80 H :    0.061184
  81 H :    0.053998
  82 H :   -0.025262
  83 H :    0.041231
  84 H :    0.053558
  85 H :    0.060385
  86 H :    0.055163
  87 H :    0.056943
  88 H :   -0.014482
  89 H :    0.046874
Sum of atomic charges:   -0.0000000

LOEWDIN ATOMIC CHARGES
----------------------
   0 C :   -0.023575
   1 N :    0.117870
   2 C :   -0.102533
   3 N :    0.183085
   4 C :   -0.013847
   5 N :   -0.132338
   6 C :   -0.040240
   7 N :    0.175164
   8 C :   -0.019013
   9 N :   -0.140690
  10 C :    0.023185
  11 N :    0.142928
  12 C :   -0.112834
  13 N :    0.166153
  14 C :   -0.021949
  15 N :    0.137928
  16 C :   -0.059130
  17 C :   -0.040374
  18 C :   -0.106598
  19 C :   -0.078006
  20 C :    0.005800
  21 C :   -0.121487
  22 C :    0.038689
  23 C :   -0.014470
  24 C :   -0.011573
  25 C :    0.030051
  26 C :   -0.109233
  27 C :   -0.117179
  28 C :   -0.027084
  29 C :   -0.098700
  30 C :   -0.030509
  31 C :    0.024872
  32 C :   -0.093564
  33 C :    0.081735
  34 C :   -0.014632
  35 C :    0.022163
  36 C :    0.035214
  37 C :   -0.094012
  38 C :   -0.050862
  39 C :   -0.018064
  40 C :   -0.108284
  41 C :   -0.092846
  42 C :   -0.010960
  43 C :   -0.099535
  44 C :    0.032217
  45 C :   -0.028569
  46 C :    0.000897
  47 C :    0.029308
  48 C :   -0.095510
  49 C :   -0.069083
  50 C :   -0.018878
  51 C :   -0.110016
  52 H :    0.022493
  53 H :    0.002488
  54 H :    0.023716
  55 H :    0.022325
  56 H :    0.021519
  57 H :    0.026184
  58 H :    0.026730
  59 H :    0.010050
  60 H :    0.029762
  61 H :    0.060061
  62 H :    0.061977
  63 H :    0.031078
  64 H :    0.008010
  65 H :    0.045922
  66 H :    0.029489
  67 H :    0.028554
  68 H :    0.031773
  69 H :    0.030506
  70 H :   -0.004688
  71 H :    0.043806
  72 H :    0.037740
  73 H :    0.007173
  74 H :    0.050743
  75 H :    0.037315
  76 H :    0.034817
  77 H :    0.036178
  78 H :    0.035827
  79 H :    0.003123
  80 H :    0.050656
  81 H :    0.028911
  82 H :   -0.002931
  83 H :    0.042206
  84 H :    0.029588
  85 H :    0.027140
  86 H :    0.030000
  87 H :    0.031280
  88 H :    0.002392
  89 H :    0.045002

  Mayer bond orders larger than 0.100000
B(  0-C ,  1-N ) :   1.0894 B(  0-C , 17-C ) :   1.7180 B(  0-C , 52-H ) :   0.9637
B(  1-N ,  8-C ) :   1.0935 B(  1-N , 10-C ) :   0.9782 B(  2-C , 12-C ) :   1.4910
B(  2-C , 16-C ) :   1.3691 B(  2-C , 53-H ) :   0.9741 B(  3-N , 14-C ) :   1.2202
B(  3-N , 16-C ) :   1.1852 B(  3-N , 61-H ) :   0.8991 B(  4-C ,  6-C ) :   1.2133
B(  4-C , 17-C ) :   1.2136 B(  4-C , 18-C ) :   1.4665 B(  5-N , 19-C ) :   1.4565
B(  5-N , 27-C ) :   1.3737 B(  6-C ,  8-C ) :   1.7157 B(  6-C , 54-H ) :   0.9196
B(  7-N , 30-C ) :   1.1945 B(  7-N , 38-C ) :   1.1905 B(  7-N , 62-H ) :   0.8966
B(  8-C , 55-H ) :   0.9646 B(  9-N , 41-C ) :   1.3923 B(  9-N , 49-C ) :   1.4276
B( 10-C , 56-H ) :   0.9774 B( 10-C , 57-H ) :   0.9832 B( 10-C , 58-H ) :   0.9834
B( 11-N , 20-C ) :   1.1325 B( 11-N , 24-C ) :   1.1085 B( 11-N , 25-C ) :   0.9594
B( 12-C , 14-C ) :   1.3591 B( 12-C , 59-H ) :   0.9529 B( 13-N , 31-C ) :   1.1622
B( 13-N , 35-C ) :   1.1589 B( 13-N , 36-C ) :   0.9415 B( 14-C , 18-C ) :   1.1184
B( 15-N , 42-C ) :   1.1067 B( 15-N , 46-C ) :   1.1230 B( 15-N , 47-C ) :   0.9619
B( 16-C , 51-C ) :   1.1671 B( 17-C , 60-H ) :   0.9234 B( 18-C , 19-C ) :   1.1190
B( 19-C , 21-C ) :   1.2505 B( 20-C , 28-C ) :   1.6269 B( 20-C , 63-H ) :   0.9702
B( 21-C , 26-C ) :   1.5930 B( 21-C , 64-H ) :   0.9550 B( 22-C , 23-C ) :   1.2910
B( 22-C , 28-C ) :   1.2655 B( 22-C , 29-C ) :   1.2227 B( 23-C , 24-C ) :   1.6183
B( 23-C , 65-H ) :   0.9703 B( 24-C , 66-H ) :   0.9695 B( 25-C , 67-H ) :   0.9760
B( 25-C , 68-H ) :   0.9828 B( 25-C , 69-H ) :   0.9823 B( 26-C , 27-C ) :   1.2524
B( 26-C , 70-H ) :   0.9682 B( 27-C , 29-C ) :   1.2082 B( 28-C , 71-H ) :   0.9719
B( 29-C , 30-C ) :   1.2475 B( 30-C , 32-C ) :   1.2777 B( 31-C , 39-C ) :   1.5882
B( 31-C , 72-H ) :   0.9681 B( 32-C , 37-C ) :   1.5815 B( 32-C , 73-H ) :   0.9785
B( 33-C , 34-C ) :   1.3079 B( 33-C , 39-C ) :   1.3031 B( 33-C , 40-C ) :   1.1754
B( 34-C , 35-C ) :   1.5852 B( 34-C , 74-H ) :   0.9696 B( 35-C , 75-H ) :   0.9681
B( 36-C , 76-H ) :   0.9767 B( 36-C , 77-H ) :   0.9815 B( 36-C , 78-H ) :   0.9823
B( 37-C , 38-C ) :   1.2831 B( 37-C , 79-H ) :   0.9765 B( 38-C , 40-C ) :   1.2352
B( 39-C , 80-H ) :   0.9705 B( 40-C , 41-C ) :   1.2503 B( 41-C , 43-C ) :   1.1860
B( 42-C , 50-C ) :   1.6350 B( 42-C , 81-H ) :   0.9697 B( 43-C , 48-C ) :   1.6664
B( 43-C , 82-H ) :   0.9721 B( 44-C , 45-C ) :   1.2622 B( 44-C , 50-C ) :   1.2706
B( 44-C , 51-C ) :   1.2645 B( 45-C , 46-C ) :   1.6362 B( 45-C , 83-H ) :   0.9719
B( 46-C , 84-H ) :   0.9701 B( 47-C , 85-H ) :   0.9762 B( 47-C , 86-H ) :   0.9829
B( 47-C , 87-H ) :   0.9825 B( 48-C , 49-C ) :   1.1896 B( 48-C , 88-H ) :   0.9749
B( 49-C , 51-C ) :   1.2422 B( 50-C , 89-H ) :   0.9708

MP2 TOTAL ENERGY:    -2130.837607420 Eh
FINAL SINGLE POINT ENERGY     -2130.837607420322

DIPOLE MOMENT
-------------
                                X             Y             Z
Electronic contribution:      2.58290      -4.44205      -0.21793
Nuclear contribution   :      0.04973       0.22022       0.21497
                        -----------------------------------------
Total Dipole Moment    :      2.63263      -4.22183      -0.00295
                        -----------------------------------------
Magnitude (a.u.)       :      4.97540
Magnitude (Debye)      :     12.64646

Rotational constants in cm-1:     0.001501     0.001479     0.000760
Rotational constants in MHz :    44.999272    44.343396    22.788645

                             ****ORCA TERMINATED NORMALLY****
TOTAL RUN TIME: 0 days 1 hours 27 minutes 27 seconds 541 msec
