                         Program Version 5.0.4 -  RELEASE  -
|  1> ! PAL2
|  2> ! mp2 cc-pvdz TightSCF  NoKeepInts
|  3>
|  4> %scf
|  5>   MaxCore 2000
|  6> end
|  7> %mp2
|  8>   MaxCore 2000
|  9> end
| 10> * xyz 0 1
| 11>    C       -4.63700         5.38200         0.94200
| 12>    C        1.47400         4.04100         0.05700
| 13>    C       -2.80200         4.09300         0.04900
| 14>    C       -2.55500         5.15300        -0.83700
| 15>    C       -3.34700         6.28400        -0.80300
| 16>    C       -5.17900         7.62500         0.11000
| 17>    C        0.13200         4.30700         0.06100
| 18>    C       -0.56900         3.05600         0.04700
| 19>    C        1.64900         2.61800         0.02300
| 20>    C       -3.86900         4.23400         0.95000
| 21>    N       -4.37200         6.38500         0.07400
| 22>    N        0.38800         2.06700         0.02500
| 23>    N       -2.01000         0.39500        -0.07500
| 24>    N       -0.38800        -2.07400        -0.02700
| 25>    N        2.01000        -0.40100         0.06500
| 26>    C       -1.96000         2.86100         0.02400
| 27>    C       -2.62300         1.61500        -0.01800
| 28>    C       -5.57300        -4.32900         1.06600
| 29>    C       -4.07300         1.47100         0.05600
| 30>    C       -4.10600        -2.75600        -0.02600
| 31>    C       -4.99500        -2.75700        -1.11100
| 32>    C       -6.13200        -3.54200        -1.07600
| 33>    C       -7.65100        -5.11300         0.04000
| 34>    C       -4.32400         0.14100         0.03700
| 35>    C       -3.02500        -0.52000        -0.04800
| 36>    C       -4.42200        -3.56600         1.07500
| 37>    N       -6.40700        -4.31300         0.00100
| 38>    C       -2.86700        -1.92200        -0.04000
| 39>    C       -1.65000        -2.62400        -0.02700
| 40>    C        3.56800        -6.14200        -1.04000
| 41>    C       -1.47600        -4.04900        -0.03400
| 42>    C        2.80300        -4.09900        -0.00800
| 43>    C        3.65700        -4.38400         1.06900
| 44>    C        4.42700        -5.53000         1.05900
| 45>    C        5.24500        -7.58800         0.01400
| 46>    C       -0.13400        -4.31500        -0.02200
| 47>    C        0.56800        -3.06400        -0.02700
| 48>    C        2.77500        -5.01200        -1.07400
| 49>    N        4.37600        -6.39100         0.01700
| 50>    C        1.95900        -2.86900        -0.00900
| 51>    C        2.62100        -1.62200         0.00900
| 52>    C        5.54300         4.33900        -1.13000
| 53>    C        4.07000        -1.47900        -0.09400
| 54>    C        4.10400         2.75100        -0.02100
| 55>    C        5.02700         2.72900         1.03600
| 56>    C        6.16600         3.50900         0.97800
| 57>    C        7.61900         5.15300        -0.11500
| 58>    C        4.32100        -0.14800        -0.09200
| 59>    C        3.02500         0.51400         0.01500
| 60>    C        4.38700         3.58200        -1.11500
| 61>    C        2.86600         1.91600         0.01300
| 62>    N        6.41300         4.29600        -0.09500
| 63>    H       -5.47600         5.52800         1.61000
| 64>    H        2.27400         4.76600         0.08100
| 65>    H       -1.74000         5.10800        -1.54900
| 66>    H       -3.19000         7.13000        -1.46000
| 67>    H       -4.68700         8.35100         0.76200
| 68>    H       -5.25700         8.02300        -0.90100
| 69>    H       -6.17000         7.38800         0.49600
| 70>    H       -0.33200         5.28200         0.06900
| 71>    H       -4.11900         3.44400         1.64900
| 72>    H        0.18200         1.07200         0.00500
| 73>    H       -0.18300        -1.08000        -0.02100
| 74>    H       -5.86400        -4.96200         1.89500
| 75>    H       -4.79400         2.27200         0.13900
| 76>    H       -4.80000        -2.16000        -1.99400
| 77>    H       -6.84100        -3.58200        -1.89300
| 78>    H       -8.42800        -4.53600         0.54600
| 79>    H       -7.95600        -5.33700        -0.98100
| 80>    H       -7.45600        -6.03700         0.58400
| 81>    H       -5.28700        -0.34400         0.10000
| 82>    H       -3.78000        -3.60100         1.94700
| 83>    H        3.58700        -6.86800        -1.84300
| 84>    H       -2.27600        -4.77400        -0.05000
| 85>    H        3.71400        -3.72400         1.92600
| 86>    H        5.09200        -5.79500         1.87100
| 87>    H        6.20500        -7.32900        -0.43900
| 88>    H        5.39300        -7.91700         1.04200
| 89>    H        4.75900        -8.37300        -0.56400
| 90>    H        0.32900        -5.29000        -0.00800
| 91>    H        2.14600        -4.84200        -1.94000
| 92>    H        5.80800         4.98600        -1.95600
| 93>    H        4.78800        -2.28100        -0.18500
| 94>    H        4.86000         2.11400         1.91200
| 95>    H        6.90100         3.53100         1.77200
| 96>    H        7.38300         6.10900         0.35600
| 97>    H        8.41400         4.65200         0.43500
| 98>    H        7.92100         5.31000        -1.15000
| 99>    H        5.28300         0.33600        -0.17900
|100>    H        3.72000         3.63200        -1.96700
|101> *
|102>
|103>                          ****END OF INPUT****

CARTESIAN COORDINATES (ANGSTROEM)
---------------------------------
  C     -4.637000    5.382000    0.942000
  C      1.474000    4.041000    0.057000
  C     -2.802000    4.093000    0.049000
  C     -2.555000    5.153000   -0.837000
  C     -3.347000    6.284000   -0.803000
  C     -5.179000    7.625000    0.110000
  C      0.132000    4.307000    0.061000
  C     -0.569000    3.056000    0.047000
  C      1.649000    2.618000    0.023000
  C     -3.869000    4.234000    0.950000
  N     -4.372000    6.385000    0.074000
  N      0.388000    2.067000    0.025000
  N     -2.010000    0.395000   -0.075000
  N     -0.388000   -2.074000   -0.027000
  N      2.010000   -0.401000    0.065000
  C     -1.960000    2.861000    0.024000
  C     -2.623000    1.615000   -0.018000
  C     -5.573000   -4.329000    1.066000
  C     -4.073000    1.471000    0.056000
  C     -4.106000   -2.756000   -0.026000
  C     -4.995000   -2.757000   -1.111000
  C     -6.132000   -3.542000   -1.076000
  C     -7.651000   -5.113000    0.040000
  C     -4.324000    0.141000    0.037000
  C     -3.025000   -0.520000   -0.048000
  C     -4.422000   -3.566000    1.075000
  N     -6.407000   -4.313000    0.001000
  C     -2.867000   -1.922000   -0.040000
  C     -1.650000   -2.624000   -0.027000
  C      3.568000   -6.142000   -1.040000
  C     -1.476000   -4.049000   -0.034000
  C      2.803000   -4.099000   -0.008000
  C      3.657000   -4.384000    1.069000
  C      4.427000   -5.530000    1.059000
  C      5.245000   -7.588000    0.014000
  C     -0.134000   -4.315000   -0.022000
  C      0.568000   -3.064000   -0.027000
  C      2.775000   -5.012000   -1.074000
  N      4.376000   -6.391000    0.017000
  C      1.959000   -2.869000   -0.009000
  C      2.621000   -1.622000    0.009000
  C      5.543000    4.339000   -1.130000
  C      4.070000   -1.479000   -0.094000
  C      4.104000    2.751000   -0.021000
  C      5.027000    2.729000    1.036000
  C      6.166000    3.509000    0.978000
  C      7.619000    5.153000   -0.115000
  C      4.321000   -0.148000   -0.092000
  C      3.025000    0.514000    0.015000
  C      4.387000    3.582000   -1.115000
  C      2.866000    1.916000    0.013000
  N      6.413000    4.296000   -0.095000
  H     -5.476000    5.528000    1.610000
  H      2.274000    4.766000    0.081000
  H     -1.740000    5.108000   -1.549000
  H     -3.190000    7.130000   -1.460000
  H     -4.687000    8.351000    0.762000
  H     -5.257000    8.023000   -0.901000
  H     -6.170000    7.388000    0.496000
  H     -0.332000    5.282000    0.069000
  H     -4.119000    3.444000    1.649000
  H      0.182000    1.072000    0.005000
  H     -0.183000   -1.080000   -0.021000
  H     -5.864000   -4.962000    1.895000
  H     -4.794000    2.272000    0.139000
  H     -4.800000   -2.160000   -1.994000
  H     -6.841000   -3.582000   -1.893000
  H     -8.428000   -4.536000    0.546000
  H     -7.956000   -5.337000   -0.981000
  H     -7.456000   -6.037000    0.584000
  H     -5.287000   -0.344000    0.100000
  H     -3.780000   -3.601000    1.947000
  H      3.587000   -6.868000   -1.843000
  H     -2.276000   -4.774000   -0.050000
  H      3.714000   -3.724000    1.926000
  H      5.092000   -5.795000    1.871000
  H      6.205000   -7.329000   -0.439000
  H      5.393000   -7.917000    1.042000
  H      4.759000   -8.373000   -0.564000
  H      0.329000   -5.290000   -0.008000
  H      2.146000   -4.842000   -1.940000
  H      5.808000    4.986000   -1.956000
  H      4.788000   -2.281000   -0.185000
  H      4.860000    2.114000    1.912000
  H      6.901000    3.531000    1.772000
  H      7.383000    6.109000    0.356000
  H      8.414000    4.652000    0.435000
  H      7.921000    5.310000   -1.150000
  H      5.283000    0.336000   -0.179000
  H      3.720000    3.632000   -1.967000

 Total Charge           Charge          ....    0
 Multiplicity           Mult            ....    1
 Number of Electrons    NEL             ....  358
 Basis Dimension        Dim             ....  918

ORBITAL ENERGIES
----------------

  NO   OCC          E(Eh)            E(eV)
   0   2.0000     -15.653318      -425.9484
   1   2.0000     -15.637589      -425.5204
   2   2.0000     -15.629605      -425.3032
   3   2.0000     -15.609396      -424.7533
   4   2.0000     -15.521492      -422.3613
   5   2.0000     -15.516340      -422.2211
   6   2.0000     -15.447638      -420.3516
   7   2.0000     -15.443232      -420.2317
   8   2.0000     -11.311530      -307.8024
   9   2.0000     -11.307689      -307.6979
  10   2.0000     -11.305585      -307.6406
  11   2.0000     -11.301522      -307.5301
  12   2.0000     -11.296730      -307.3997
  13   2.0000     -11.294464      -307.3380
  14   2.0000     -11.291189      -307.2489
  15   2.0000     -11.287562      -307.1502
  16   2.0000     -11.285790      -307.1020
  17   2.0000     -11.284805      -307.0752
  18   2.0000     -11.271484      -306.7127
  19   2.0000     -11.270778      -306.6934
  20   2.0000     -11.257067      -306.3204
  21   2.0000     -11.244592      -305.9809
  22   2.0000     -11.243689      -305.9563
  23   2.0000     -11.240965      -305.8822
  24   2.0000     -11.234189      -305.6978
  25   2.0000     -11.233543      -305.6803
  26   2.0000     -11.232764      -305.6590
  27   2.0000     -11.227757      -305.5228
  28   2.0000     -11.227613      -305.5189
  29   2.0000     -11.217799      -305.2518
  30   2.0000     -11.212782      -305.1153
  31   2.0000     -11.211262      -305.0739
  32   2.0000     -11.204239      -304.8829
  33   2.0000     -11.203557      -304.8643
  34   2.0000     -11.192562      -304.5651
  35   2.0000     -11.192015      -304.5502
  36   2.0000     -11.179096      -304.1987
  37   2.0000     -11.177533      -304.1561
  38   2.0000     -11.177127      -304.1451
  39   2.0000     -11.172429      -304.0173
  40   2.0000     -11.168327      -303.9056
  41   2.0000     -11.167063      -303.8712
  42   2.0000     -11.165613      -303.8318
  43   2.0000     -11.164729      -303.8077
  44   2.0000     -11.163451      -303.7729
  45   2.0000     -11.162434      -303.7453
  46   2.0000     -11.151063      -303.4359
  47   2.0000     -11.149972      -303.4062
  48   2.0000     -11.147619      -303.3421
  49   2.0000     -11.147028      -303.3261
  50   2.0000     -11.138995      -303.1075
  51   2.0000     -11.134128      -302.9750
  52   2.0000      -1.337814       -36.4038
  53   2.0000      -1.324279       -36.0355
  54   2.0000      -1.317507       -35.8512
  55   2.0000      -1.301046       -35.4033
  56   2.0000      -1.220805       -33.2198
  57   2.0000      -1.212018       -32.9807
  58   2.0000      -1.165065       -31.7030
  59   2.0000      -1.155979       -31.4558
  60   2.0000      -1.124527       -30.5999
  61   2.0000      -1.112536       -30.2736
  62   2.0000      -1.106851       -30.1189
  63   2.0000      -1.093519       -29.7562
  64   2.0000      -1.061069       -28.8732
  65   2.0000      -1.048214       -28.5234
  66   2.0000      -1.042179       -28.3591
  67   2.0000      -1.029813       -28.0226
  68   2.0000      -1.027603       -27.9625
  69   2.0000      -1.011960       -27.5368
  70   2.0000      -1.009653       -27.4741
  71   2.0000      -0.995100       -27.0780
  72   2.0000      -0.985120       -26.8065
  73   2.0000      -0.974800       -26.5257
  74   2.0000      -0.972466       -26.4621
  75   2.0000      -0.959372       -26.1058
  76   2.0000      -0.951417       -25.8894
  77   2.0000      -0.946749       -25.7624
  78   2.0000      -0.938393       -25.5350
  79   2.0000      -0.922812       -25.1110
  80   2.0000      -0.895787       -24.3756
  81   2.0000      -0.885840       -24.1049
  82   2.0000      -0.875321       -23.8187
  83   2.0000      -0.869668       -23.6649
  84   2.0000      -0.862658       -23.4741
  85   2.0000      -0.856053       -23.2944
  86   2.0000      -0.848660       -23.0932
  87   2.0000      -0.840806       -22.8795
  88   2.0000      -0.822100       -22.3705
  89   2.0000      -0.798738       -21.7348
  90   2.0000      -0.796795       -21.6819
  91   2.0000      -0.741277       -20.1712
  92   2.0000      -0.734276       -19.9807
  93   2.0000      -0.730245       -19.8710
  94   2.0000      -0.721828       -19.6419
  95   2.0000      -0.720434       -19.6040
  96   2.0000      -0.712950       -19.4003
  97   2.0000      -0.707031       -19.2393
  98   2.0000      -0.700498       -19.0615
  99   2.0000      -0.694496       -18.8982
 100   2.0000      -0.689730       -18.7685
 101   2.0000      -0.681333       -18.5400
 102   2.0000      -0.678909       -18.4740
 103   2.0000      -0.674318       -18.3491
 104   2.0000      -0.670543       -18.2464
 105   2.0000      -0.667044       -18.1512
 106   2.0000      -0.664390       -18.0790
 107   2.0000      -0.660432       -17.9713
 108   2.0000      -0.656853       -17.8739
 109   2.0000      -0.656007       -17.8509
 110   2.0000      -0.652131       -17.7454
 111   2.0000      -0.648965       -17.6592
 112   2.0000      -0.645742       -17.5715
 113   2.0000      -0.637701       -17.3527
 114   2.0000      -0.635543       -17.2940
 115   2.0000      -0.626819       -17.0566
 116   2.0000      -0.624280       -16.9875
 117   2.0000      -0.615124       -16.7384
 118   2.0000      -0.613205       -16.6862
 119   2.0000      -0.610176       -16.6037
 120   2.0000      -0.609332       -16.5808
 121   2.0000      -0.603021       -16.4090
 122   2.0000      -0.594782       -16.1849
 123   2.0000      -0.594380       -16.1739
 124   2.0000      -0.590699       -16.0737
 125   2.0000      -0.583837       -15.8870
 126   2.0000      -0.579082       -15.7576
 127   2.0000      -0.574654       -15.6371
 128   2.0000      -0.566525       -15.4159
 129   2.0000      -0.559298       -15.2193
 130   2.0000      -0.553838       -15.0707
 131   2.0000      -0.548533       -14.9263
 132   2.0000      -0.541145       -14.7253
 133   2.0000      -0.536695       -14.6042
 134   2.0000      -0.534604       -14.5473
 135   2.0000      -0.529480       -14.4079
 136   2.0000      -0.526614       -14.3299
 137   2.0000      -0.523136       -14.2352
 138   2.0000      -0.519617       -14.1395
 139   2.0000      -0.516479       -14.0541
 140   2.0000      -0.510614       -13.8945
 141   2.0000      -0.507239       -13.8027
 142   2.0000      -0.506394       -13.7797
 143   2.0000      -0.501260       -13.6400
 144   2.0000      -0.500951       -13.6316
 145   2.0000      -0.498354       -13.5609
 146   2.0000      -0.494696       -13.4614
 147   2.0000      -0.490474       -13.3465
 148   2.0000      -0.489169       -13.3110
 149   2.0000      -0.469531       -12.7766
 150   2.0000      -0.462017       -12.5721
 151   2.0000      -0.453876       -12.3506
 152   2.0000      -0.447947       -12.1893
 153   2.0000      -0.446916       -12.1612
 154   2.0000      -0.446399       -12.1471
 155   2.0000      -0.439879       -11.9697
 156   2.0000      -0.434708       -11.8290
 157   2.0000      -0.429903       -11.6982
 158   2.0000      -0.395455       -10.7609
 159   2.0000      -0.385996       -10.5035
 160   2.0000      -0.377923       -10.2838
 161   2.0000      -0.371550       -10.1104
 162   2.0000      -0.369785       -10.0624
 163   2.0000      -0.358828        -9.7642
 164   2.0000      -0.353874        -9.6294
 165   2.0000      -0.339691        -9.2435
 166   2.0000      -0.337147        -9.1742
 167   2.0000      -0.335042        -9.1169
 168   2.0000      -0.328662        -8.9434
 169   2.0000      -0.300229        -8.1696
 170   2.0000      -0.298646        -8.1266
 171   2.0000      -0.288177        -7.8417
 172   2.0000      -0.286380        -7.7928
 173   2.0000      -0.257702        -7.0124
 174   2.0000      -0.247302        -6.7294
 175   2.0000      -0.188896        -5.1401
 176   2.0000      -0.178965        -4.8699
 177   2.0000      -0.069415        -1.8889
 178   2.0000      -0.055717        -1.5161
 179   0.0000       0.029963         0.8153
 180   0.0000       0.069697         1.8965
 181   0.0000       0.092604         2.5199
 182   0.0000       0.100909         2.7459
 183   0.0000       0.124182         3.3792

MULLIKEN ATOMIC CHARGES
-----------------------
   0 C :    0.208872
   1 N :   -0.448298
   2 C :   -0.062958
   3 N :   -0.336221
   4 C :   -0.053998
   5 N :   -0.562883
   6 C :   -0.088277
   7 N :   -0.338778
   8 C :    0.202712
   9 N :   -0.562930
  10 C :    0.116788
  11 N :   -0.437616
  12 C :   -0.079037
  13 N :   -0.435662
  14 C :    0.244149
  15 N :   -0.440949
  16 C :    0.229946
  17 C :   -0.093850
  18 C :   -0.215036
  19 C :    0.239614
  20 C :    0.210736
  21 C :   -0.091933
  22 C :   -0.088783
  23 C :   -0.044576
  24 C :    0.200592
  25 C :    0.114074
  26 C :   -0.072502
  27 C :    0.217355
  28 C :   -0.056501
  29 C :   -0.182308
  30 C :    0.239798
  31 C :    0.218919
  32 C :   -0.063900
  33 C :   -0.072846
  34 C :   -0.050384
  35 C :    0.213905
  36 C :    0.111721
  37 C :   -0.065919
  38 C :    0.234741
  39 C :   -0.059915
  40 C :   -0.186066
  41 C :    0.223121
  42 C :    0.200540
  43 C :   -0.072953
  44 C :   -0.089420
  45 C :   -0.056203
  46 C :    0.206649
  47 C :    0.115548
  48 C :   -0.071227
  49 C :    0.231557
  50 C :   -0.050247
  51 C :   -0.189839
  52 H :    0.047796
  53 H :   -0.014934
  54 H :    0.047026
  55 H :    0.045999
  56 H :    0.054123
  57 H :    0.052298
  58 H :    0.051991
  59 H :   -0.005404
  60 H :    0.050384
  61 H :    0.172080
  62 H :    0.173944
  63 H :    0.056290
  64 H :   -0.012622
  65 H :    0.047623
  66 H :    0.057173
  67 H :    0.062754
  68 H :    0.058012
  69 H :    0.057956
  70 H :   -0.026395
  71 H :    0.046677
  72 H :    0.062534
  73 H :   -0.011610
  74 H :    0.052305
  75 H :    0.061709
  76 H :    0.067245
  77 H :    0.062153
  78 H :    0.061391
  79 H :   -0.014944
  80 H :    0.052884
  81 H :    0.053536
  82 H :   -0.023972
  83 H :    0.042608
  84 H :    0.053566
  85 H :    0.059765
  86 H :    0.055937
  87 H :    0.056719
  88 H :   -0.018543
  89 H :    0.044626
Sum of atomic charges:   -0.0000000

LOEWDIN ATOMIC CHARGES
----------------------
   0 C :   -0.011965
   1 N :    0.125951
   2 C :   -0.100762
   3 N :    0.181206
   4 C :    0.015106
   5 N :   -0.135566
   6 C :   -0.030691
   7 N :    0.177014
   8 C :   -0.015719
   9 N :   -0.139818
  10 C :    0.026409
  11 N :    0.143959
  12 C :   -0.105614
  13 N :    0.151676
  14 C :   -0.038201
  15 N :    0.138413
  16 C :   -0.052433
  17 C :   -0.032534
  18 C :   -0.105054
  19 C :   -0.084392
  20 C :    0.002743
  21 C :   -0.110807
  22 C :    0.040438
  23 C :   -0.017352
  24 C :   -0.005897
  25 C :    0.030262
  26 C :   -0.103905
  27 C :   -0.104723
  28 C :   -0.023856
  29 C :   -0.104009
  30 C :   -0.039175
  31 C :    0.010918
  32 C :   -0.097414
  33 C :    0.057289
  34 C :   -0.017763
  35 C :    0.006713
  36 C :    0.031951
  37 C :   -0.098485
  38 C :   -0.045838
  39 C :   -0.022092
  40 C :   -0.108608
  41 C :   -0.092603
  42 C :   -0.007971
  43 C :   -0.102220
  44 C :    0.033221
  45 C :   -0.024767
  46 C :   -0.002467
  47 C :    0.029327
  48 C :   -0.100164
  49 C :   -0.081008
  50 C :   -0.021648
  51 C :   -0.108475
  52 H :    0.026905
  53 H :    0.003881
  54 H :    0.041210
  55 H :    0.026238
  56 H :    0.024113
  57 H :    0.028381
  58 H :    0.029106
  59 H :    0.006467
  60 H :    0.042789
  61 H :    0.060327
  62 H :    0.061075
  63 H :    0.031035
  64 H :    0.001517
  65 H :    0.045830
  66 H :    0.030152
  67 H :    0.028450
  68 H :    0.031978
  69 H :    0.030989
  70 H :   -0.002933
  71 H :    0.044546
  72 H :    0.033601
  73 H :    0.005377
  74 H :    0.047285
  75 H :    0.033016
  76 H :    0.030820
  77 H :    0.033434
  78 H :    0.033103
  79 H :    0.003788
  80 H :    0.047041
  81 H :    0.028842
  82 H :   -0.002194
  83 H :    0.043097
  84 H :    0.029435
  85 H :    0.026865
  86 H :    0.030320
  87 H :    0.031169
  88 H :    0.000451
  89 H :    0.043894

  Mayer bond orders larger than 0.100000
B(  0-C ,  1-N ) :   1.1022 B(  0-C , 17-C ) :   1.6708 B(  0-C , 52-H ) :   0.9688
B(  1-N ,  8-C ) :   1.0990 B(  1-N , 10-C ) :   0.9701 B(  2-C , 12-C ) :   1.5240
B(  2-C , 16-C ) :   1.3389 B(  2-C , 53-H ) :   0.9770 B(  3-N , 14-C ) :   1.2107
B(  3-N , 16-C ) :   1.1940 B(  3-N , 61-H ) :   0.8987 B(  4-C ,  6-C ) :   1.2369
B(  4-C , 17-C ) :   1.2359 B(  4-C , 18-C ) :   1.3526 B(  5-N , 19-C ) :   1.4369
B(  5-N , 27-C ) :   1.3911 B(  6-C ,  8-C ) :   1.6694 B(  6-C , 54-H ) :   0.9685
B(  7-N , 30-C ) :   1.1947 B(  7-N , 38-C ) :   1.1971 B(  7-N , 62-H ) :   0.8976
B(  8-C , 55-H ) :   0.9696 B(  9-N , 41-C ) :   1.4018 B(  9-N , 49-C ) :   1.4200
B( 10-C , 56-H ) :   0.9765 B( 10-C , 57-H ) :   0.9820 B( 10-C , 58-H ) :   0.9840
B( 11-N , 20-C ) :   1.1283 B( 11-N , 24-C ) :   1.1163 B( 11-N , 25-C ) :   0.9587
B( 12-C , 14-C ) :   1.3402 B( 12-C , 59-H ) :   0.9748 B( 13-N , 31-C ) :   1.1390
B( 13-N , 35-C ) :   1.1338 B( 13-N , 36-C ) :   0.9523 B( 14-C , 18-C ) :   1.1640
B( 15-N , 42-C ) :   1.1119 B( 15-N , 46-C ) :   1.1180 B( 15-N , 47-C ) :   0.9620
B( 16-C , 51-C ) :   1.1858 B( 17-C , 60-H ) :   0.9681 B( 18-C , 19-C ) :   1.1755
B( 19-C , 21-C ) :   1.2242 B( 20-C , 28-C ) :   1.6247 B( 20-C , 63-H ) :   0.9702
B( 21-C , 26-C ) :   1.6323 B( 21-C , 64-H ) :   0.9702 B( 22-C , 23-C ) :   1.2875
B( 22-C , 28-C ) :   1.2705 B( 22-C , 29-C ) :   1.2237 B( 23-C , 24-C ) :   1.6178
B( 23-C , 65-H ) :   0.9706 B( 24-C , 66-H ) :   0.9693 B( 25-C , 67-H ) :   0.9761
B( 25-C , 68-H ) :   0.9829 B( 25-C , 69-H ) :   0.9822 B( 26-C , 27-C ) :   1.2217
B( 26-C , 70-H ) :   0.9724 B( 27-C , 29-C ) :   1.2266 B( 28-C , 71-H ) :   0.9716
B( 29-C , 30-C ) :   1.2228 B( 30-C , 32-C ) :   1.3005 B( 31-C , 39-C ) :   1.6134
B( 31-C , 72-H ) :   0.9690 B( 32-C , 37-C ) :   1.5581 B( 32-C , 73-H ) :   0.9781
B( 33-C , 34-C ) :   1.2885 B( 33-C , 39-C ) :   1.2824 B( 33-C , 40-C ) :   1.2189
B( 34-C , 35-C ) :   1.6103 B( 34-C , 74-H ) :   0.9701 B( 35-C , 75-H ) :   0.9690
B( 36-C , 76-H ) :   0.9765 B( 36-C , 77-H ) :   0.9819 B( 36-C , 78-H ) :   0.9828
B( 37-C , 38-C ) :   1.3031 B( 37-C , 79-H ) :   0.9773 B( 38-C , 40-C ) :   1.2172
B( 39-C , 80-H ) :   0.9711 B( 40-C , 41-C ) :   1.2326 B( 41-C , 43-C ) :   1.2013
B( 42-C , 50-C ) :   1.6337 B( 42-C , 81-H ) :   0.9697 B( 43-C , 48-C ) :   1.6506
B( 43-C , 82-H ) :   0.9731 B( 44-C , 45-C ) :   1.2674 B( 44-C , 50-C ) :   1.2689
B( 44-C , 51-C ) :   1.2581 B( 45-C , 46-C ) :   1.6339 B( 45-C , 83-H ) :   0.9715
B( 46-C , 84-H ) :   0.9701 B( 47-C , 85-H ) :   0.9761 B( 47-C , 86-H ) :   0.9828
B( 47-C , 87-H ) :   0.9825 B( 48-C , 49-C ) :   1.2028 B( 48-C , 88-H ) :   0.9743
B( 49-C , 51-C ) :   1.2293 B( 50-C , 89-H ) :   0.9712

MP2 TOTAL ENERGY:    -2130.912233785 Eh
FINAL SINGLE POINT ENERGY     -2130.912233784720

DIPOLE MOMENT
-------------
                                X             Y             Z
Electronic contribution:      0.89450      -2.33057      -0.12971
Nuclear contribution   :      0.07820       0.24049       0.13790
                        -----------------------------------------
Total Dipole Moment    :      0.97270      -2.09009       0.00819
                        -----------------------------------------
Magnitude (a.u.)       :      2.30536
Magnitude (Debye)      :      5.85975

Rotational constants in cm-1:     0.001499     0.001476     0.000761
Rotational constants in MHz :    44.942893    44.246993    22.828522

                             ****ORCA TERMINATED NORMALLY****
TOTAL RUN TIME: 0 days 1 hours 19 minutes 6 seconds 503 msec
