                         Program Version 5.0.4 -  RELEASE  -
|  1> ! PAL2
|  2> ! mp2 cc-pvdz TightSCF  NoKeepInts
|  3>
|  4> %scf
|  5>   MaxCore 2000
|  6> end
|  7> %mp2
|  8>   MaxCore 2000
|  9> end
| 10> * xyz 0 1
| 11>    C       -4.40100         5.53900         1.13300
| 12>    C        1.47400         4.04100         0.05700
| 13>    C       -2.80200         4.09300         0.04900
| 14>    C       -2.80100         4.98900        -1.03100
| 15>    C       -3.59000         6.12200        -0.99300
| 16>    C       -5.18200         7.62300         0.10200
| 17>    C        0.13200         4.30700         0.06100
| 18>    C       -0.56900         3.05600         0.04700
| 19>    C        1.64900         2.61800         0.02300
| 20>    C       -3.62500         4.39600         1.14500
| 21>    N       -4.37700         6.38200         0.07600
| 22>    N        0.38800         2.06700         0.02500
| 23>    N       -2.01000         0.39500        -0.07500
| 24>    N       -0.38800        -2.07400        -0.02700
| 25>    N        2.01000        -0.40100         0.06500
| 26>    C       -1.96000         2.86100         0.02400
| 27>    C       -2.62300         1.61500        -0.01800
| 28>    C       -5.57300        -4.32900         1.06600
| 29>    C       -4.07300         1.47100         0.05600
| 30>    C       -4.10600        -2.75600        -0.02600
| 31>    C       -4.99500        -2.75700        -1.11100
| 32>    C       -6.13200        -3.54200        -1.07600
| 33>    C       -7.65100        -5.11300         0.04000
| 34>    C       -4.32400         0.14100         0.03700
| 35>    C       -3.02500        -0.52000        -0.04800
| 36>    C       -4.42200        -3.56600         1.07500
| 37>    N       -6.40700        -4.31300         0.00100
| 38>    C       -2.86700        -1.92200        -0.04000
| 39>    C       -1.65000        -2.62400        -0.02700
| 40>    C        3.56800        -6.14200        -1.04000
| 41>    C       -1.47600        -4.04900        -0.03400
| 42>    C        2.80300        -4.09900        -0.00800
| 43>    C        3.65700        -4.38400         1.06900
| 44>    C        4.42700        -5.53000         1.05900
| 45>    C        5.24500        -7.58800         0.01400
| 46>    C       -0.13400        -4.31500        -0.02200
| 47>    C        0.56800        -3.06400        -0.02700
| 48>    C        2.77500        -5.01200        -1.07400
| 49>    N        4.37600        -6.39100         0.01700
| 50>    C        1.95900        -2.86900        -0.00900
| 51>    C        2.62100        -1.62200         0.00900
| 52>    C        5.54300         4.33900        -1.13000
| 53>    C        4.07000        -1.47900        -0.09400
| 54>    C        4.10400         2.75100        -0.02100
| 55>    C        5.02700         2.72900         1.03600
| 56>    C        6.16600         3.50900         0.97800
| 57>    C        7.61900         5.15300        -0.11500
| 58>    C        4.32100        -0.14800        -0.09200
| 59>    C        3.02500         0.51400         0.01500
| 60>    C        4.38700         3.58200        -1.11500
| 61>    C        2.86600         1.91600         0.01300
| 62>    N        6.41300         4.29600        -0.09500
| 63>    H       -5.06000         5.80600         1.95100
| 64>    H        2.27400         4.76600         0.08100
| 65>    H       -2.17900         4.81500        -1.90100
| 66>    H       -3.61500         6.84500        -1.79800
| 67>    H       -4.56700         8.43800         0.48900
| 68>    H       -5.51100         7.85000        -0.91200
| 69>    H       -6.04600         7.46700         0.74800
| 70>    H       -0.33200         5.28200         0.06900
| 71>    H       -3.68100         3.73700         2.00300
| 72>    H        0.18200         1.07200         0.00500
| 73>    H       -0.18300        -1.08000        -0.02100
| 74>    H       -5.86400        -4.96200         1.89500
| 75>    H       -4.79400         2.27200         0.13900
| 76>    H       -4.80000        -2.16000        -1.99400
| 77>    H       -6.84100        -3.58200        -1.89300
| 78>    H       -8.42800        -4.53600         0.54600
| 79>    H       -7.95600        -5.33700        -0.98100
| 80>    H       -7.45600        -6.03700         0.58400
| 81>    H       -5.28700        -0.34400         0.10000
| 82>    H       -3.78000        -3.60100         1.94700
| 83>    H        3.58700        -6.86800        -1.84300
| 84>    H       -2.27600        -4.77400        -0.05000
| 85>    H        3.71400        -3.72400         1.92600
| 86>    H        5.09200        -5.79500         1.87100
| 87>    H        6.20500        -7.32900        -0.43900
| 88>    H        5.39300        -7.91700         1.04200
| 89>    H        4.75900        -8.37300        -0.56400
| 90>    H        0.32900        -5.29000        -0.00800
| 91>    H        2.14600        -4.84200        -1.94000
| 92>    H        5.80800         4.98600        -1.95600
| 93>    H        4.78800        -2.28100        -0.18500
| 94>    H        4.86000         2.11400         1.91200
| 95>    H        6.90100         3.53100         1.77200
| 96>    H        7.38300         6.10900         0.35600
| 97>    H        8.41400         4.65200         0.43500
| 98>    H        7.92100         5.31000        -1.15000
| 99>    H        5.28300         0.33600        -0.17900
|100>    H        3.72000         3.63200        -1.96700
|101> *
|102>
|103>                          ****END OF INPUT****

CARTESIAN COORDINATES (ANGSTROEM)
---------------------------------
  C     -4.401000    5.539000    1.133000
  C      1.474000    4.041000    0.057000
  C     -2.802000    4.093000    0.049000
  C     -2.801000    4.989000   -1.031000
  C     -3.590000    6.122000   -0.993000
  C     -5.182000    7.623000    0.102000
  C      0.132000    4.307000    0.061000
  C     -0.569000    3.056000    0.047000
  C      1.649000    2.618000    0.023000
  C     -3.625000    4.396000    1.145000
  N     -4.377000    6.382000    0.076000
  N      0.388000    2.067000    0.025000
  N     -2.010000    0.395000   -0.075000
  N     -0.388000   -2.074000   -0.027000
  N      2.010000   -0.401000    0.065000
  C     -1.960000    2.861000    0.024000
  C     -2.623000    1.615000   -0.018000
  C     -5.573000   -4.329000    1.066000
  C     -4.073000    1.471000    0.056000
  C     -4.106000   -2.756000   -0.026000
  C     -4.995000   -2.757000   -1.111000
  C     -6.132000   -3.542000   -1.076000
  C     -7.651000   -5.113000    0.040000
  C     -4.324000    0.141000    0.037000
  C     -3.025000   -0.520000   -0.048000
  C     -4.422000   -3.566000    1.075000
  N     -6.407000   -4.313000    0.001000
  C     -2.867000   -1.922000   -0.040000
  C     -1.650000   -2.624000   -0.027000
  C      3.568000   -6.142000   -1.040000
  C     -1.476000   -4.049000   -0.034000
  C      2.803000   -4.099000   -0.008000
  C      3.657000   -4.384000    1.069000
  C      4.427000   -5.530000    1.059000
  C      5.245000   -7.588000    0.014000
  C     -0.134000   -4.315000   -0.022000
  C      0.568000   -3.064000   -0.027000
  C      2.775000   -5.012000   -1.074000
  N      4.376000   -6.391000    0.017000
  C      1.959000   -2.869000   -0.009000
  C      2.621000   -1.622000    0.009000
  C      5.543000    4.339000   -1.130000
  C      4.070000   -1.479000   -0.094000
  C      4.104000    2.751000   -0.021000
  C      5.027000    2.729000    1.036000
  C      6.166000    3.509000    0.978000
  C      7.619000    5.153000   -0.115000
  C      4.321000   -0.148000   -0.092000
  C      3.025000    0.514000    0.015000
  C      4.387000    3.582000   -1.115000
  C      2.866000    1.916000    0.013000
  N      6.413000    4.296000   -0.095000
  H     -5.060000    5.806000    1.951000
  H      2.274000    4.766000    0.081000
  H     -2.179000    4.815000   -1.901000
  H     -3.615000    6.845000   -1.798000
  H     -4.567000    8.438000    0.489000
  H     -5.511000    7.850000   -0.912000
  H     -6.046000    7.467000    0.748000
  H     -0.332000    5.282000    0.069000
  H     -3.681000    3.737000    2.003000
  H      0.182000    1.072000    0.005000
  H     -0.183000   -1.080000   -0.021000
  H     -5.864000   -4.962000    1.895000
  H     -4.794000    2.272000    0.139000
  H     -4.800000   -2.160000   -1.994000
  H     -6.841000   -3.582000   -1.893000
  H     -8.428000   -4.536000    0.546000
  H     -7.956000   -5.337000   -0.981000
  H     -7.456000   -6.037000    0.584000
  H     -5.287000   -0.344000    0.100000
  H     -3.780000   -3.601000    1.947000
  H      3.587000   -6.868000   -1.843000
  H     -2.276000   -4.774000   -0.050000
  H      3.714000   -3.724000    1.926000
  H      5.092000   -5.795000    1.871000
  H      6.205000   -7.329000   -0.439000
  H      5.393000   -7.917000    1.042000
  H      4.759000   -8.373000   -0.564000
  H      0.329000   -5.290000   -0.008000
  H      2.146000   -4.842000   -1.940000
  H      5.808000    4.986000   -1.956000
  H      4.788000   -2.281000   -0.185000
  H      4.860000    2.114000    1.912000
  H      6.901000    3.531000    1.772000
  H      7.383000    6.109000    0.356000
  H      8.414000    4.652000    0.435000
  H      7.921000    5.310000   -1.150000
  H      5.283000    0.336000   -0.179000
  H      3.720000    3.632000   -1.967000

 Total Charge           Charge          ....    0
 Multiplicity           Mult            ....    1
 Number of Electrons    NEL             ....  358
 Basis Dimension        Dim             ....  918

ORBITAL ENERGIES
----------------

  NO   OCC          E(Eh)            E(eV)
   0   2.0000     -15.650525      -425.8724
   1   2.0000     -15.638799      -425.5533
   2   2.0000     -15.627187      -425.2374
   3   2.0000     -15.618447      -424.9995
   4   2.0000     -15.517279      -422.2466
   5   2.0000     -15.514281      -422.1650
   6   2.0000     -15.445832      -420.3025
   7   2.0000     -15.438657      -420.1072
   8   2.0000     -11.309492      -307.7469
   9   2.0000     -11.304220      -307.6035
  10   2.0000     -11.303167      -307.5748
  11   2.0000     -11.302292      -307.5510
  12   2.0000     -11.295001      -307.3526
  13   2.0000     -11.294949      -307.3512
  14   2.0000     -11.292808      -307.2929
  15   2.0000     -11.289716      -307.2088
  16   2.0000     -11.285601      -307.0968
  17   2.0000     -11.282650      -307.0165
  18   2.0000     -11.278399      -306.9008
  19   2.0000     -11.275699      -306.8274
  20   2.0000     -11.253046      -306.2109
  21   2.0000     -11.242342      -305.9197
  22   2.0000     -11.241989      -305.9101
  23   2.0000     -11.241420      -305.8946
  24   2.0000     -11.233840      -305.6883
  25   2.0000     -11.233023      -305.6661
  26   2.0000     -11.231442      -305.6231
  27   2.0000     -11.225393      -305.4585
  28   2.0000     -11.225161      -305.4522
  29   2.0000     -11.223803      -305.4152
  30   2.0000     -11.219220      -305.2905
  31   2.0000     -11.218374      -305.2675
  32   2.0000     -11.198715      -304.7325
  33   2.0000     -11.198485      -304.7263
  34   2.0000     -11.193521      -304.5912
  35   2.0000     -11.193353      -304.5866
  36   2.0000     -11.177682      -304.1602
  37   2.0000     -11.177039      -304.1427
  38   2.0000     -11.174558      -304.0752
  39   2.0000     -11.169617      -303.9407
  40   2.0000     -11.165388      -303.8257
  41   2.0000     -11.163354      -303.7703
  42   2.0000     -11.163224      -303.7668
  43   2.0000     -11.160607      -303.6955
  44   2.0000     -11.159268      -303.6591
  45   2.0000     -11.155828      -303.5655
  46   2.0000     -11.153202      -303.4941
  47   2.0000     -11.149611      -303.3964
  48   2.0000     -11.149477      -303.3927
  49   2.0000     -11.147843      -303.3482
  50   2.0000     -11.134720      -302.9911
  51   2.0000     -11.132937      -302.9426
  52   2.0000      -1.335384       -36.3376
  53   2.0000      -1.325291       -36.0630
  54   2.0000      -1.315138       -35.7867
  55   2.0000      -1.307923       -35.5904
  56   2.0000      -1.216262       -33.0962
  57   2.0000      -1.211451       -32.9653
  58   2.0000      -1.164308       -31.6824
  59   2.0000      -1.152187       -31.3526
  60   2.0000      -1.121802       -30.5258
  61   2.0000      -1.112606       -30.2755
  62   2.0000      -1.104766       -30.0622
  63   2.0000      -1.097340       -29.8601
  64   2.0000      -1.058406       -28.8007
  65   2.0000      -1.049035       -28.5457
  66   2.0000      -1.039731       -28.2925
  67   2.0000      -1.033076       -28.1114
  68   2.0000      -1.027593       -27.9622
  69   2.0000      -1.011949       -27.5365
  70   2.0000      -1.006958       -27.4007
  71   2.0000      -0.996362       -27.1124
  72   2.0000      -0.980355       -26.6768
  73   2.0000      -0.975266       -26.5383
  74   2.0000      -0.969572       -26.3834
  75   2.0000      -0.961292       -26.1581
  76   2.0000      -0.950101       -25.8536
  77   2.0000      -0.946986       -25.7688
  78   2.0000      -0.934773       -25.4365
  79   2.0000      -0.922543       -25.1037
  80   2.0000      -0.892549       -24.2875
  81   2.0000      -0.883592       -24.0437
  82   2.0000      -0.875771       -23.8309
  83   2.0000      -0.866976       -23.5916
  84   2.0000      -0.861285       -23.4367
  85   2.0000      -0.857711       -23.3395
  86   2.0000      -0.851983       -23.1836
  87   2.0000      -0.839087       -22.8327
  88   2.0000      -0.822163       -22.3722
  89   2.0000      -0.797487       -21.7007
  90   2.0000      -0.796849       -21.6834
  91   2.0000      -0.739685       -20.1278
  92   2.0000      -0.731022       -19.8921
  93   2.0000      -0.727181       -19.7876
  94   2.0000      -0.722905       -19.6712
  95   2.0000      -0.716731       -19.5033
  96   2.0000      -0.710693       -19.3389
  97   2.0000      -0.708524       -19.2799
  98   2.0000      -0.698077       -18.9956
  99   2.0000      -0.691073       -18.8050
 100   2.0000      -0.687787       -18.7156
 101   2.0000      -0.682184       -18.5632
 102   2.0000      -0.679742       -18.4967
 103   2.0000      -0.671842       -18.2817
 104   2.0000      -0.669426       -18.2160
 105   2.0000      -0.665127       -18.0990
 106   2.0000      -0.664294       -18.0764
 107   2.0000      -0.660436       -17.9714
 108   2.0000      -0.659172       -17.9370
 109   2.0000      -0.656208       -17.8563
 110   2.0000      -0.650998       -17.7146
 111   2.0000      -0.648508       -17.6468
 112   2.0000      -0.646613       -17.5952
 113   2.0000      -0.641961       -17.4687
 114   2.0000      -0.633455       -17.2372
 115   2.0000      -0.624406       -16.9910
 116   2.0000      -0.623576       -16.9684
 117   2.0000      -0.616008       -16.7624
 118   2.0000      -0.611727       -16.6459
 119   2.0000      -0.607999       -16.5445
 120   2.0000      -0.607121       -16.5206
 121   2.0000      -0.601677       -16.3725
 122   2.0000      -0.600121       -16.3301
 123   2.0000      -0.593950       -16.1622
 124   2.0000      -0.591739       -16.1020
 125   2.0000      -0.584604       -15.9079
 126   2.0000      -0.577219       -15.7069
 127   2.0000      -0.571688       -15.5564
 128   2.0000      -0.569386       -15.4938
 129   2.0000      -0.563690       -15.3388
 130   2.0000      -0.553695       -15.0668
 131   2.0000      -0.546579       -14.8732
 132   2.0000      -0.540513       -14.7081
 133   2.0000      -0.534629       -14.5480
 134   2.0000      -0.531994       -14.4763
 135   2.0000      -0.528158       -14.3719
 136   2.0000      -0.525287       -14.2938
 137   2.0000      -0.523211       -14.2373
 138   2.0000      -0.519608       -14.1392
 139   2.0000      -0.515326       -14.0227
 140   2.0000      -0.508998       -13.8506
 141   2.0000      -0.504525       -13.7288
 142   2.0000      -0.503705       -13.7065
 143   2.0000      -0.502005       -13.6602
 144   2.0000      -0.498313       -13.5598
 145   2.0000      -0.496293       -13.5048
 146   2.0000      -0.495328       -13.4786
 147   2.0000      -0.493553       -13.4303
 148   2.0000      -0.488902       -13.3037
 149   2.0000      -0.467255       -12.7147
 150   2.0000      -0.460549       -12.5322
 151   2.0000      -0.452075       -12.3016
 152   2.0000      -0.446933       -12.1617
 153   2.0000      -0.445113       -12.1122
 154   2.0000      -0.443068       -12.0565
 155   2.0000      -0.439930       -11.9711
 156   2.0000      -0.433884       -11.8066
 157   2.0000      -0.427733       -11.6392
 158   2.0000      -0.393120       -10.6973
 159   2.0000      -0.381071       -10.3695
 160   2.0000      -0.375514       -10.2183
 161   2.0000      -0.370928       -10.0935
 162   2.0000      -0.366966        -9.9857
 163   2.0000      -0.359411        -9.7801
 164   2.0000      -0.351539        -9.5659
 165   2.0000      -0.346010        -9.4154
 166   2.0000      -0.337891        -9.1945
 167   2.0000      -0.333770        -9.0823
 168   2.0000      -0.324861        -8.8399
 169   2.0000      -0.300097        -8.1661
 170   2.0000      -0.293568        -7.9884
 171   2.0000      -0.288571        -7.8524
 172   2.0000      -0.286683        -7.8010
 173   2.0000      -0.257425        -7.0049
 174   2.0000      -0.244218        -6.6455
 175   2.0000      -0.186763        -5.0821
 176   2.0000      -0.176546        -4.8041
 177   2.0000      -0.064058        -1.7431
 178   2.0000      -0.052610        -1.4316
 179   0.0000       0.032573         0.8864
 180   0.0000       0.068855         1.8736
 181   0.0000       0.092191         2.5086
 182   0.0000       0.095633         2.6023
 183   0.0000       0.126421         3.4401

MULLIKEN ATOMIC CHARGES
-----------------------
   0 C :    0.214932
   1 N :   -0.434337
   2 C :   -0.065438
   3 N :   -0.339030
   4 C :   -0.071353
   5 N :   -0.564423
   6 C :   -0.050033
   7 N :   -0.337334
   8 C :    0.211008
   9 N :   -0.564241
  10 C :    0.111730
  11 N :   -0.437458
  12 C :   -0.066657
  13 N :   -0.443366
  14 C :    0.236922
  15 N :   -0.440736
  16 C :    0.240383
  17 C :   -0.056245
  18 C :   -0.205942
  19 C :    0.239800
  20 C :    0.203638
  21 C :   -0.078677
  22 C :   -0.086119
  23 C :   -0.053810
  24 C :    0.210503
  25 C :    0.113789
  26 C :   -0.070623
  27 C :    0.230748
  28 C :   -0.048424
  29 C :   -0.189245
  30 C :    0.230946
  31 C :    0.203230
  32 C :   -0.066220
  33 C :   -0.088183
  34 C :   -0.050669
  35 C :    0.196445
  36 C :    0.116279
  37 C :   -0.068013
  38 C :    0.238862
  39 C :   -0.062253
  40 C :   -0.194266
  41 C :    0.220176
  42 C :    0.206535
  43 C :   -0.074332
  44 C :   -0.088998
  45 C :   -0.048019
  46 C :    0.198219
  47 C :    0.115778
  48 C :   -0.076626
  49 C :    0.220964
  50 C :   -0.057058
  51 C :   -0.189058
  52 H :    0.062561
  53 H :   -0.012291
  54 H :    0.050874
  55 H :    0.060221
  56 H :    0.065982
  57 H :    0.061998
  58 H :    0.060950
  59 H :   -0.017501
  60 H :    0.052096
  61 H :    0.174160
  62 H :    0.171307
  63 H :    0.056373
  64 H :   -0.023329
  65 H :    0.046409
  66 H :    0.057862
  67 H :    0.062179
  68 H :    0.058164
  69 H :    0.059493
  70 H :   -0.021918
  71 H :    0.048341
  72 H :    0.050415
  73 H :   -0.016606
  74 H :    0.041221
  75 H :    0.049416
  76 H :    0.056957
  77 H :    0.054306
  78 H :    0.053548
  79 H :   -0.013339
  80 H :    0.041433
  81 H :    0.052810
  82 H :   -0.022983
  83 H :    0.043537
  84 H :    0.052510
  85 H :    0.058030
  86 H :    0.056613
  87 H :    0.056169
  88 H :   -0.024437
  89 H :    0.042768
Sum of atomic charges:   -0.0000000

LOEWDIN ATOMIC CHARGES
----------------------
   0 C :    0.007924
   1 N :    0.151490
   2 C :   -0.100885
   3 N :    0.176720
   4 C :    0.055371
   5 N :   -0.141740
   6 C :   -0.018206
   7 N :    0.177889
   8 C :    0.004914
   9 N :   -0.139184
  10 C :    0.031717
  11 N :    0.144669
  12 C :   -0.101080
  13 N :    0.132832
  14 C :   -0.049546
  15 N :    0.138060
  16 C :   -0.037713
  17 C :   -0.020285
  18 C :   -0.111603
  19 C :   -0.086731
  20 C :   -0.003250
  21 C :   -0.103613
  22 C :    0.043504
  23 C :   -0.023453
  24 C :    0.003048
  25 C :    0.030421
  26 C :   -0.099925
  27 C :   -0.083183
  28 C :   -0.018817
  29 C :   -0.111669
  30 C :   -0.051762
  31 C :   -0.007753
  32 C :   -0.101223
  33 C :    0.025696
  34 C :   -0.022252
  35 C :   -0.013641
  36 C :    0.027619
  37 C :   -0.104113
  38 C :   -0.038441
  39 C :   -0.027898
  40 C :   -0.110541
  41 C :   -0.092599
  42 C :   -0.002992
  43 C :   -0.106916
  44 C :    0.033427
  45 C :   -0.019584
  46 C :   -0.010052
  47 C :    0.029098
  48 C :   -0.107080
  49 C :   -0.097871
  50 C :   -0.026165
  51 C :   -0.108342
  52 H :    0.033323
  53 H :    0.005151
  54 H :    0.046696
  55 H :    0.032380
  56 H :    0.030020
  57 H :    0.033063
  58 H :    0.033303
  59 H :    0.002761
  60 H :    0.046989
  61 H :    0.061233
  62 H :    0.059668
  63 H :    0.030793
  64 H :   -0.002149
  65 H :    0.044849
  66 H :    0.030846
  67 H :    0.028262
  68 H :    0.032039
  69 H :    0.031627
  70 H :   -0.000875
  71 H :    0.045721
  72 H :    0.027952
  73 H :    0.002992
  74 H :    0.042616
  75 H :    0.027207
  76 H :    0.025521
  77 H :    0.029755
  78 H :    0.029436
  79 H :    0.004660
  80 H :    0.042092
  81 H :    0.028771
  82 H :   -0.001541
  83 H :    0.043957
  84 H :    0.028654
  85 H :    0.026076
  86 H :    0.030560
  87 H :    0.030900
  88 H :   -0.002356
  89 H :    0.042758

  Mayer bond orders larger than 0.100000
B(  0-C ,  1-N ) :   1.1369 B(  0-C , 17-C ) :   1.6079 B(  0-C , 52-H ) :   0.9689
B(  1-N ,  8-C ) :   1.1322 B(  1-N , 10-C ) :   0.9534 B(  2-C , 12-C ) :   1.5446
B(  2-C , 16-C ) :   1.3134 B(  2-C , 53-H ) :   0.9782 B(  3-N , 14-C ) :   1.1945
B(  3-N , 16-C ) :   1.1989 B(  3-N , 61-H ) :   0.8974 B(  4-C ,  6-C ) :   1.2877
B(  4-C , 17-C ) :   1.2890 B(  4-C , 18-C ) :   1.2143 B(  5-N , 19-C ) :   1.4045
B(  5-N , 27-C ) :   1.4163 B(  6-C ,  8-C ) :   1.6100 B(  6-C , 54-H ) :   0.9713
B(  7-N , 30-C ) :   1.1916 B(  7-N , 38-C ) :   1.2056 B(  7-N , 62-H ) :   0.8992
B(  8-C , 55-H ) :   0.9695 B(  9-N , 41-C ) :   1.4169 B(  9-N , 49-C ) :   1.4078
B( 10-C , 56-H ) :   0.9763 B( 10-C , 57-H ) :   0.9815 B( 10-C , 58-H ) :   0.9831
B( 11-N , 20-C ) :   1.1197 B( 11-N , 24-C ) :   1.1288 B( 11-N , 25-C ) :   0.9581
B( 12-C , 14-C ) :   1.3135 B( 12-C , 59-H ) :   0.9771 B( 13-N , 31-C ) :   1.1105
B( 13-N , 35-C ) :   1.1033 B( 13-N , 36-C ) :   0.9666 B( 14-C , 18-C ) :   1.2110
B( 15-N , 42-C ) :   1.1198 B( 15-N , 46-C ) :   1.1081 B( 15-N , 47-C ) :   0.9629
B( 16-C , 51-C ) :   1.2090 B( 17-C , 60-H ) :   0.9713 B( 18-C , 19-C ) :   1.2392
B( 19-C , 21-C ) :   1.1965 B( 20-C , 28-C ) :   1.6221 B( 20-C , 63-H ) :   0.9704
B( 21-C , 26-C ) :   1.6541 B( 21-C , 64-H ) :   0.9723 B( 22-C , 23-C ) :   1.2782
B( 22-C , 28-C ) :   1.2781 B( 22-C , 29-C ) :   1.2346 B( 23-C , 24-C ) :   1.6201
B( 23-C , 65-H ) :   0.9712 B( 24-C , 66-H ) :   0.9690 B( 25-C , 67-H ) :   0.9762
B( 25-C , 68-H ) :   0.9830 B( 25-C , 69-H ) :   0.9820 B( 26-C , 27-C ) :   1.1989
B( 26-C , 70-H ) :   0.9738 B( 27-C , 29-C ) :   1.2359 B( 28-C , 71-H ) :   0.9712
B( 29-C , 30-C ) :   1.1984 B( 30-C , 32-C ) :   1.3259 B( 31-C , 39-C ) :   1.6466
B( 31-C , 72-H ) :   0.9701 B( 32-C , 37-C ) :   1.5324 B( 32-C , 73-H ) :   0.9775
B( 33-C , 34-C ) :   1.2621 B( 33-C , 39-C ) :   1.2553 B( 33-C , 40-C ) :   1.2808
B( 34-C , 35-C ) :   1.6441 B( 34-C , 74-H ) :   0.9707 B( 35-C , 75-H ) :   0.9701
B( 36-C , 76-H ) :   0.9761 B( 36-C , 77-H ) :   0.9823 B( 36-C , 78-H ) :   0.9833
B( 37-C , 38-C ) :   1.3256 B( 37-C , 79-H ) :   0.9782 B( 38-C , 40-C ) :   1.1973
B( 39-C , 80-H ) :   0.9717 B( 40-C , 41-C ) :   1.2048 B( 41-C , 43-C ) :   1.2246
B( 42-C , 50-C ) :   1.6348 B( 42-C , 81-H ) :   0.9696 B( 43-C , 48-C ) :   1.6269
B( 43-C , 82-H ) :   0.9743 B( 44-C , 45-C ) :   1.2748 B( 44-C , 50-C ) :   1.2627
B( 44-C , 51-C ) :   1.2521 B( 45-C , 46-C ) :   1.6315 B( 45-C , 83-H ) :   0.9709
B( 46-C , 84-H ) :   0.9704 B( 47-C , 85-H ) :   0.9761 B( 47-C , 86-H ) :   0.9827
B( 47-C , 87-H ) :   0.9827 B( 48-C , 49-C ) :   1.2225 B( 48-C , 88-H ) :   0.9735
B( 49-C , 51-C ) :   1.2142 B( 50-C , 89-H ) :   0.9716

MP2 TOTAL ENERGY:    -2130.907463538 Eh
FINAL SINGLE POINT ENERGY     -2130.907463538001

DIPOLE MOMENT
-------------
                                X             Y             Z
Electronic contribution:     -1.55065       0.80625      -0.10131
Nuclear contribution   :      0.07173       0.23597       0.11633
                        -----------------------------------------
Total Dipole Moment    :     -1.47892       1.04222       0.01501
                        -----------------------------------------
Magnitude (a.u.)       :      1.80933
Magnitude (Debye)      :      4.59894

Rotational constants in cm-1:     0.001498     0.001474     0.000762
Rotational constants in MHz :    44.918891    44.181396    22.852364

                             ****ORCA TERMINATED NORMALLY****
TOTAL RUN TIME: 0 days 1 hours 16 minutes 12 seconds 888 msec
