                         Program Version 5.0.4 -  RELEASE  -
|  1> ! PAL2
|  2> ! mp2 cc-pvdz TightSCF  NoKeepInts
|  3>
|  4> %scf
|  5>   MaxCore 2000
|  6> end
|  7> %mp2
|  8>   MaxCore 2000
|  9> end
| 10> * xyz 0 1
| 11>    C       -3.39200         6.26800        -0.81400
| 12>    C        1.47400         4.04100         0.05700
| 13>    C       -2.80200         4.09300         0.04900
| 14>    C       -3.82100         4.25100         1.00100
| 15>    C       -4.58700         5.39900         1.01300
| 16>    C       -5.22900         7.59100         0.13200
| 17>    C        0.13200         4.30700         0.06100
| 18>    C       -0.56900         3.05600         0.04700
| 19>    C        1.64900         2.61800         0.02300
| 20>    C       -2.60400         5.13500        -0.87000
| 21>    N       -4.36600         6.38900         0.11700
| 22>    N        0.38800         2.06700         0.02500
| 23>    N       -2.01000         0.39500        -0.07500
| 24>    N       -0.38800        -2.07400        -0.02700
| 25>    N        2.01000        -0.40100         0.06500
| 26>    C       -1.96000         2.86100         0.02400
| 27>    C       -2.62300         1.61500        -0.01800
| 28>    C       -5.57300        -4.32900         1.06600
| 29>    C       -4.07300         1.47100         0.05600
| 30>    C       -4.10600        -2.75600        -0.02600
| 31>    C       -4.99500        -2.75700        -1.11100
| 32>    C       -6.13200        -3.54200        -1.07600
| 33>    C       -7.65100        -5.11300         0.04000
| 34>    C       -4.32400         0.14100         0.03700
| 35>    C       -3.02500        -0.52000        -0.04800
| 36>    C       -4.42200        -3.56600         1.07500
| 37>    N       -6.40700        -4.31300         0.00100
| 38>    C       -2.86700        -1.92200        -0.04000
| 39>    C       -1.65000        -2.62400        -0.02700
| 40>    C        3.56800        -6.14200        -1.04000
| 41>    C       -1.47600        -4.04900        -0.03400
| 42>    C        2.80300        -4.09900        -0.00800
| 43>    C        3.65700        -4.38400         1.06900
| 44>    C        4.42700        -5.53000         1.05900
| 45>    C        5.24500        -7.58800         0.01400
| 46>    C       -0.13400        -4.31500        -0.02200
| 47>    C        0.56800        -3.06400        -0.02700
| 48>    C        2.77500        -5.01200        -1.07400
| 49>    N        4.37600        -6.39100         0.01700
| 50>    C        1.95900        -2.86900        -0.00900
| 51>    C        2.62100        -1.62200         0.00900
| 52>    C        5.54300         4.33900        -1.13000
| 53>    C        4.07000        -1.47900        -0.09400
| 54>    C        4.10400         2.75100        -0.02100
| 55>    C        5.02700         2.72900         1.03600
| 56>    C        6.16600         3.50900         0.97800
| 57>    C        7.61900         5.15300        -0.11500
| 58>    C        4.32100        -0.14800        -0.09200
| 59>    C        3.02500         0.51400         0.01500
| 60>    C        4.38700         3.58200        -1.11500
| 61>    C        2.86600         1.91600         0.01300
| 62>    N        6.41300         4.29600        -0.09500
| 63>    H       -3.26700         7.10200        -1.49400
| 64>    H        2.27400         4.76600         0.08100
| 65>    H       -4.02900         3.47700         1.73000
| 66>    H       -5.38900         5.56200         1.72100
| 67>    H       -6.12400         7.39400        -0.46400
| 68>    H       -5.50600         7.81100         1.16300
| 69>    H       -4.67400         8.42600        -0.29300
| 70>    H       -0.33200         5.28200         0.06900
| 71>    H       -1.82300         5.07900        -1.62000
| 72>    H        0.18200         1.07200         0.00500
| 73>    H       -0.18300        -1.08000        -0.02100
| 74>    H       -5.86400        -4.96200         1.89500
| 75>    H       -4.79400         2.27200         0.13900
| 76>    H       -4.80000        -2.16000        -1.99400
| 77>    H       -6.84100        -3.58200        -1.89300
| 78>    H       -8.42800        -4.53600         0.54600
| 79>    H       -7.95600        -5.33700        -0.98100
| 80>    H       -7.45600        -6.03700         0.58400
| 81>    H       -5.28700        -0.34400         0.10000
| 82>    H       -3.78000        -3.60100         1.94700
| 83>    H        3.58700        -6.86800        -1.84300
| 84>    H       -2.27600        -4.77400        -0.05000
| 85>    H        3.71400        -3.72400         1.92600
| 86>    H        5.09200        -5.79500         1.87100
| 87>    H        6.20500        -7.32900        -0.43900
| 88>    H        5.39300        -7.91700         1.04200
| 89>    H        4.75900        -8.37300        -0.56400
| 90>    H        0.32900        -5.29000        -0.00800
| 91>    H        2.14600        -4.84200        -1.94000
| 92>    H        5.80800         4.98600        -1.95600
| 93>    H        4.78800        -2.28100        -0.18500
| 94>    H        4.86000         2.11400         1.91200
| 95>    H        6.90100         3.53100         1.77200
| 96>    H        7.38300         6.10900         0.35600
| 97>    H        8.41400         4.65200         0.43500
| 98>    H        7.92100         5.31000        -1.15000
| 99>    H        5.28300         0.33600        -0.17900
|100>    H        3.72000         3.63200        -1.96700
|101> *
|102>
|103>                          ****END OF INPUT****

CARTESIAN COORDINATES (ANGSTROEM)
---------------------------------
  C     -3.392000    6.268000   -0.814000
  C      1.474000    4.041000    0.057000
  C     -2.802000    4.093000    0.049000
  C     -3.821000    4.251000    1.001000
  C     -4.587000    5.399000    1.013000
  C     -5.229000    7.591000    0.132000
  C      0.132000    4.307000    0.061000
  C     -0.569000    3.056000    0.047000
  C      1.649000    2.618000    0.023000
  C     -2.604000    5.135000   -0.870000
  N     -4.366000    6.389000    0.117000
  N      0.388000    2.067000    0.025000
  N     -2.010000    0.395000   -0.075000
  N     -0.388000   -2.074000   -0.027000
  N      2.010000   -0.401000    0.065000
  C     -1.960000    2.861000    0.024000
  C     -2.623000    1.615000   -0.018000
  C     -5.573000   -4.329000    1.066000
  C     -4.073000    1.471000    0.056000
  C     -4.106000   -2.756000   -0.026000
  C     -4.995000   -2.757000   -1.111000
  C     -6.132000   -3.542000   -1.076000
  C     -7.651000   -5.113000    0.040000
  C     -4.324000    0.141000    0.037000
  C     -3.025000   -0.520000   -0.048000
  C     -4.422000   -3.566000    1.075000
  N     -6.407000   -4.313000    0.001000
  C     -2.867000   -1.922000   -0.040000
  C     -1.650000   -2.624000   -0.027000
  C      3.568000   -6.142000   -1.040000
  C     -1.476000   -4.049000   -0.034000
  C      2.803000   -4.099000   -0.008000
  C      3.657000   -4.384000    1.069000
  C      4.427000   -5.530000    1.059000
  C      5.245000   -7.588000    0.014000
  C     -0.134000   -4.315000   -0.022000
  C      0.568000   -3.064000   -0.027000
  C      2.775000   -5.012000   -1.074000
  N      4.376000   -6.391000    0.017000
  C      1.959000   -2.869000   -0.009000
  C      2.621000   -1.622000    0.009000
  C      5.543000    4.339000   -1.130000
  C      4.070000   -1.479000   -0.094000
  C      4.104000    2.751000   -0.021000
  C      5.027000    2.729000    1.036000
  C      6.166000    3.509000    0.978000
  C      7.619000    5.153000   -0.115000
  C      4.321000   -0.148000   -0.092000
  C      3.025000    0.514000    0.015000
  C      4.387000    3.582000   -1.115000
  C      2.866000    1.916000    0.013000
  N      6.413000    4.296000   -0.095000
  H     -3.267000    7.102000   -1.494000
  H      2.274000    4.766000    0.081000
  H     -4.029000    3.477000    1.730000
  H     -5.389000    5.562000    1.721000
  H     -6.124000    7.394000   -0.464000
  H     -5.506000    7.811000    1.163000
  H     -4.674000    8.426000   -0.293000
  H     -0.332000    5.282000    0.069000
  H     -1.823000    5.079000   -1.620000
  H      0.182000    1.072000    0.005000
  H     -0.183000   -1.080000   -0.021000
  H     -5.864000   -4.962000    1.895000
  H     -4.794000    2.272000    0.139000
  H     -4.800000   -2.160000   -1.994000
  H     -6.841000   -3.582000   -1.893000
  H     -8.428000   -4.536000    0.546000
  H     -7.956000   -5.337000   -0.981000
  H     -7.456000   -6.037000    0.584000
  H     -5.287000   -0.344000    0.100000
  H     -3.780000   -3.601000    1.947000
  H      3.587000   -6.868000   -1.843000
  H     -2.276000   -4.774000   -0.050000
  H      3.714000   -3.724000    1.926000
  H      5.092000   -5.795000    1.871000
  H      6.205000   -7.329000   -0.439000
  H      5.393000   -7.917000    1.042000
  H      4.759000   -8.373000   -0.564000
  H      0.329000   -5.290000   -0.008000
  H      2.146000   -4.842000   -1.940000
  H      5.808000    4.986000   -1.956000
  H      4.788000   -2.281000   -0.185000
  H      4.860000    2.114000    1.912000
  H      6.901000    3.531000    1.772000
  H      7.383000    6.109000    0.356000
  H      8.414000    4.652000    0.435000
  H      7.921000    5.310000   -1.150000
  H      5.283000    0.336000   -0.179000
  H      3.720000    3.632000   -1.967000

 Total Charge           Charge          ....    0
 Multiplicity           Mult            ....    1
 Number of Electrons    NEL             ....  358
 Basis Dimension        Dim             ....  918

ORBITAL ENERGIES
----------------

  NO   OCC          E(Eh)            E(eV)
   0   2.0000     -15.648708      -425.8230
   1   2.0000     -15.637465      -425.5171
   2   2.0000     -15.629997      -425.3138
   3   2.0000     -15.614175      -424.8833
   4   2.0000     -15.520494      -422.3341
   5   2.0000     -15.516409      -422.2230
   6   2.0000     -15.446652      -420.3248
   7   2.0000     -15.443354      -420.2350
   8   2.0000     -11.308666      -307.7245
   9   2.0000     -11.303780      -307.5915
  10   2.0000     -11.301714      -307.5353
  11   2.0000     -11.301436      -307.5277
  12   2.0000     -11.296931      -307.4051
  13   2.0000     -11.294030      -307.3262
  14   2.0000     -11.291424      -307.2553
  15   2.0000     -11.287819      -307.1572
  16   2.0000     -11.287571      -307.1504
  17   2.0000     -11.286300      -307.1158
  18   2.0000     -11.275714      -306.8278
  19   2.0000     -11.274268      -306.7884
  20   2.0000     -11.252688      -306.2012
  21   2.0000     -11.241281      -305.8908
  22   2.0000     -11.240832      -305.8786
  23   2.0000     -11.240387      -305.8665
  24   2.0000     -11.234499      -305.7063
  25   2.0000     -11.233355      -305.6751
  26   2.0000     -11.232567      -305.6537
  27   2.0000     -11.227959      -305.5283
  28   2.0000     -11.227803      -305.5241
  29   2.0000     -11.221985      -305.3657
  30   2.0000     -11.216295      -305.2109
  31   2.0000     -11.215409      -305.1868
  32   2.0000     -11.202634      -304.8392
  33   2.0000     -11.202164      -304.8264
  34   2.0000     -11.193408      -304.5881
  35   2.0000     -11.192810      -304.5718
  36   2.0000     -11.176925      -304.1396
  37   2.0000     -11.175781      -304.1085
  38   2.0000     -11.175616      -304.1040
  39   2.0000     -11.171780      -303.9996
  40   2.0000     -11.168317      -303.9054
  41   2.0000     -11.168138      -303.9005
  42   2.0000     -11.166850      -303.8654
  43   2.0000     -11.164617      -303.8047
  44   2.0000     -11.162756      -303.7540
  45   2.0000     -11.160869      -303.7027
  46   2.0000     -11.151916      -303.4591
  47   2.0000     -11.149044      -303.3809
  48   2.0000     -11.148113      -303.3556
  49   2.0000     -11.145635      -303.2881
  50   2.0000     -11.139978      -303.1342
  51   2.0000     -11.135951      -303.0246
  52   2.0000      -1.333876       -36.2966
  53   2.0000      -1.324166       -36.0324
  54   2.0000      -1.317798       -35.8591
  55   2.0000      -1.304902       -35.5082
  56   2.0000      -1.219542       -33.1854
  57   2.0000      -1.212458       -32.9927
  58   2.0000      -1.163887       -31.6710
  59   2.0000      -1.156519       -31.4705
  60   2.0000      -1.121228       -30.5102
  61   2.0000      -1.112374       -30.2692
  62   2.0000      -1.106971       -30.1222
  63   2.0000      -1.096727       -29.8435
  64   2.0000      -1.057393       -28.7731
  65   2.0000      -1.048086       -28.5199
  66   2.0000      -1.042419       -28.3657
  67   2.0000      -1.031187       -28.0600
  68   2.0000      -1.028401       -27.9842
  69   2.0000      -1.011028       -27.5115
  70   2.0000      -1.009708       -27.4755
  71   2.0000      -0.996381       -27.1129
  72   2.0000      -0.983790       -26.7703
  73   2.0000      -0.975273       -26.5385
  74   2.0000      -0.971002       -26.4223
  75   2.0000      -0.959770       -26.1167
  76   2.0000      -0.951915       -25.9029
  77   2.0000      -0.945605       -25.7312
  78   2.0000      -0.939224       -25.5576
  79   2.0000      -0.923213       -25.1219
  80   2.0000      -0.894603       -24.3434
  81   2.0000      -0.883048       -24.0289
  82   2.0000      -0.875199       -23.8154
  83   2.0000      -0.869704       -23.6659
  84   2.0000      -0.862390       -23.4668
  85   2.0000      -0.856713       -23.3124
  86   2.0000      -0.849085       -23.1048
  87   2.0000      -0.842076       -22.9140
  88   2.0000      -0.821983       -22.3673
  89   2.0000      -0.798690       -21.7335
  90   2.0000      -0.797429       -21.6992
  91   2.0000      -0.740345       -20.1458
  92   2.0000      -0.732350       -19.9283
  93   2.0000      -0.729588       -19.8531
  94   2.0000      -0.721201       -19.6249
  95   2.0000      -0.720672       -19.6105
  96   2.0000      -0.712620       -19.3914
  97   2.0000      -0.708064       -19.2674
  98   2.0000      -0.699756       -19.0413
  99   2.0000      -0.693541       -18.8722
 100   2.0000      -0.687310       -18.7027
 101   2.0000      -0.681315       -18.5395
 102   2.0000      -0.678950       -18.4752
 103   2.0000      -0.674126       -18.3439
 104   2.0000      -0.669704       -18.2236
 105   2.0000      -0.665206       -18.1012
 106   2.0000      -0.664149       -18.0724
 107   2.0000      -0.659163       -17.9367
 108   2.0000      -0.658327       -17.9140
 109   2.0000      -0.656268       -17.8580
 110   2.0000      -0.652434       -17.7536
 111   2.0000      -0.649562       -17.6755
 112   2.0000      -0.647004       -17.6059
 113   2.0000      -0.640385       -17.4258
 114   2.0000      -0.635264       -17.2864
 115   2.0000      -0.624156       -16.9841
 116   2.0000      -0.623429       -16.9644
 117   2.0000      -0.615006       -16.7352
 118   2.0000      -0.612372       -16.6635
 119   2.0000      -0.609530       -16.5862
 120   2.0000      -0.609256       -16.5787
 121   2.0000      -0.603753       -16.4290
 122   2.0000      -0.597874       -16.2690
 123   2.0000      -0.592179       -16.1140
 124   2.0000      -0.591435       -16.0938
 125   2.0000      -0.583815       -15.8864
 126   2.0000      -0.579295       -15.7634
 127   2.0000      -0.573503       -15.6058
 128   2.0000      -0.569172       -15.4880
 129   2.0000      -0.560250       -15.2452
 130   2.0000      -0.553791       -15.0694
 131   2.0000      -0.546623       -14.8744
 132   2.0000      -0.540817       -14.7164
 133   2.0000      -0.536103       -14.5881
 134   2.0000      -0.534312       -14.5394
 135   2.0000      -0.528994       -14.3946
 136   2.0000      -0.525789       -14.3075
 137   2.0000      -0.522874       -14.2281
 138   2.0000      -0.520510       -14.1638
 139   2.0000      -0.516107       -14.0440
 140   2.0000      -0.510789       -13.8993
 141   2.0000      -0.506194       -13.7742
 142   2.0000      -0.505246       -13.7484
 143   2.0000      -0.501475       -13.6458
 144   2.0000      -0.500226       -13.6118
 145   2.0000      -0.498359       -13.5610
 146   2.0000      -0.495731       -13.4895
 147   2.0000      -0.492141       -13.3918
 148   2.0000      -0.490380       -13.3439
 149   2.0000      -0.469471       -12.7750
 150   2.0000      -0.461328       -12.5534
 151   2.0000      -0.452949       -12.3254
 152   2.0000      -0.448134       -12.1944
 153   2.0000      -0.446836       -12.1590
 154   2.0000      -0.446123       -12.1396
 155   2.0000      -0.439606       -11.9623
 156   2.0000      -0.435467       -11.8497
 157   2.0000      -0.430858       -11.7242
 158   2.0000      -0.393747       -10.7144
 159   2.0000      -0.384964       -10.4754
 160   2.0000      -0.377941       -10.2843
 161   2.0000      -0.372167       -10.1272
 162   2.0000      -0.366684        -9.9780
 163   2.0000      -0.358688        -9.7604
 164   2.0000      -0.354027        -9.6336
 165   2.0000      -0.343212        -9.3393
 166   2.0000      -0.337132        -9.1738
 167   2.0000      -0.334076        -9.0907
 168   2.0000      -0.328978        -8.9520
 169   2.0000      -0.300320        -8.1721
 170   2.0000      -0.297202        -8.0873
 171   2.0000      -0.288614        -7.8536
 172   2.0000      -0.287018        -7.8101
 173   2.0000      -0.256791        -6.9876
 174   2.0000      -0.247876        -6.7451
 175   2.0000      -0.188632        -5.1329
 176   2.0000      -0.178636        -4.8609
 177   2.0000      -0.068307        -1.8587
 178   2.0000      -0.055239        -1.5031
 179   0.0000       0.030321         0.8251
 180   0.0000       0.070230         1.9111
 181   0.0000       0.092712         2.5228
 182   0.0000       0.099262         2.7011
 183   0.0000       0.127433         3.4676

MULLIKEN ATOMIC CHARGES
-----------------------
   0 C :    0.206407
   1 N :   -0.447372
   2 C :   -0.063114
   3 N :   -0.336522
   4 C :   -0.056899
   5 N :   -0.563057
   6 C :   -0.082054
   7 N :   -0.338530
   8 C :    0.205865
   9 N :   -0.562960
  10 C :    0.116264
  11 N :   -0.437646
  12 C :   -0.076572
  13 N :   -0.436721
  14 C :    0.244757
  15 N :   -0.440744
  16 C :    0.230768
  17 C :   -0.086993
  18 C :   -0.216304
  19 C :    0.240532
  20 C :    0.209799
  21 C :   -0.090340
  22 C :   -0.088401
  23 C :   -0.045705
  24 C :    0.201740
  25 C :    0.114066
  26 C :   -0.072257
  27 C :    0.218893
  28 C :   -0.055497
  29 C :   -0.183484
  30 C :    0.238869
  31 C :    0.216633
  32 C :   -0.064470
  33 C :   -0.074968
  34 C :   -0.050606
  35 C :    0.211741
  36 C :    0.112326
  37 C :   -0.066120
  38 C :    0.234980
  39 C :   -0.060043
  40 C :   -0.187057
  41 C :    0.222935
  42 C :    0.201484
  43 C :   -0.073008
  44 C :   -0.089050
  45 C :   -0.055228
  46 C :    0.206076
  47 C :    0.115485
  48 C :   -0.071890
  49 C :    0.230199
  50 C :   -0.050898
  51 C :   -0.189318
  52 H :    0.049127
  53 H :   -0.014703
  54 H :    0.050464
  55 H :    0.048068
  56 H :    0.055709
  57 H :    0.053869
  58 H :    0.052569
  59 H :   -0.007323
  60 H :    0.046042
  61 H :    0.172340
  62 H :    0.173573
  63 H :    0.056215
  64 H :   -0.014457
  65 H :    0.047413
  66 H :    0.057183
  67 H :    0.062621
  68 H :    0.057983
  69 H :    0.058091
  70 H :   -0.025847
  71 H :    0.046798
  72 H :    0.060941
  73 H :   -0.012324
  74 H :    0.050821
  75 H :    0.060105
  76 H :    0.065863
  77 H :    0.061112
  78 H :    0.060376
  79 H :   -0.014785
  80 H :    0.051412
  81 H :    0.053691
  82 H :   -0.023701
  83 H :    0.042968
  84 H :    0.053700
  85 H :    0.059763
  86 H :    0.056177
  87 H :    0.056816
  88 H :   -0.019329
  89 H :    0.044671
Sum of atomic charges:   -0.0000000

LOEWDIN ATOMIC CHARGES
----------------------
   0 C :   -0.011073
   1 N :    0.128478
   2 C :   -0.100483
   3 N :    0.180545
   4 C :    0.020375
   5 N :   -0.136462
   6 C :   -0.027728
   7 N :    0.177188
   8 C :   -0.011765
   9 N :   -0.139641
  10 C :    0.027017
  11 N :    0.143935
  12 C :   -0.104699
  13 N :    0.149143
  14 C :   -0.039252
  15 N :    0.138784
  16 C :   -0.051154
  17 C :   -0.031892
  18 C :   -0.105947
  19 C :   -0.085253
  20 C :    0.001922
  21 C :   -0.109547
  22 C :    0.040750
  23 C :   -0.018125
  24 C :   -0.004878
  25 C :    0.030253
  26 C :   -0.103587
  27 C :   -0.101968
  28 C :   -0.023256
  29 C :   -0.105334
  30 C :   -0.040545
  31 C :    0.008273
  32 C :   -0.098272
  33 C :    0.053018
  34 C :   -0.018466
  35 C :    0.004158
  36 C :    0.031374
  37 C :   -0.099164
  38 C :   -0.045282
  39 C :   -0.022735
  40 C :   -0.108751
  41 C :   -0.092262
  42 C :   -0.007073
  43 C :   -0.102676
  44 C :    0.033941
  45 C :   -0.024041
  46 C :   -0.002879
  47 C :    0.029391
  48 C :   -0.100949
  49 C :   -0.083234
  50 C :   -0.021982
  51 C :   -0.108144
  52 H :    0.027373
  53 H :    0.003995
  54 H :    0.043362
  55 H :    0.027225
  56 H :    0.024931
  57 H :    0.029204
  58 H :    0.029259
  59 H :    0.005825
  60 H :    0.041606
  61 H :    0.060430
  62 H :    0.060880
  63 H :    0.030967
  64 H :    0.000742
  65 H :    0.045685
  66 H :    0.030203
  67 H :    0.028395
  68 H :    0.031964
  69 H :    0.031042
  70 H :   -0.002684
  71 H :    0.044660
  72 H :    0.032847
  73 H :    0.005033
  74 H :    0.046646
  75 H :    0.032259
  76 H :    0.030108
  77 H :    0.032945
  78 H :    0.032626
  79 H :    0.003879
  80 H :    0.046411
  81 H :    0.028943
  82 H :   -0.002040
  83 H :    0.043304
  84 H :    0.029467
  85 H :    0.026876
  86 H :    0.030423
  87 H :    0.031212
  88 H :    0.000075
  89 H :    0.043879

  Mayer bond orders larger than 0.100000
B(  0-C ,  1-N ) :   1.1057 B(  0-C , 17-C ) :   1.6602 B(  0-C , 52-H ) :   0.9693
B(  1-N ,  8-C ) :   1.1017 B(  1-N , 10-C ) :   0.9681 B(  2-C , 12-C ) :   1.5272
B(  2-C , 16-C ) :   1.3350 B(  2-C , 53-H ) :   0.9772 B(  3-N , 14-C ) :   1.2091
B(  3-N , 16-C ) :   1.1942 B(  3-N , 61-H ) :   0.8986 B(  4-C ,  6-C ) :   1.2414
B(  4-C , 17-C ) :   1.2446 B(  4-C , 18-C ) :   1.3334 B(  5-N , 19-C ) :   1.4321
B(  5-N , 27-C ) :   1.3949 B(  6-C ,  8-C ) :   1.6641 B(  6-C , 54-H ) :   0.9687
B(  7-N , 30-C ) :   1.1948 B(  7-N , 38-C ) :   1.1980 B(  7-N , 62-H ) :   0.8979
B(  8-C , 55-H ) :   0.9694 B(  9-N , 41-C ) :   1.4041 B(  9-N , 49-C ) :   1.4182
B( 10-C , 56-H ) :   0.9764 B( 10-C , 57-H ) :   0.9819 B( 10-C , 58-H ) :   0.9839
B( 11-N , 20-C ) :   1.1271 B( 11-N , 24-C ) :   1.1176 B( 11-N , 25-C ) :   0.9587
B( 12-C , 14-C ) :   1.3363 B( 12-C , 59-H ) :   0.9754 B( 13-N , 31-C ) :   1.1349
B( 13-N , 35-C ) :   1.1298 B( 13-N , 36-C ) :   0.9542 B( 14-C , 18-C ) :   1.1712
B( 15-N , 42-C ) :   1.1133 B( 15-N , 46-C ) :   1.1176 B( 15-N , 47-C ) :   0.9618
B( 16-C , 51-C ) :   1.1894 B( 17-C , 60-H ) :   0.9698 B( 18-C , 19-C ) :   1.1848
B( 19-C , 21-C ) :   1.2207 B( 20-C , 28-C ) :   1.6246 B( 20-C , 63-H ) :   0.9703
B( 21-C , 26-C ) :   1.6348 B( 21-C , 64-H ) :   0.9703 B( 22-C , 23-C ) :   1.2862
B( 22-C , 28-C ) :   1.2712 B( 22-C , 29-C ) :   1.2260 B( 23-C , 24-C ) :   1.6184
B( 23-C , 65-H ) :   0.9707 B( 24-C , 66-H ) :   0.9692 B( 25-C , 67-H ) :   0.9761
B( 25-C , 68-H ) :   0.9829 B( 25-C , 69-H ) :   0.9822 B( 26-C , 27-C ) :   1.2190
B( 26-C , 70-H ) :   0.9727 B( 27-C , 29-C ) :   1.2274 B( 28-C , 71-H ) :   0.9716
B( 29-C , 30-C ) :   1.2189 B( 30-C , 32-C ) :   1.3043 B( 31-C , 39-C ) :   1.6178
B( 31-C , 72-H ) :   0.9692 B( 32-C , 37-C ) :   1.5540 B( 32-C , 73-H ) :   0.9781
B( 33-C , 34-C ) :   1.2847 B( 33-C , 39-C ) :   1.2789 B( 33-C , 40-C ) :   1.2270
B( 34-C , 35-C ) :   1.6148 B( 34-C , 74-H ) :   0.9702 B( 35-C , 75-H ) :   0.9692
B( 36-C , 76-H ) :   0.9764 B( 36-C , 77-H ) :   0.9819 B( 36-C , 78-H ) :   0.9829
B( 37-C , 38-C ) :   1.3067 B( 37-C , 79-H ) :   0.9774 B( 38-C , 40-C ) :   1.2141
B( 39-C , 80-H ) :   0.9712 B( 40-C , 41-C ) :   1.2292 B( 41-C , 43-C ) :   1.2039
B( 42-C , 50-C ) :   1.6330 B( 42-C , 81-H ) :   0.9696 B( 43-C , 48-C ) :   1.6481
B( 43-C , 82-H ) :   0.9733 B( 44-C , 45-C ) :   1.2688 B( 44-C , 50-C ) :   1.2690
B( 44-C , 51-C ) :   1.2560 B( 45-C , 46-C ) :   1.6330 B( 45-C , 83-H ) :   0.9714
B( 46-C , 84-H ) :   0.9701 B( 47-C , 85-H ) :   0.9761 B( 47-C , 86-H ) :   0.9828
B( 47-C , 87-H ) :   0.9825 B( 48-C , 49-C ) :   1.2049 B( 48-C , 88-H ) :   0.9742
B( 49-C , 51-C ) :   1.2279 B( 50-C , 89-H ) :   0.9712

MP2 TOTAL ENERGY:    -2130.913288316 Eh
FINAL SINGLE POINT ENERGY     -2130.913288315587

DIPOLE MOMENT
-------------
                                X             Y             Z
Electronic contribution:      0.76927      -1.81537      -0.13237
Nuclear contribution   :     -0.05027       0.15193       0.16369
                        -----------------------------------------
Total Dipole Moment    :      0.71899      -1.66344       0.03132
                        -----------------------------------------
Magnitude (a.u.)       :      1.81245
Magnitude (Debye)      :      4.60688

Rotational constants in cm-1:     0.001500     0.001475     0.000762
Rotational constants in MHz :    44.962936    44.208791    22.833652

                             ****ORCA TERMINATED NORMALLY****
TOTAL RUN TIME: 0 days 1 hours 33 minutes 13 seconds 94 msec
