                         Program Version 5.0.4 -  RELEASE  -
|  1> ! PAL2
|  2> ! mp2 cc-pvdz TightSCF  NoKeepInts
|  3>
|  4> %scf
|  5>   MaxCore 2000
|  6> end
|  7> %mp2
|  8>   MaxCore 2000
|  9> end
| 10> * xyz 0 1
| 11>    C       -3.03700         6.49400        -0.00100
| 12>    C        1.47400         4.04100         0.05700
| 13>    C       -2.80200         4.09300         0.04900
| 14>    C       -4.19800         4.01000         0.16600
| 15>    C       -4.96100         5.16000         0.19300
| 16>    C       -5.22900         7.59100         0.10600
| 17>    C        0.13200         4.30700         0.06100
| 18>    C       -0.56900         3.05600         0.04700
| 19>    C        1.64900         2.61800         0.02300
| 20>    C       -2.23200         5.37200        -0.03800
| 21>    N       -4.38000         6.37900         0.11300
| 22>    N        0.38800         2.06700         0.02500
| 23>    N       -2.01000         0.39500        -0.07500
| 24>    N       -0.38800        -2.07400        -0.02700
| 25>    N        2.01000        -0.40100         0.06500
| 26>    C       -1.96000         2.86100         0.02400
| 27>    C       -2.62300         1.61500        -0.01800
| 28>    C       -5.57300        -4.32900         1.06600
| 29>    C       -4.07300         1.47100         0.05600
| 30>    C       -4.10600        -2.75600        -0.02600
| 31>    C       -4.99500        -2.75700        -1.11100
| 32>    C       -6.13200        -3.54200        -1.07600
| 33>    C       -7.65100        -5.11300         0.04000
| 34>    C       -4.32400         0.14100         0.03700
| 35>    C       -3.02500        -0.52000        -0.04800
| 36>    C       -4.42200        -3.56600         1.07500
| 37>    N       -6.40700        -4.31300         0.00100
| 38>    C       -2.86700        -1.92200        -0.04000
| 39>    C       -1.65000        -2.62400        -0.02700
| 40>    C        3.56800        -6.14200        -1.04000
| 41>    C       -1.47600        -4.04900        -0.03400
| 42>    C        2.80300        -4.09900        -0.00800
| 43>    C        3.65700        -4.38400         1.06900
| 44>    C        4.42700        -5.53000         1.05900
| 45>    C        5.24500        -7.58800         0.01400
| 46>    C       -0.13400        -4.31500        -0.02200
| 47>    C        0.56800        -3.06400        -0.02700
| 48>    C        2.77500        -5.01200        -1.07400
| 49>    N        4.37600        -6.39100         0.01700
| 50>    C        1.95900        -2.86900        -0.00900
| 51>    C        2.62100        -1.62200         0.00900
| 52>    C        5.54300         4.33900        -1.13000
| 53>    C        4.07000        -1.47900        -0.09400
| 54>    C        4.10400         2.75100        -0.02100
| 55>    C        5.02700         2.72900         1.03600
| 56>    C        6.16600         3.50900         0.97800
| 57>    C        7.61900         5.15300        -0.11500
| 58>    C        4.32100        -0.14800        -0.09200
| 59>    C        3.02500         0.51400         0.01500
| 60>    C        4.38700         3.58200        -1.11500
| 61>    C        2.86600         1.91600         0.01300
| 62>    N        6.41300         4.29600        -0.09500
| 63>    H       -2.64000         7.50100        -0.05200
| 64>    H        2.27400         4.76600         0.08100
| 65>    H       -4.69800         3.05100         0.22700
| 66>    H       -6.04100         5.14600         0.27300
| 67>    H       -5.55100         7.79400        -0.91700
| 68>    H       -6.09400         7.41700         0.74500
| 69>    H       -4.64600         8.43000         0.48800
| 70>    H       -0.33200         5.28200         0.06900
| 71>    H       -1.15900         5.50300        -0.11600
| 72>    H        0.18200         1.07200         0.00500
| 73>    H       -0.18300        -1.08000        -0.02100
| 74>    H       -5.86400        -4.96200         1.89500
| 75>    H       -4.79400         2.27200         0.13900
| 76>    H       -4.80000        -2.16000        -1.99400
| 77>    H       -6.84100        -3.58200        -1.89300
| 78>    H       -8.42800        -4.53600         0.54600
| 79>    H       -7.95600        -5.33700        -0.98100
| 80>    H       -7.45600        -6.03700         0.58400
| 81>    H       -5.28700        -0.34400         0.10000
| 82>    H       -3.78000        -3.60100         1.94700
| 83>    H        3.58700        -6.86800        -1.84300
| 84>    H       -2.27600        -4.77400        -0.05000
| 85>    H        3.71400        -3.72400         1.92600
| 86>    H        5.09200        -5.79500         1.87100
| 87>    H        6.20500        -7.32900        -0.43900
| 88>    H        5.39300        -7.91700         1.04200
| 89>    H        4.75900        -8.37300        -0.56400
| 90>    H        0.32900        -5.29000        -0.00800
| 91>    H        2.14600        -4.84200        -1.94000
| 92>    H        5.80800         4.98600        -1.95600
| 93>    H        4.78800        -2.28100        -0.18500
| 94>    H        4.86000         2.11400         1.91200
| 95>    H        6.90100         3.53100         1.77200
| 96>    H        7.38300         6.10900         0.35600
| 97>    H        8.41400         4.65200         0.43500
| 98>    H        7.92100         5.31000        -1.15000
| 99>    H        5.28300         0.33600        -0.17900
|100>    H        3.72000         3.63200        -1.96700
|101> *
|102>
|103>                          ****END OF INPUT****

CARTESIAN COORDINATES (ANGSTROEM)
---------------------------------
  C     -3.037000    6.494000   -0.001000
  C      1.474000    4.041000    0.057000
  C     -2.802000    4.093000    0.049000
  C     -4.198000    4.010000    0.166000
  C     -4.961000    5.160000    0.193000
  C     -5.229000    7.591000    0.106000
  C      0.132000    4.307000    0.061000
  C     -0.569000    3.056000    0.047000
  C      1.649000    2.618000    0.023000
  C     -2.232000    5.372000   -0.038000
  N     -4.380000    6.379000    0.113000
  N      0.388000    2.067000    0.025000
  N     -2.010000    0.395000   -0.075000
  N     -0.388000   -2.074000   -0.027000
  N      2.010000   -0.401000    0.065000
  C     -1.960000    2.861000    0.024000
  C     -2.623000    1.615000   -0.018000
  C     -5.573000   -4.329000    1.066000
  C     -4.073000    1.471000    0.056000
  C     -4.106000   -2.756000   -0.026000
  C     -4.995000   -2.757000   -1.111000
  C     -6.132000   -3.542000   -1.076000
  C     -7.651000   -5.113000    0.040000
  C     -4.324000    0.141000    0.037000
  C     -3.025000   -0.520000   -0.048000
  C     -4.422000   -3.566000    1.075000
  N     -6.407000   -4.313000    0.001000
  C     -2.867000   -1.922000   -0.040000
  C     -1.650000   -2.624000   -0.027000
  C      3.568000   -6.142000   -1.040000
  C     -1.476000   -4.049000   -0.034000
  C      2.803000   -4.099000   -0.008000
  C      3.657000   -4.384000    1.069000
  C      4.427000   -5.530000    1.059000
  C      5.245000   -7.588000    0.014000
  C     -0.134000   -4.315000   -0.022000
  C      0.568000   -3.064000   -0.027000
  C      2.775000   -5.012000   -1.074000
  N      4.376000   -6.391000    0.017000
  C      1.959000   -2.869000   -0.009000
  C      2.621000   -1.622000    0.009000
  C      5.543000    4.339000   -1.130000
  C      4.070000   -1.479000   -0.094000
  C      4.104000    2.751000   -0.021000
  C      5.027000    2.729000    1.036000
  C      6.166000    3.509000    0.978000
  C      7.619000    5.153000   -0.115000
  C      4.321000   -0.148000   -0.092000
  C      3.025000    0.514000    0.015000
  C      4.387000    3.582000   -1.115000
  C      2.866000    1.916000    0.013000
  N      6.413000    4.296000   -0.095000
  H     -2.640000    7.501000   -0.052000
  H      2.274000    4.766000    0.081000
  H     -4.698000    3.051000    0.227000
  H     -6.041000    5.146000    0.273000
  H     -5.551000    7.794000   -0.917000
  H     -6.094000    7.417000    0.745000
  H     -4.646000    8.430000    0.488000
  H     -0.332000    5.282000    0.069000
  H     -1.159000    5.503000   -0.116000
  H      0.182000    1.072000    0.005000
  H     -0.183000   -1.080000   -0.021000
  H     -5.864000   -4.962000    1.895000
  H     -4.794000    2.272000    0.139000
  H     -4.800000   -2.160000   -1.994000
  H     -6.841000   -3.582000   -1.893000
  H     -8.428000   -4.536000    0.546000
  H     -7.956000   -5.337000   -0.981000
  H     -7.456000   -6.037000    0.584000
  H     -5.287000   -0.344000    0.100000
  H     -3.780000   -3.601000    1.947000
  H      3.587000   -6.868000   -1.843000
  H     -2.276000   -4.774000   -0.050000
  H      3.714000   -3.724000    1.926000
  H      5.092000   -5.795000    1.871000
  H      6.205000   -7.329000   -0.439000
  H      5.393000   -7.917000    1.042000
  H      4.759000   -8.373000   -0.564000
  H      0.329000   -5.290000   -0.008000
  H      2.146000   -4.842000   -1.940000
  H      5.808000    4.986000   -1.956000
  H      4.788000   -2.281000   -0.185000
  H      4.860000    2.114000    1.912000
  H      6.901000    3.531000    1.772000
  H      7.383000    6.109000    0.356000
  H      8.414000    4.652000    0.435000
  H      7.921000    5.310000   -1.150000
  H      5.283000    0.336000   -0.179000
  H      3.720000    3.632000   -1.967000

 Total Charge           Charge          ....    0
 Multiplicity           Mult            ....    1
 Number of Electrons    NEL             ....  358
 Basis Dimension        Dim             ....  918

ORBITAL ENERGIES
----------------

  NO   OCC          E(Eh)            E(eV)
   0   2.0000     -15.679759      -426.6679
   1   2.0000     -15.632872      -425.3921
   2   2.0000     -15.632670      -425.3866
   3   2.0000     -15.588236      -424.1775
   4   2.0000     -15.524794      -422.4511
   5   2.0000     -15.515386      -422.1951
   6   2.0000     -15.453901      -420.5220
   7   2.0000     -15.439337      -420.1257
   8   2.0000     -11.329273      -308.2852
   9   2.0000     -11.328442      -308.2626
  10   2.0000     -11.327899      -308.2478
  11   2.0000     -11.298891      -307.4585
  12   2.0000     -11.298667      -307.4524
  13   2.0000     -11.292120      -307.2742
  14   2.0000     -11.291945      -307.2695
  15   2.0000     -11.287189      -307.1400
  16   2.0000     -11.285576      -307.0961
  17   2.0000     -11.281990      -306.9985
  18   2.0000     -11.269597      -306.6613
  19   2.0000     -11.263279      -306.4894
  20   2.0000     -11.262278      -306.4622
  21   2.0000     -11.251501      -306.1689
  22   2.0000     -11.247635      -306.0637
  23   2.0000     -11.237391      -305.7850
  24   2.0000     -11.236697      -305.7661
  25   2.0000     -11.230353      -305.5934
  26   2.0000     -11.230339      -305.5931
  27   2.0000     -11.230186      -305.5889
  28   2.0000     -11.229638      -305.5740
  29   2.0000     -11.210679      -305.0581
  30   2.0000     -11.209196      -305.0177
  31   2.0000     -11.194103      -304.6070
  32   2.0000     -11.192217      -304.5557
  33   2.0000     -11.191197      -304.5279
  34   2.0000     -11.188667      -304.4591
  35   2.0000     -11.188076      -304.4430
  36   2.0000     -11.187147      -304.4178
  37   2.0000     -11.174307      -304.0683
  38   2.0000     -11.171898      -304.0028
  39   2.0000     -11.171731      -303.9983
  40   2.0000     -11.171315      -303.9869
  41   2.0000     -11.167930      -303.8948
  42   2.0000     -11.165906      -303.8397
  43   2.0000     -11.162028      -303.7342
  44   2.0000     -11.161136      -303.7100
  45   2.0000     -11.156993      -303.5972
  46   2.0000     -11.156190      -303.5754
  47   2.0000     -11.150729      -303.4268
  48   2.0000     -11.147317      -303.3339
  49   2.0000     -11.135659      -303.0167
  50   2.0000     -11.129567      -302.8509
  51   2.0000     -11.117975      -302.5355
  52   2.0000      -1.360342       -37.0168
  53   2.0000      -1.320330       -35.9280
  54   2.0000      -1.320286       -35.9268
  55   2.0000      -1.280216       -34.8365
  56   2.0000      -1.225848       -33.3570
  57   2.0000      -1.210377       -32.9360
  58   2.0000      -1.173599       -31.9353
  59   2.0000      -1.150695       -31.3120
  60   2.0000      -1.143593       -31.1188
  61   2.0000      -1.110247       -30.2114
  62   2.0000      -1.108816       -30.1724
  63   2.0000      -1.082020       -29.4433
  64   2.0000      -1.077532       -29.3211
  65   2.0000      -1.044937       -28.4342
  66   2.0000      -1.044530       -28.4231
  67   2.0000      -1.041023       -28.3277
  68   2.0000      -1.015141       -27.6234
  69   2.0000      -1.014791       -27.6139
  70   2.0000      -1.009112       -27.4593
  71   2.0000      -0.993234       -27.0273
  72   2.0000      -0.985671       -26.8215
  73   2.0000      -0.981682       -26.7129
  74   2.0000      -0.973953       -26.5026
  75   2.0000      -0.962449       -26.1896
  76   2.0000      -0.955019       -25.9874
  77   2.0000      -0.947009       -25.7694
  78   2.0000      -0.939980       -25.5782
  79   2.0000      -0.916743       -24.9458
  80   2.0000      -0.910557       -24.7775
  81   2.0000      -0.898369       -24.4459
  82   2.0000      -0.877195       -23.8697
  83   2.0000      -0.871683       -23.7197
  84   2.0000      -0.871225       -23.7072
  85   2.0000      -0.861746       -23.4493
  86   2.0000      -0.846511       -23.0347
  87   2.0000      -0.837791       -22.7975
  88   2.0000      -0.829450       -22.5705
  89   2.0000      -0.796304       -21.6685
  90   2.0000      -0.789388       -21.4803
  91   2.0000      -0.775385       -21.0993
  92   2.0000      -0.752993       -20.4900
  93   2.0000      -0.734059       -19.9747
  94   2.0000      -0.728819       -19.8322
  95   2.0000      -0.727074       -19.7847
  96   2.0000      -0.720468       -19.6049
  97   2.0000      -0.717928       -19.5358
  98   2.0000      -0.714342       -19.4382
  99   2.0000      -0.700234       -19.0543
 100   2.0000      -0.698188       -18.9987
 101   2.0000      -0.694745       -18.9050
 102   2.0000      -0.685343       -18.6491
 103   2.0000      -0.684315       -18.6212
 104   2.0000      -0.678765       -18.4701
 105   2.0000      -0.674530       -18.3549
 106   2.0000      -0.672871       -18.3097
 107   2.0000      -0.661061       -17.9884
 108   2.0000      -0.658119       -17.9083
 109   2.0000      -0.652762       -17.7626
 110   2.0000      -0.652060       -17.7435
 111   2.0000      -0.646162       -17.5830
 112   2.0000      -0.645724       -17.5710
 113   2.0000      -0.637966       -17.3599
 114   2.0000      -0.635454       -17.2916
 115   2.0000      -0.628931       -17.1141
 116   2.0000      -0.623333       -16.9617
 117   2.0000      -0.620812       -16.8932
 118   2.0000      -0.612780       -16.6746
 119   2.0000      -0.612115       -16.6565
 120   2.0000      -0.611618       -16.6430
 121   2.0000      -0.611458       -16.6386
 122   2.0000      -0.601668       -16.3722
 123   2.0000      -0.589282       -16.0352
 124   2.0000      -0.581291       -15.8177
 125   2.0000      -0.580905       -15.8072
 126   2.0000      -0.580201       -15.7881
 127   2.0000      -0.571050       -15.5391
 128   2.0000      -0.566573       -15.4172
 129   2.0000      -0.560006       -15.2385
 130   2.0000      -0.555490       -15.1156
 131   2.0000      -0.547716       -14.9041
 132   2.0000      -0.542646       -14.7661
 133   2.0000      -0.540104       -14.6970
 134   2.0000      -0.538399       -14.6506
 135   2.0000      -0.536391       -14.5960
 136   2.0000      -0.531860       -14.4726
 137   2.0000      -0.518160       -14.0999
 138   2.0000      -0.516443       -14.0531
 139   2.0000      -0.514486       -13.9999
 140   2.0000      -0.512081       -13.9344
 141   2.0000      -0.509843       -13.8735
 142   2.0000      -0.507129       -13.7997
 143   2.0000      -0.505787       -13.7632
 144   2.0000      -0.502551       -13.6751
 145   2.0000      -0.495591       -13.4857
 146   2.0000      -0.488227       -13.2853
 147   2.0000      -0.481042       -13.0898
 148   2.0000      -0.476723       -12.9723
 149   2.0000      -0.467768       -12.7286
 150   2.0000      -0.466181       -12.6854
 151   2.0000      -0.456373       -12.4186
 152   2.0000      -0.451594       -12.2885
 153   2.0000      -0.445141       -12.1129
 154   2.0000      -0.437967       -11.9177
 155   2.0000      -0.427754       -11.6398
 156   2.0000      -0.409189       -11.1346
 157   2.0000      -0.390901       -10.6370
 158   2.0000      -0.387987       -10.5577
 159   2.0000      -0.386667       -10.5217
 160   2.0000      -0.378451       -10.2982
 161   2.0000      -0.372728       -10.1424
 162   2.0000      -0.357436        -9.7263
 163   2.0000      -0.356560        -9.7025
 164   2.0000      -0.355764        -9.6808
 165   2.0000      -0.341929        -9.3044
 166   2.0000      -0.337515        -9.1843
 167   2.0000      -0.324555        -8.8316
 168   2.0000      -0.321709        -8.7541
 169   2.0000      -0.305030        -8.3003
 170   2.0000      -0.299361        -8.1460
 171   2.0000      -0.285968        -7.7816
 172   2.0000      -0.278244        -7.5714
 173   2.0000      -0.263630        -7.1737
 174   2.0000      -0.242238        -6.5916
 175   2.0000      -0.189948        -5.1688
 176   2.0000      -0.181359        -4.9350
 177   2.0000      -0.080025        -2.1776
 178   2.0000      -0.059704        -1.6246
 179   0.0000       0.028492         0.7753
 180   0.0000       0.065445         1.7808
 181   0.0000       0.090245         2.4557
 182   0.0000       0.106312         2.8929
 183   0.0000       0.116969         3.1829

MULLIKEN ATOMIC CHARGES
-----------------------
   0 C :    0.225772
   1 N :   -0.454929
   2 C :   -0.067591
   3 N :   -0.341426
   4 C :   -0.121213
   5 N :   -0.568775
   6 C :   -0.090114
   7 N :   -0.341066
   8 C :    0.218262
   9 N :   -0.562272
  10 C :    0.119591
  11 N :   -0.438682
  12 C :   -0.054045
  13 N :   -0.429359
  14 C :    0.214890
  15 N :   -0.440709
  16 C :    0.233600
  17 C :   -0.105113
  18 C :   -0.181292
  19 C :    0.213634
  20 C :    0.213290
  21 C :   -0.058207
  22 C :   -0.091140
  23 C :   -0.039578
  24 C :    0.192842
  25 C :    0.114753
  26 C :   -0.081672
  27 C :    0.219166
  28 C :   -0.061930
  29 C :   -0.183011
  30 C :    0.245444
  31 C :    0.230025
  32 C :   -0.061424
  33 C :   -0.059957
  34 C :   -0.051562
  35 C :    0.229050
  36 C :    0.108199
  37 C :   -0.064607
  38 C :    0.230885
  39 C :   -0.057336
  40 C :   -0.181944
  41 C :    0.226416
  42 C :    0.197446
  43 C :   -0.072624
  44 C :   -0.089213
  45 C :   -0.061666
  46 C :    0.212281
  47 C :    0.115236
  48 C :   -0.066386
  49 C :    0.238151
  50 C :   -0.045998
  51 C :   -0.192478
  52 H :    0.033487
  53 H :   -0.018770
  54 H :    0.068673
  55 H :    0.030861
  56 H :    0.049382
  57 H :    0.047620
  58 H :    0.046451
  59 H :   -0.019651
  60 H :    0.050918
  61 H :    0.171070
  62 H :    0.175366
  63 H :    0.054867
  64 H :   -0.046175
  65 H :    0.046655
  66 H :    0.055116
  67 H :    0.062031
  68 H :    0.056959
  69 H :    0.056082
  70 H :   -0.031082
  71 H :    0.044403
  72 H :    0.071442
  73 H :   -0.007917
  74 H :    0.060515
  75 H :    0.070928
  76 H :    0.075068
  77 H :    0.068103
  78 H :    0.067444
  79 H :   -0.016892
  80 H :    0.061510
  81 H :    0.054709
  82 H :   -0.024869
  83 H :    0.042278
  84 H :    0.054577
  85 H :    0.061176
  86 H :    0.055769
  87 H :    0.057475
  88 H :   -0.014417
  89 H :    0.047227
Sum of atomic charges:    0.0000000

LOEWDIN ATOMIC CHARGES
----------------------
   0 C :   -0.016154
   1 N :    0.122879
   2 C :   -0.099735
   3 N :    0.182198
   4 C :   -0.010098
   5 N :   -0.134873
   6 C :   -0.010259
   7 N :    0.174993
   8 C :   -0.022776
   9 N :   -0.140622
  10 C :    0.022842
  11 N :    0.141237
  12 C :   -0.094852
  13 N :    0.166464
  14 C :   -0.014618
  15 N :    0.139375
  16 C :   -0.061479
  17 C :   -0.026006
  18 C :   -0.115676
  19 C :   -0.072697
  20 C :    0.004265
  21 C :   -0.091510
  22 C :    0.036259
  23 C :   -0.014685
  24 C :   -0.013672
  25 C :    0.029648
  26 C :   -0.107349
  27 C :   -0.117138
  28 C :   -0.027968
  29 C :   -0.099286
  30 C :   -0.029855
  31 C :    0.024242
  32 C :   -0.094343
  33 C :    0.082514
  34 C :   -0.015363
  35 C :    0.023727
  36 C :    0.035289
  37 C :   -0.094278
  38 C :   -0.052643
  39 C :   -0.017342
  40 C :   -0.109215
  41 C :   -0.090456
  42 C :   -0.010200
  43 C :   -0.099313
  44 C :    0.034608
  45 C :   -0.028169
  46 C :    0.002717
  47 C :    0.029635
  48 C :   -0.094376
  49 C :   -0.069635
  50 C :   -0.018368
  51 C :   -0.107837
  52 H :    0.022154
  53 H :    0.002422
  54 H :   -0.024985
  55 H :    0.021576
  56 H :    0.021817
  57 H :    0.026219
  58 H :    0.026746
  59 H :    0.001551
  60 H :   -0.010549
  61 H :    0.060284
  62 H :    0.061863
  63 H :    0.030546
  64 H :   -0.002495
  65 H :    0.045712
  66 H :    0.028988
  67 H :    0.028021
  68 H :    0.031498
  69 H :    0.030159
  70 H :   -0.004952
  71 H :    0.043298
  72 H :    0.037761
  73 H :    0.007188
  74 H :    0.050713
  75 H :    0.037497
  76 H :    0.034884
  77 H :    0.036237
  78 H :    0.035937
  79 H :    0.002826
  80 H :    0.050860
  81 H :    0.029225
  82 H :   -0.002739
  83 H :    0.042644
  84 H :    0.030077
  85 H :    0.027540
  86 H :    0.030288
  87 H :    0.031526
  88 H :    0.002431
  89 H :    0.045183

  Mayer bond orders larger than 0.100000
B(  0-C ,  1-N ) :   1.1035 B(  0-C , 17-C ) :   1.7225 B(  0-C , 52-H ) :   0.9595
B(  1-N ,  8-C ) :   1.0917 B(  1-N , 10-C ) :   0.9771 B(  2-C , 12-C ) :   1.4861
B(  2-C , 16-C ) :   1.3771 B(  2-C , 53-H ) :   0.9707 B(  3-N , 14-C ) :   1.2252
B(  3-N , 16-C ) :   1.1772 B(  3-N , 61-H ) :   0.8977 B(  4-C ,  6-C ) :   1.2276
B(  4-C , 17-C ) :   1.2291 B(  4-C , 18-C ) :   1.4872 B(  5-N , 19-C ) :   1.4658
B(  5-N , 27-C ) :   1.3677 B(  6-C ,  8-C ) :   1.7396 B(  6-C , 54-H ) :   0.8348
B(  7-N , 30-C ) :   1.1952 B(  7-N , 38-C ) :   1.1895 B(  7-N , 62-H ) :   0.8968
B(  8-C , 55-H ) :   0.9592 B(  9-N , 41-C ) :   1.3956 B(  9-N , 49-C ) :   1.4237
B( 10-C , 56-H ) :   0.9777 B( 10-C , 57-H ) :   0.9823 B( 10-C , 58-H ) :   0.9837
B( 11-N , 20-C ) :   1.1304 B( 11-N , 24-C ) :   1.1057 B( 11-N , 25-C ) :   0.9607
B( 12-C , 14-C ) :   1.3606 B( 12-C , 59-H ) :   0.9101 B( 13-N , 31-C ) :   1.1613
B( 13-N , 35-C ) :   1.1611 B( 13-N , 36-C ) :   0.9412 B( 14-C , 18-C ) :   1.1171
B( 15-N , 42-C ) :   1.1082 B( 15-N , 46-C ) :   1.1255 B( 15-N , 47-C ) :   0.9609
B( 16-C , 51-C ) :   1.1684 B( 17-C , 60-H ) :   0.8711 B( 18-C , 19-C ) :   1.1152
B( 19-C , 21-C ) :   1.2559 B( 20-C , 28-C ) :   1.6298 B( 20-C , 63-H ) :   0.9703
B( 21-C , 26-C ) :   1.5766 B( 21-C , 64-H ) :   0.8771 B( 22-C , 23-C ) :   1.2886
B( 22-C , 28-C ) :   1.2626 B( 22-C , 29-C ) :   1.2280 B( 23-C , 24-C ) :   1.6212
B( 23-C , 65-H ) :   0.9703 B( 24-C , 66-H ) :   0.9696 B( 25-C , 67-H ) :   0.9760
B( 25-C , 68-H ) :   0.9828 B( 25-C , 69-H ) :   0.9824 B( 26-C , 27-C ) :   1.2699
B( 26-C , 70-H ) :   0.9652 B( 27-C , 29-C ) :   1.2053 B( 28-C , 71-H ) :   0.9720
B( 29-C , 30-C ) :   1.2468 B( 30-C , 32-C ) :   1.2791 B( 31-C , 39-C ) :   1.5874
B( 31-C , 72-H ) :   0.9681 B( 32-C , 37-C ) :   1.5796 B( 32-C , 73-H ) :   0.9787
B( 33-C , 34-C ) :   1.3066 B( 33-C , 39-C ) :   1.3046 B( 33-C , 40-C ) :   1.1763
B( 34-C , 35-C ) :   1.5853 B( 34-C , 74-H ) :   0.9696 B( 35-C , 75-H ) :   0.9681
B( 36-C , 76-H ) :   0.9768 B( 36-C , 77-H ) :   0.9816 B( 36-C , 78-H ) :   0.9823
B( 37-C , 38-C ) :   1.2853 B( 37-C , 79-H ) :   0.9764 B( 38-C , 40-C ) :   1.2338
B( 39-C , 80-H ) :   0.9705 B( 40-C , 41-C ) :   1.2503 B( 41-C , 43-C ) :   1.1838
B( 42-C , 50-C ) :   1.6319 B( 42-C , 81-H ) :   0.9696 B( 43-C , 48-C ) :   1.6694
B( 43-C , 82-H ) :   0.9721 B( 44-C , 45-C ) :   1.2641 B( 44-C , 50-C ) :   1.2736
B( 44-C , 51-C ) :   1.2586 B( 45-C , 46-C ) :   1.6335 B( 45-C , 83-H ) :   0.9718
B( 46-C , 84-H ) :   0.9700 B( 47-C , 85-H ) :   0.9762 B( 47-C , 86-H ) :   0.9829
B( 47-C , 87-H ) :   0.9824 B( 48-C , 49-C ) :   1.1871 B( 48-C , 88-H ) :   0.9748
B( 49-C , 51-C ) :   1.2467 B( 50-C , 89-H ) :   0.9708 B( 54-H , 64-H ) :   0.1462
B( 59-H , 60-H ) :   0.1027

MP2 TOTAL ENERGY:    -2130.735365405 Eh
FINAL SINGLE POINT ENERGY     -2130.735365404604

DIPOLE MOMENT
-------------
                                X             Y             Z
Electronic contribution:      2.92038      -4.23016      -0.08683
Nuclear contribution   :     -0.03993       0.16201       0.10526
                        -----------------------------------------
Total Dipole Moment    :      2.88045      -4.06815       0.01843
                        -----------------------------------------
Magnitude (a.u.)       :      4.98470
Magnitude (Debye)      :     12.67009

Rotational constants in cm-1:     0.001504     0.001478     0.000760
Rotational constants in MHz :    45.074266    44.300896    22.781141

                             ****ORCA TERMINATED NORMALLY****
TOTAL RUN TIME: 0 days 1 hours 33 minutes 51 seconds 621 msec
