                         Program Version 5.0.4 -  RELEASE  -
|  1> ! PAL2
|  2> ! mp2 cc-pvdz TightSCF  NoKeepInts
|  3>
|  4> %scf
|  5>   MaxCore 2000
|  6> end
|  7> %mp2
|  8>   MaxCore 2000
|  9> end
| 10> * xyz 0 1
| 11>    C       -4.29600         5.65500        -1.02500
| 12>    C        1.47400         4.04100         0.05700
| 13>    C       -2.80200         4.09300         0.04900
| 14>    C       -2.88500         4.88700         1.20400
| 15>    C       -3.66400         6.02600         1.20800
| 16>    C       -5.21000         7.60400         0.15200
| 17>    C        0.13200         4.30700         0.06100
| 18>    C       -0.56900         3.05600         0.04700
| 19>    C        1.64900         2.61800         0.02300
| 20>    C       -3.53400         4.50400        -1.07600
| 21>    N       -4.35300         6.39800         0.10400
| 22>    N        0.38800         2.06700         0.02500
| 23>    N       -2.01000         0.39500        -0.07500
| 24>    N       -0.38800        -2.07400        -0.02700
| 25>    N        2.01000        -0.40100         0.06500
| 26>    C       -1.96000         2.86100         0.02400
| 27>    C       -2.62300         1.61500        -0.01800
| 28>    C       -5.57300        -4.32900         1.06600
| 29>    C       -4.07300         1.47100         0.05600
| 30>    C       -4.10600        -2.75600        -0.02600
| 31>    C       -4.99500        -2.75700        -1.11100
| 32>    C       -6.13200        -3.54200        -1.07600
| 33>    C       -7.65100        -5.11300         0.04000
| 34>    C       -4.32400         0.14100         0.03700
| 35>    C       -3.02500        -0.52000        -0.04800
| 36>    C       -4.42200        -3.56600         1.07500
| 37>    N       -6.40700        -4.31300         0.00100
| 38>    C       -2.86700        -1.92200        -0.04000
| 39>    C       -1.65000        -2.62400        -0.02700
| 40>    C        3.56800        -6.14200        -1.04000
| 41>    C       -1.47600        -4.04900        -0.03400
| 42>    C        2.80300        -4.09900        -0.00800
| 43>    C        3.65700        -4.38400         1.06900
| 44>    C        4.42700        -5.53000         1.05900
| 45>    C        5.24500        -7.58800         0.01400
| 46>    C       -0.13400        -4.31500        -0.02200
| 47>    C        0.56800        -3.06400        -0.02700
| 48>    C        2.77500        -5.01200        -1.07400
| 49>    N        4.37600        -6.39100         0.01700
| 50>    C        1.95900        -2.86900        -0.00900
| 51>    C        2.62100        -1.62200         0.00900
| 52>    C        5.54300         4.33900        -1.13000
| 53>    C        4.07000        -1.47900        -0.09400
| 54>    C        4.10400         2.75100        -0.02100
| 55>    C        5.02700         2.72900         1.03600
| 56>    C        6.16600         3.50900         0.97800
| 57>    C        7.61900         5.15300        -0.11500
| 58>    C        4.32100        -0.14800        -0.09200
| 59>    C        3.02500         0.51400         0.01500
| 60>    C        4.38700         3.58200        -1.11500
| 61>    C        2.86600         1.91600         0.01300
| 62>    N        6.41300         4.29600        -0.09500
| 63>    H       -4.86600         6.01600        -1.87200
| 64>    H        2.27400         4.76600         0.08100
| 65>    H       -2.35100         4.61700         2.10700
| 66>    H       -3.76600         6.66400         2.07600
| 67>    H       -6.19100         7.32700         0.54400
| 68>    H       -4.74000         8.34200         0.80300
| 69>    H       -5.30800         8.00400        -0.85700
| 70>    H       -0.33200         5.28200         0.06900
| 71>    H       -3.50000         3.94100        -2.00200
| 72>    H        0.18200         1.07200         0.00500
| 73>    H       -0.18300        -1.08000        -0.02100
| 74>    H       -5.86400        -4.96200         1.89500
| 75>    H       -4.79400         2.27200         0.13900
| 76>    H       -4.80000        -2.16000        -1.99400
| 77>    H       -6.84100        -3.58200        -1.89300
| 78>    H       -8.42800        -4.53600         0.54600
| 79>    H       -7.95600        -5.33700        -0.98100
| 80>    H       -7.45600        -6.03700         0.58400
| 81>    H       -5.28700        -0.34400         0.10000
| 82>    H       -3.78000        -3.60100         1.94700
| 83>    H        3.58700        -6.86800        -1.84300
| 84>    H       -2.27600        -4.77400        -0.05000
| 85>    H        3.71400        -3.72400         1.92600
| 86>    H        5.09200        -5.79500         1.87100
| 87>    H        6.20500        -7.32900        -0.43900
| 88>    H        5.39300        -7.91700         1.04200
| 89>    H        4.75900        -8.37300        -0.56400
| 90>    H        0.32900        -5.29000        -0.00800
| 91>    H        2.14600        -4.84200        -1.94000
| 92>    H        5.80800         4.98600        -1.95600
| 93>    H        4.78800        -2.28100        -0.18500
| 94>    H        4.86000         2.11400         1.91200
| 95>    H        6.90100         3.53100         1.77200
| 96>    H        7.38300         6.10900         0.35600
| 97>    H        8.41400         4.65200         0.43500
| 98>    H        7.92100         5.31000        -1.15000
| 99>    H        5.28300         0.33600        -0.17900
|100>    H        3.72000         3.63200        -1.96700
|101> *
|102>
|103>                          ****END OF INPUT****

CARTESIAN COORDINATES (ANGSTROEM)
---------------------------------
  C     -4.296000    5.655000   -1.025000
  C      1.474000    4.041000    0.057000
  C     -2.802000    4.093000    0.049000
  C     -2.885000    4.887000    1.204000
  C     -3.664000    6.026000    1.208000
  C     -5.210000    7.604000    0.152000
  C      0.132000    4.307000    0.061000
  C     -0.569000    3.056000    0.047000
  C      1.649000    2.618000    0.023000
  C     -3.534000    4.504000   -1.076000
  N     -4.353000    6.398000    0.104000
  N      0.388000    2.067000    0.025000
  N     -2.010000    0.395000   -0.075000
  N     -0.388000   -2.074000   -0.027000
  N      2.010000   -0.401000    0.065000
  C     -1.960000    2.861000    0.024000
  C     -2.623000    1.615000   -0.018000
  C     -5.573000   -4.329000    1.066000
  C     -4.073000    1.471000    0.056000
  C     -4.106000   -2.756000   -0.026000
  C     -4.995000   -2.757000   -1.111000
  C     -6.132000   -3.542000   -1.076000
  C     -7.651000   -5.113000    0.040000
  C     -4.324000    0.141000    0.037000
  C     -3.025000   -0.520000   -0.048000
  C     -4.422000   -3.566000    1.075000
  N     -6.407000   -4.313000    0.001000
  C     -2.867000   -1.922000   -0.040000
  C     -1.650000   -2.624000   -0.027000
  C      3.568000   -6.142000   -1.040000
  C     -1.476000   -4.049000   -0.034000
  C      2.803000   -4.099000   -0.008000
  C      3.657000   -4.384000    1.069000
  C      4.427000   -5.530000    1.059000
  C      5.245000   -7.588000    0.014000
  C     -0.134000   -4.315000   -0.022000
  C      0.568000   -3.064000   -0.027000
  C      2.775000   -5.012000   -1.074000
  N      4.376000   -6.391000    0.017000
  C      1.959000   -2.869000   -0.009000
  C      2.621000   -1.622000    0.009000
  C      5.543000    4.339000   -1.130000
  C      4.070000   -1.479000   -0.094000
  C      4.104000    2.751000   -0.021000
  C      5.027000    2.729000    1.036000
  C      6.166000    3.509000    0.978000
  C      7.619000    5.153000   -0.115000
  C      4.321000   -0.148000   -0.092000
  C      3.025000    0.514000    0.015000
  C      4.387000    3.582000   -1.115000
  C      2.866000    1.916000    0.013000
  N      6.413000    4.296000   -0.095000
  H     -4.866000    6.016000   -1.872000
  H      2.274000    4.766000    0.081000
  H     -2.351000    4.617000    2.107000
  H     -3.766000    6.664000    2.076000
  H     -6.191000    7.327000    0.544000
  H     -4.740000    8.342000    0.803000
  H     -5.308000    8.004000   -0.857000
  H     -0.332000    5.282000    0.069000
  H     -3.500000    3.941000   -2.002000
  H      0.182000    1.072000    0.005000
  H     -0.183000   -1.080000   -0.021000
  H     -5.864000   -4.962000    1.895000
  H     -4.794000    2.272000    0.139000
  H     -4.800000   -2.160000   -1.994000
  H     -6.841000   -3.582000   -1.893000
  H     -8.428000   -4.536000    0.546000
  H     -7.956000   -5.337000   -0.981000
  H     -7.456000   -6.037000    0.584000
  H     -5.287000   -0.344000    0.100000
  H     -3.780000   -3.601000    1.947000
  H      3.587000   -6.868000   -1.843000
  H     -2.276000   -4.774000   -0.050000
  H      3.714000   -3.724000    1.926000
  H      5.092000   -5.795000    1.871000
  H      6.205000   -7.329000   -0.439000
  H      5.393000   -7.917000    1.042000
  H      4.759000   -8.373000   -0.564000
  H      0.329000   -5.290000   -0.008000
  H      2.146000   -4.842000   -1.940000
  H      5.808000    4.986000   -1.956000
  H      4.788000   -2.281000   -0.185000
  H      4.860000    2.114000    1.912000
  H      6.901000    3.531000    1.772000
  H      7.383000    6.109000    0.356000
  H      8.414000    4.652000    0.435000
  H      7.921000    5.310000   -1.150000
  H      5.283000    0.336000   -0.179000
  H      3.720000    3.632000   -1.967000

 Total Charge           Charge          ....    0
 Multiplicity           Mult            ....    1
 Number of Electrons    NEL             ....  358
 Basis Dimension        Dim             ....  918

ORBITAL ENERGIES
----------------

  NO   OCC          E(Eh)            E(eV)
   0   2.0000     -15.659812      -426.1252
   1   2.0000     -15.638760      -425.5523
   2   2.0000     -15.626009      -425.2053
   3   2.0000     -15.611812      -424.8190
   4   2.0000     -15.516693      -422.2307
   5   2.0000     -15.512860      -422.1264
   6   2.0000     -15.446676      -420.3254
   7   2.0000     -15.436425      -420.0465
   8   2.0000     -11.315122      -307.9001
   9   2.0000     -11.311290      -307.7959
  10   2.0000     -11.310121      -307.7640
  11   2.0000     -11.302306      -307.5514
  12   2.0000     -11.295864      -307.3761
  13   2.0000     -11.294137      -307.3291
  14   2.0000     -11.292055      -307.2724
  15   2.0000     -11.285516      -307.0945
  16   2.0000     -11.284846      -307.0763
  17   2.0000     -11.281101      -306.9744
  18   2.0000     -11.272989      -306.7536
  19   2.0000     -11.269727      -306.6649
  20   2.0000     -11.260846      -306.4232
  21   2.0000     -11.248147      -306.0776
  22   2.0000     -11.247952      -306.0723
  23   2.0000     -11.242061      -305.9120
  24   2.0000     -11.233852      -305.6887
  25   2.0000     -11.233076      -305.6675
  26   2.0000     -11.230159      -305.5882
  27   2.0000     -11.224151      -305.4247
  28   2.0000     -11.224028      -305.4213
  29   2.0000     -11.217427      -305.2417
  30   2.0000     -11.214292      -305.1564
  31   2.0000     -11.213470      -305.1340
  32   2.0000     -11.199630      -304.7574
  33   2.0000     -11.199549      -304.7552
  34   2.0000     -11.192006      -304.5500
  35   2.0000     -11.191893      -304.5469
  36   2.0000     -11.179683      -304.2146
  37   2.0000     -11.179659      -304.2140
  38   2.0000     -11.176646      -304.1320
  39   2.0000     -11.169816      -303.9462
  40   2.0000     -11.163690      -303.7795
  41   2.0000     -11.161554      -303.7213
  42   2.0000     -11.159575      -303.6675
  43   2.0000     -11.159233      -303.6582
  44   2.0000     -11.157023      -303.5980
  45   2.0000     -11.156574      -303.5858
  46   2.0000     -11.152296      -303.4694
  47   2.0000     -11.152252      -303.4682
  48   2.0000     -11.149572      -303.3953
  49   2.0000     -11.147473      -303.3382
  50   2.0000     -11.130718      -302.8822
  51   2.0000     -11.128657      -302.8262
  52   2.0000      -1.342468       -36.5304
  53   2.0000      -1.325295       -36.0631
  54   2.0000      -1.314036       -35.7567
  55   2.0000      -1.302200       -35.4347
  56   2.0000      -1.216588       -33.1050
  57   2.0000      -1.210125       -32.9292
  58   2.0000      -1.165796       -31.7229
  59   2.0000      -1.149142       -31.2697
  60   2.0000      -1.127366       -30.6772
  61   2.0000      -1.112868       -30.2827
  62   2.0000      -1.103364       -30.0241
  63   2.0000      -1.092481       -29.7279
  64   2.0000      -1.065241       -28.9867
  65   2.0000      -1.049075       -28.5468
  66   2.0000      -1.038589       -28.2614
  67   2.0000      -1.029723       -28.0202
  68   2.0000      -1.027692       -27.9649
  69   2.0000      -1.012949       -27.5637
  70   2.0000      -1.006267       -27.3819
  71   2.0000      -0.993876       -27.0447
  72   2.0000      -0.981329       -26.7033
  73   2.0000      -0.974326       -26.5128
  74   2.0000      -0.971405       -26.4333
  75   2.0000      -0.960438       -26.1348
  76   2.0000      -0.948688       -25.8151
  77   2.0000      -0.948200       -25.8018
  78   2.0000      -0.931449       -25.3460
  79   2.0000      -0.921526       -25.0760
  80   2.0000      -0.894097       -24.3296
  81   2.0000      -0.887419       -24.1479
  82   2.0000      -0.875847       -23.8330
  83   2.0000      -0.865876       -23.5617
  84   2.0000      -0.861671       -23.4473
  85   2.0000      -0.856355       -23.3026
  86   2.0000      -0.851205       -23.1625
  87   2.0000      -0.836240       -22.7552
  88   2.0000      -0.822291       -22.3757
  89   2.0000      -0.796976       -21.6868
  90   2.0000      -0.795522       -21.6472
  91   2.0000      -0.741780       -20.1849
  92   2.0000      -0.732377       -19.9290
  93   2.0000      -0.726865       -19.7790
  94   2.0000      -0.722862       -19.6701
  95   2.0000      -0.716127       -19.4868
  96   2.0000      -0.710045       -19.3213
  97   2.0000      -0.705645       -19.2016
  98   2.0000      -0.699574       -19.0364
  99   2.0000      -0.692596       -18.8465
 100   2.0000      -0.690900       -18.8003
 101   2.0000      -0.682191       -18.5633
 102   2.0000      -0.679619       -18.4934
 103   2.0000      -0.672112       -18.2891
 104   2.0000      -0.670760       -18.2523
 105   2.0000      -0.668848       -18.2003
 106   2.0000      -0.662580       -18.0297
 107   2.0000      -0.660446       -17.9716
 108   2.0000      -0.656936       -17.8761
 109   2.0000      -0.656089       -17.8531
 110   2.0000      -0.650352       -17.6970
 111   2.0000      -0.647562       -17.6210
 112   2.0000      -0.643718       -17.5164
 113   2.0000      -0.637962       -17.3598
 114   2.0000      -0.632786       -17.2190
 115   2.0000      -0.630659       -17.1611
 116   2.0000      -0.622878       -16.9494
 117   2.0000      -0.616207       -16.7679
 118   2.0000      -0.613471       -16.6934
 119   2.0000      -0.608169       -16.5491
 120   2.0000      -0.606204       -16.4957
 121   2.0000      -0.598776       -16.2935
 122   2.0000      -0.597754       -16.2657
 123   2.0000      -0.595843       -16.2137
 124   2.0000      -0.592210       -16.1149
 125   2.0000      -0.584556       -15.9066
 126   2.0000      -0.576338       -15.6829
 127   2.0000      -0.570850       -15.5336
 128   2.0000      -0.567393       -15.4395
 129   2.0000      -0.562823       -15.3152
 130   2.0000      -0.555494       -15.1158
 131   2.0000      -0.548253       -14.9187
 132   2.0000      -0.540257       -14.7011
 133   2.0000      -0.534194       -14.5362
 134   2.0000      -0.531846       -14.4723
 135   2.0000      -0.530821       -14.4444
 136   2.0000      -0.524812       -14.2809
 137   2.0000      -0.521877       -14.2010
 138   2.0000      -0.518679       -14.1140
 139   2.0000      -0.514541       -14.0014
 140   2.0000      -0.509057       -13.8521
 141   2.0000      -0.505983       -13.7685
 142   2.0000      -0.502277       -13.6677
 143   2.0000      -0.499389       -13.5891
 144   2.0000      -0.498717       -13.5708
 145   2.0000      -0.496131       -13.5004
 146   2.0000      -0.493427       -13.4268
 147   2.0000      -0.492047       -13.3893
 148   2.0000      -0.486762       -13.2455
 149   2.0000      -0.466084       -12.6828
 150   2.0000      -0.460837       -12.5400
 151   2.0000      -0.453122       -12.3301
 152   2.0000      -0.448105       -12.1936
 153   2.0000      -0.442948       -12.0532
 154   2.0000      -0.441152       -12.0044
 155   2.0000      -0.440220       -11.9790
 156   2.0000      -0.431818       -11.7504
 157   2.0000      -0.424761       -11.5583
 158   2.0000      -0.392588       -10.6829
 159   2.0000      -0.385123       -10.4797
 160   2.0000      -0.374153       -10.1812
 161   2.0000      -0.372791       -10.1442
 162   2.0000      -0.367275        -9.9941
 163   2.0000      -0.359478        -9.7819
 164   2.0000      -0.350501        -9.5376
 165   2.0000      -0.341449        -9.2913
 166   2.0000      -0.338277        -9.2050
 167   2.0000      -0.334924        -9.1137
 168   2.0000      -0.322346        -8.7715
 169   2.0000      -0.299855        -8.1595
 170   2.0000      -0.294578        -8.0159
 171   2.0000      -0.287287        -7.8175
 172   2.0000      -0.285716        -7.7747
 173   2.0000      -0.258487        -7.0338
 174   2.0000      -0.241245        -6.5646
 175   2.0000      -0.186122        -5.0646
 176   2.0000      -0.175784        -4.7833
 177   2.0000      -0.062958        -1.7132
 178   2.0000      -0.052566        -1.4304
 179   0.0000       0.032984         0.8975
 180   0.0000       0.067078         1.8253
 181   0.0000       0.092232         2.5098
 182   0.0000       0.095885         2.6092
 183   0.0000       0.120702         3.2845

MULLIKEN ATOMIC CHARGES
-----------------------
   0 C :    0.216239
   1 N :   -0.432070
   2 C :   -0.067103
   3 N :   -0.340611
   4 C :   -0.085072
   5 N :   -0.563689
   6 C :   -0.039886
   7 N :   -0.337535
   8 C :    0.214010
   9 N :   -0.564190
  10 C :    0.110372
  11 N :   -0.437590
  12 C :   -0.062208
  13 N :   -0.444704
  14 C :    0.227860
  15 N :   -0.440783
  16 C :    0.244541
  17 C :   -0.044005
  18 C :   -0.184694
  19 C :    0.225999
  20 C :    0.201462
  21 C :   -0.068556
  22 C :   -0.085698
  23 C :   -0.056522
  24 C :    0.212993
  25 C :    0.113771
  26 C :   -0.071855
  27 C :    0.233365
  28 C :   -0.046343
  29 C :   -0.190058
  30 C :    0.229166
  31 C :    0.201007
  32 C :   -0.065304
  33 C :   -0.090968
  34 C :   -0.049834
  35 C :    0.192452
  36 C :    0.117139
  37 C :   -0.068076
  38 C :    0.240644
  39 C :   -0.063474
  40 C :   -0.195241
  41 C :    0.217988
  42 C :    0.207530
  43 C :   -0.075199
  44 C :   -0.088994
  45 C :   -0.046607
  46 C :    0.196251
  47 C :    0.115902
  48 C :   -0.078813
  49 C :    0.218091
  50 C :   -0.058414
  51 C :   -0.190241
  52 H :    0.064780
  53 H :   -0.011853
  54 H :    0.053129
  55 H :    0.063547
  56 H :    0.069111
  57 H :    0.064243
  58 H :    0.063075
  59 H :   -0.020247
  60 H :    0.051439
  61 H :    0.174382
  62 H :    0.170953
  63 H :    0.056353
  64 H :   -0.027049
  65 H :    0.045113
  66 H :    0.057700
  67 H :    0.062115
  68 H :    0.057963
  69 H :    0.059750
  70 H :   -0.020817
  71 H :    0.048765
  72 H :    0.048134
  73 H :   -0.016921
  74 H :    0.039167
  75 H :    0.046984
  76 H :    0.055056
  77 H :    0.052826
  78 H :    0.052000
  79 H :   -0.012611
  80 H :    0.039150
  81 H :    0.052714
  82 H :   -0.023554
  83 H :    0.043283
  84 H :    0.051928
  85 H :    0.057383
  86 H :    0.056575
  87 H :    0.056059
  88 H :   -0.026254
  89 H :    0.043186
Sum of atomic charges:   -0.0000000

LOEWDIN ATOMIC CHARGES
----------------------
   0 C :    0.012151
   1 N :    0.157225
   2 C :   -0.100914
   3 N :    0.174829
   4 C :    0.063988
   5 N :   -0.142014
   6 C :   -0.015874
   7 N :    0.177489
   8 C :    0.010125
   9 N :   -0.138532
  10 C :    0.033165
  11 N :    0.144548
  12 C :   -0.099081
  13 N :    0.129384
  14 C :   -0.052822
  15 N :    0.137699
  16 C :   -0.033981
  17 C :   -0.018574
  18 C :   -0.112846
  19 C :   -0.088741
  20 C :   -0.005212
  21 C :   -0.101486
  22 C :    0.043477
  23 C :   -0.025574
  24 C :    0.005124
  25 C :    0.030413
  26 C :   -0.100547
  27 C :   -0.078279
  28 C :   -0.017526
  29 C :   -0.111747
  30 C :   -0.054685
  31 C :   -0.010644
  32 C :   -0.099932
  33 C :    0.019907
  34 C :   -0.022546
  35 C :   -0.018134
  36 C :    0.026807
  37 C :   -0.104499
  38 C :   -0.035553
  39 C :   -0.029458
  40 C :   -0.110540
  41 C :   -0.094831
  42 C :   -0.002118
  43 C :   -0.108902
  44 C :    0.033294
  45 C :   -0.018821
  46 C :   -0.011917
  47 C :    0.028972
  48 C :   -0.110281
  49 C :   -0.101576
  50 C :   -0.026868
  51 C :   -0.109323
  52 H :    0.034033
  53 H :    0.005365
  54 H :    0.048548
  55 H :    0.034062
  56 H :    0.031632
  57 H :    0.034037
  58 H :    0.034274
  59 H :    0.002307
  60 H :    0.047911
  61 H :    0.061287
  62 H :    0.059448
  63 H :    0.030707
  64 H :   -0.002512
  65 H :    0.044189
  66 H :    0.030881
  67 H :    0.028238
  68 H :    0.031948
  69 H :    0.031731
  70 H :   -0.000425
  71 H :    0.046019
  72 H :    0.026921
  73 H :    0.002858
  74 H :    0.041811
  75 H :    0.026043
  76 H :    0.024540
  77 H :    0.029062
  78 H :    0.028718
  79 H :    0.005040
  80 H :    0.041071
  81 H :    0.028773
  82 H :   -0.001766
  83 H :    0.043936
  84 H :    0.028329
  85 H :    0.025781
  86 H :    0.030524
  87 H :    0.030846
  88 H :   -0.003223
  89 H :    0.042833

  Mayer bond orders larger than 0.100000
B(  0-C ,  1-N ) :   1.1458 B(  0-C , 17-C ) :   1.5924 B(  0-C , 52-H ) :   0.9685
B(  1-N ,  8-C ) :   1.1407 B(  1-N , 10-C ) :   0.9491 B(  2-C , 12-C ) :   1.5513
B(  2-C , 16-C ) :   1.3042 B(  2-C , 53-H ) :   0.9785 B(  3-N , 14-C ) :   1.1903
B(  3-N , 16-C ) :   1.1991 B(  3-N , 61-H ) :   0.8974 B(  4-C ,  6-C ) :   1.2983
B(  4-C , 17-C ) :   1.3025 B(  4-C , 18-C ) :   1.1790 B(  5-N , 19-C ) :   1.3959
B(  5-N , 27-C ) :   1.4241 B(  6-C ,  8-C ) :   1.5966 B(  6-C , 54-H ) :   0.9713
B(  7-N , 30-C ) :   1.1888 B(  7-N , 38-C ) :   1.2079 B(  7-N , 62-H ) :   0.8994
B(  8-C , 55-H ) :   0.9696 B(  9-N , 41-C ) :   1.4179 B(  9-N , 49-C ) :   1.4082
B( 10-C , 56-H ) :   0.9763 B( 10-C , 57-H ) :   0.9819 B( 10-C , 58-H ) :   0.9825
B( 11-N , 20-C ) :   1.1167 B( 11-N , 24-C ) :   1.1318 B( 11-N , 25-C ) :   0.9581
B( 12-C , 14-C ) :   1.3052 B( 12-C , 59-H ) :   0.9780 B( 13-N , 31-C ) :   1.1063
B( 13-N , 35-C ) :   1.0970 B( 13-N , 36-C ) :   0.9693 B( 14-C , 18-C ) :   1.2254
B( 15-N , 42-C ) :   1.1210 B( 15-N , 46-C ) :   1.1060 B( 15-N , 47-C ) :   0.9633
B( 16-C , 51-C ) :   1.2183 B( 17-C , 60-H ) :   0.9713 B( 18-C , 19-C ) :   1.2536
B( 19-C , 21-C ) :   1.1947 B( 20-C , 28-C ) :   1.6218 B( 20-C , 63-H ) :   0.9704
B( 21-C , 26-C ) :   1.6553 B( 21-C , 64-H ) :   0.9737 B( 22-C , 23-C ) :   1.2747
B( 22-C , 28-C ) :   1.2800 B( 22-C , 29-C ) :   1.2370 B( 23-C , 24-C ) :   1.6214
B( 23-C , 65-H ) :   0.9714 B( 24-C , 66-H ) :   0.9690 B( 25-C , 67-H ) :   0.9763
B( 25-C , 68-H ) :   0.9831 B( 25-C , 69-H ) :   0.9820 B( 26-C , 27-C ) :   1.1957
B( 26-C , 70-H ) :   0.9741 B( 27-C , 29-C ) :   1.2322 B( 28-C , 71-H ) :   0.9711
B( 29-C , 30-C ) :   1.1996 B( 30-C , 32-C ) :   1.3260 B( 31-C , 39-C ) :   1.6528
B( 31-C , 72-H ) :   0.9702 B( 32-C , 37-C ) :   1.5325 B( 32-C , 73-H ) :   0.9774
B( 33-C , 34-C ) :   1.2578 B( 33-C , 39-C ) :   1.2498 B( 33-C , 40-C ) :   1.2919
B( 34-C , 35-C ) :   1.6502 B( 34-C , 74-H ) :   0.9707 B( 35-C , 75-H ) :   0.9702
B( 36-C , 76-H ) :   0.9760 B( 36-C , 77-H ) :   0.9823 B( 36-C , 78-H ) :   0.9834
B( 37-C , 38-C ) :   1.3249 B( 37-C , 79-H ) :   0.9784 B( 38-C , 40-C ) :   1.1974
B( 39-C , 80-H ) :   0.9718 B( 40-C , 41-C ) :   1.1970 B( 41-C , 43-C ) :   1.2331
B( 42-C , 50-C ) :   1.6357 B( 42-C , 81-H ) :   0.9696 B( 43-C , 48-C ) :   1.6181
B( 43-C , 82-H ) :   0.9744 B( 44-C , 45-C ) :   1.2755 B( 44-C , 50-C ) :   1.2611
B( 44-C , 51-C ) :   1.2531 B( 45-C , 46-C ) :   1.6316 B( 45-C , 83-H ) :   0.9708
B( 46-C , 84-H ) :   0.9705 B( 47-C , 85-H ) :   0.9761 B( 47-C , 86-H ) :   0.9827
B( 47-C , 87-H ) :   0.9827 B( 48-C , 49-C ) :   1.2303 B( 48-C , 88-H ) :   0.9732
B( 49-C , 51-C ) :   1.2050 B( 50-C , 89-H ) :   0.9716

MP2 TOTAL ENERGY:    -2130.904583921 Eh
FINAL SINGLE POINT ENERGY     -2130.904583921114

DIPOLE MOMENT
-------------
                                X             Y             Z
Electronic contribution:     -2.00587       1.49665      -0.18695
Nuclear contribution   :     -0.00790       0.17825       0.22213
                        -----------------------------------------
Total Dipole Moment    :     -2.01376       1.67490       0.03519
                        -----------------------------------------
Magnitude (a.u.)       :      2.61950
Magnitude (Debye)      :      6.65823

Rotational constants in cm-1:     0.001498     0.001473     0.000763
Rotational constants in MHz :    44.903196    44.165956    22.859988

                             ****ORCA TERMINATED NORMALLY****
TOTAL RUN TIME: 0 days 1 hours 11 minutes 22 seconds 871 msec
