                         Program Version 5.0.4 -  RELEASE  -
|  1> ! PAL2
|  2> ! mp2 cc-pvdz TightSCF  NoKeepInts
|  3>
|  4> %scf
|  5>   MaxCore 2000
|  6> end
|  7> %mp2
|  8>   MaxCore 2000
|  9> end
| 10> * xyz 0 1
| 11>    C       -3.97400         5.87600        -1.07900
| 12>    C        1.47400         4.04100         0.05700
| 13>    C       -2.80200         4.09300         0.04900
| 14>    C       -3.21700         4.65800         1.26500
| 15>    C       -3.99100         5.80100         1.27000
| 16>    C       -5.21800         7.59800         0.14800
| 17>    C        0.13200         4.30700         0.06100
| 18>    C       -0.56900         3.05600         0.04700
| 19>    C        1.64900         2.61800         0.02300
| 20>    C       -3.20300         4.73100        -1.13500
| 21>    N       -4.35600         6.39600         0.11000
| 22>    N        0.38800         2.06700         0.02500
| 23>    N       -2.01000         0.39500        -0.07500
| 24>    N       -0.38800        -2.07400        -0.02700
| 25>    N        2.01000        -0.40100         0.06500
| 26>    C       -1.96000         2.86100         0.02400
| 27>    C       -2.62300         1.61500        -0.01800
| 28>    C       -5.57300        -4.32900         1.06600
| 29>    C       -4.07300         1.47100         0.05600
| 30>    C       -4.10600        -2.75600        -0.02600
| 31>    C       -4.99500        -2.75700        -1.11100
| 32>    C       -6.13200        -3.54200        -1.07600
| 33>    C       -7.65100        -5.11300         0.04000
| 34>    C       -4.32400         0.14100         0.03700
| 35>    C       -3.02500        -0.52000        -0.04800
| 36>    C       -4.42200        -3.56600         1.07500
| 37>    N       -6.40700        -4.31300         0.00100
| 38>    C       -2.86700        -1.92200        -0.04000
| 39>    C       -1.65000        -2.62400        -0.02700
| 40>    C        3.56800        -6.14200        -1.04000
| 41>    C       -1.47600        -4.04900        -0.03400
| 42>    C        2.80300        -4.09900        -0.00800
| 43>    C        3.65700        -4.38400         1.06900
| 44>    C        4.42700        -5.53000         1.05900
| 45>    C        5.24500        -7.58800         0.01400
| 46>    C       -0.13400        -4.31500        -0.02200
| 47>    C        0.56800        -3.06400        -0.02700
| 48>    C        2.77500        -5.01200        -1.07400
| 49>    N        4.37600        -6.39100         0.01700
| 50>    C        1.95900        -2.86900        -0.00900
| 51>    C        2.62100        -1.62200         0.00900
| 52>    C        5.54300         4.33900        -1.13000
| 53>    C        4.07000        -1.47900        -0.09400
| 54>    C        4.10400         2.75100        -0.02100
| 55>    C        5.02700         2.72900         1.03600
| 56>    C        6.16600         3.50900         0.97800
| 57>    C        7.61900         5.15300        -0.11500
| 58>    C        4.32100        -0.14800        -0.09200
| 59>    C        3.02500         0.51400         0.01500
| 60>    C        4.38700         3.58200        -1.11500
| 61>    C        2.86600         1.91600         0.01300
| 62>    N        6.41300         4.29600        -0.09500
| 63>    H       -4.29600         6.40800        -1.96600
| 64>    H        2.27400         4.76600         0.08100
| 65>    H       -2.94700         4.20700         2.21200
| 66>    H       -4.34200         6.26800         2.18100
| 67>    H       -6.26300         7.28500         0.19500
| 68>    H       -4.96200         8.18500         1.03000
| 69>    H       -5.04300         8.18300        -0.75400
| 70>    H       -0.33200         5.28200         0.06900
| 71>    H       -2.90400         4.35100        -2.10500
| 72>    H        0.18200         1.07200         0.00500
| 73>    H       -0.18300        -1.08000        -0.02100
| 74>    H       -5.86400        -4.96200         1.89500
| 75>    H       -4.79400         2.27200         0.13900
| 76>    H       -4.80000        -2.16000        -1.99400
| 77>    H       -6.84100        -3.58200        -1.89300
| 78>    H       -8.42800        -4.53600         0.54600
| 79>    H       -7.95600        -5.33700        -0.98100
| 80>    H       -7.45600        -6.03700         0.58400
| 81>    H       -5.28700        -0.34400         0.10000
| 82>    H       -3.78000        -3.60100         1.94700
| 83>    H        3.58700        -6.86800        -1.84300
| 84>    H       -2.27600        -4.77400        -0.05000
| 85>    H        3.71400        -3.72400         1.92600
| 86>    H        5.09200        -5.79500         1.87100
| 87>    H        6.20500        -7.32900        -0.43900
| 88>    H        5.39300        -7.91700         1.04200
| 89>    H        4.75900        -8.37300        -0.56400
| 90>    H        0.32900        -5.29000        -0.00800
| 91>    H        2.14600        -4.84200        -1.94000
| 92>    H        5.80800         4.98600        -1.95600
| 93>    H        4.78800        -2.28100        -0.18500
| 94>    H        4.86000         2.11400         1.91200
| 95>    H        6.90100         3.53100         1.77200
| 96>    H        7.38300         6.10900         0.35600
| 97>    H        8.41400         4.65200         0.43500
| 98>    H        7.92100         5.31000        -1.15000
| 99>    H        5.28300         0.33600        -0.17900
|100>    H        3.72000         3.63200        -1.96700
|101> *
|102>
|103>                          ****END OF INPUT****

CARTESIAN COORDINATES (ANGSTROEM)
---------------------------------
  C     -3.974000    5.876000   -1.079000
  C      1.474000    4.041000    0.057000
  C     -2.802000    4.093000    0.049000
  C     -3.217000    4.658000    1.265000
  C     -3.991000    5.801000    1.270000
  C     -5.218000    7.598000    0.148000
  C      0.132000    4.307000    0.061000
  C     -0.569000    3.056000    0.047000
  C      1.649000    2.618000    0.023000
  C     -3.203000    4.731000   -1.135000
  N     -4.356000    6.396000    0.110000
  N      0.388000    2.067000    0.025000
  N     -2.010000    0.395000   -0.075000
  N     -0.388000   -2.074000   -0.027000
  N      2.010000   -0.401000    0.065000
  C     -1.960000    2.861000    0.024000
  C     -2.623000    1.615000   -0.018000
  C     -5.573000   -4.329000    1.066000
  C     -4.073000    1.471000    0.056000
  C     -4.106000   -2.756000   -0.026000
  C     -4.995000   -2.757000   -1.111000
  C     -6.132000   -3.542000   -1.076000
  C     -7.651000   -5.113000    0.040000
  C     -4.324000    0.141000    0.037000
  C     -3.025000   -0.520000   -0.048000
  C     -4.422000   -3.566000    1.075000
  N     -6.407000   -4.313000    0.001000
  C     -2.867000   -1.922000   -0.040000
  C     -1.650000   -2.624000   -0.027000
  C      3.568000   -6.142000   -1.040000
  C     -1.476000   -4.049000   -0.034000
  C      2.803000   -4.099000   -0.008000
  C      3.657000   -4.384000    1.069000
  C      4.427000   -5.530000    1.059000
  C      5.245000   -7.588000    0.014000
  C     -0.134000   -4.315000   -0.022000
  C      0.568000   -3.064000   -0.027000
  C      2.775000   -5.012000   -1.074000
  N      4.376000   -6.391000    0.017000
  C      1.959000   -2.869000   -0.009000
  C      2.621000   -1.622000    0.009000
  C      5.543000    4.339000   -1.130000
  C      4.070000   -1.479000   -0.094000
  C      4.104000    2.751000   -0.021000
  C      5.027000    2.729000    1.036000
  C      6.166000    3.509000    0.978000
  C      7.619000    5.153000   -0.115000
  C      4.321000   -0.148000   -0.092000
  C      3.025000    0.514000    0.015000
  C      4.387000    3.582000   -1.115000
  C      2.866000    1.916000    0.013000
  N      6.413000    4.296000   -0.095000
  H     -4.296000    6.408000   -1.966000
  H      2.274000    4.766000    0.081000
  H     -2.947000    4.207000    2.212000
  H     -4.342000    6.268000    2.181000
  H     -6.263000    7.285000    0.195000
  H     -4.962000    8.185000    1.030000
  H     -5.043000    8.183000   -0.754000
  H     -0.332000    5.282000    0.069000
  H     -2.904000    4.351000   -2.105000
  H      0.182000    1.072000    0.005000
  H     -0.183000   -1.080000   -0.021000
  H     -5.864000   -4.962000    1.895000
  H     -4.794000    2.272000    0.139000
  H     -4.800000   -2.160000   -1.994000
  H     -6.841000   -3.582000   -1.893000
  H     -8.428000   -4.536000    0.546000
  H     -7.956000   -5.337000   -0.981000
  H     -7.456000   -6.037000    0.584000
  H     -5.287000   -0.344000    0.100000
  H     -3.780000   -3.601000    1.947000
  H      3.587000   -6.868000   -1.843000
  H     -2.276000   -4.774000   -0.050000
  H      3.714000   -3.724000    1.926000
  H      5.092000   -5.795000    1.871000
  H      6.205000   -7.329000   -0.439000
  H      5.393000   -7.917000    1.042000
  H      4.759000   -8.373000   -0.564000
  H      0.329000   -5.290000   -0.008000
  H      2.146000   -4.842000   -1.940000
  H      5.808000    4.986000   -1.956000
  H      4.788000   -2.281000   -0.185000
  H      4.860000    2.114000    1.912000
  H      6.901000    3.531000    1.772000
  H      7.383000    6.109000    0.356000
  H      8.414000    4.652000    0.435000
  H      7.921000    5.310000   -1.150000
  H      5.283000    0.336000   -0.179000
  H      3.720000    3.632000   -1.967000

 Total Charge           Charge          ....    0
 Multiplicity           Mult            ....    1
 Number of Electrons    NEL             ....  358
 Basis Dimension        Dim             ....  918

ORBITAL ENERGIES
----------------

  NO   OCC          E(Eh)            E(eV)
   0   2.0000     -15.721210      -427.7959
   1   2.0000     -15.628087      -425.2619
   2   2.0000     -15.618320      -424.9961
   3   2.0000     -15.575744      -423.8375
   4   2.0000     -15.520838      -422.3435
   5   2.0000     -15.503949      -421.8839
   6   2.0000     -15.451433      -420.4549
   7   2.0000     -15.426576      -419.7785
   8   2.0000     -11.359007      -309.0943
   9   2.0000     -11.357002      -309.0397
  10   2.0000     -11.350836      -308.8720
  11   2.0000     -11.314882      -307.8936
  12   2.0000     -11.296151      -307.3839
  13   2.0000     -11.290410      -307.2277
  14   2.0000     -11.289454      -307.2017
  15   2.0000     -11.287376      -307.1451
  16   2.0000     -11.287140      -307.1387
  17   2.0000     -11.281343      -306.9810
  18   2.0000     -11.280020      -306.9449
  19   2.0000     -11.270982      -306.6990
  20   2.0000     -11.262643      -306.4721
  21   2.0000     -11.242421      -305.9218
  22   2.0000     -11.238717      -305.8210
  23   2.0000     -11.231858      -305.6344
  24   2.0000     -11.226511      -305.4889
  25   2.0000     -11.225607      -305.4643
  26   2.0000     -11.222640      -305.3836
  27   2.0000     -11.218758      -305.2779
  28   2.0000     -11.218455      -305.2697
  29   2.0000     -11.211599      -305.0831
  30   2.0000     -11.209685      -305.0310
  31   2.0000     -11.195848      -304.6545
  32   2.0000     -11.194737      -304.6243
  33   2.0000     -11.193434      -304.5888
  34   2.0000     -11.187616      -304.4305
  35   2.0000     -11.186862      -304.4100
  36   2.0000     -11.182365      -304.2876
  37   2.0000     -11.179563      -304.2114
  38   2.0000     -11.179473      -304.2089
  39   2.0000     -11.178297      -304.1769
  40   2.0000     -11.170647      -303.9688
  41   2.0000     -11.165511      -303.8290
  42   2.0000     -11.164509      -303.8017
  43   2.0000     -11.162163      -303.7379
  44   2.0000     -11.160549      -303.6940
  45   2.0000     -11.144202      -303.2492
  46   2.0000     -11.143596      -303.2327
  47   2.0000     -11.140395      -303.1456
  48   2.0000     -11.136859      -303.0493
  49   2.0000     -11.130428      -302.8744
  50   2.0000     -11.116285      -302.4895
  51   2.0000     -11.110496      -302.3320
  52   2.0000      -1.392400       -37.8891
  53   2.0000      -1.316397       -35.8210
  54   2.0000      -1.307364       -35.5752
  55   2.0000      -1.271143       -34.5896
  56   2.0000      -1.224709       -33.3260
  57   2.0000      -1.199977       -32.6530
  58   2.0000      -1.178667       -32.0731
  59   2.0000      -1.165722       -31.7209
  60   2.0000      -1.136539       -30.9268
  61   2.0000      -1.110245       -30.2113
  62   2.0000      -1.105772       -30.0896
  63   2.0000      -1.097154       -29.8551
  64   2.0000      -1.065440       -28.9921
  65   2.0000      -1.058196       -28.7950
  66   2.0000      -1.040880       -28.3238
  67   2.0000      -1.032325       -28.0910
  68   2.0000      -1.015343       -27.6289
  69   2.0000      -1.003858       -27.3164
  70   2.0000      -0.998409       -27.1681
  71   2.0000      -0.995353       -27.0849
  72   2.0000      -0.985679       -26.8217
  73   2.0000      -0.975778       -26.5523
  74   2.0000      -0.964529       -26.2462
  75   2.0000      -0.961161       -26.1545
  76   2.0000      -0.950687       -25.8695
  77   2.0000      -0.940304       -25.5870
  78   2.0000      -0.936085       -25.4722
  79   2.0000      -0.919458       -25.0197
  80   2.0000      -0.911983       -24.8163
  81   2.0000      -0.891486       -24.2586
  82   2.0000      -0.886922       -24.1344
  83   2.0000      -0.868025       -23.6202
  84   2.0000      -0.859853       -23.3978
  85   2.0000      -0.846144       -23.0248
  86   2.0000      -0.828918       -22.5560
  87   2.0000      -0.825982       -22.4761
  88   2.0000      -0.820010       -22.3136
  89   2.0000      -0.794232       -21.6122
  90   2.0000      -0.785615       -21.3777
  91   2.0000      -0.772753       -21.0277
  92   2.0000      -0.741079       -20.1658
  93   2.0000      -0.733567       -19.9614
  94   2.0000      -0.728999       -19.8371
  95   2.0000      -0.724401       -19.7119
  96   2.0000      -0.716191       -19.4885
  97   2.0000      -0.710303       -19.3283
  98   2.0000      -0.707702       -19.2576
  99   2.0000      -0.704774       -19.1779
 100   2.0000      -0.695814       -18.9341
 101   2.0000      -0.688170       -18.7261
 102   2.0000      -0.683982       -18.6121
 103   2.0000      -0.675655       -18.3855
 104   2.0000      -0.672177       -18.2909
 105   2.0000      -0.672000       -18.2860
 106   2.0000      -0.666621       -18.1397
 107   2.0000      -0.661447       -17.9989
 108   2.0000      -0.651968       -17.7409
 109   2.0000      -0.648773       -17.6540
 110   2.0000      -0.648367       -17.6430
 111   2.0000      -0.641860       -17.4659
 112   2.0000      -0.640423       -17.4268
 113   2.0000      -0.635506       -17.2930
 114   2.0000      -0.633639       -17.2422
 115   2.0000      -0.629023       -17.1166
 116   2.0000      -0.627045       -17.0628
 117   2.0000      -0.614428       -16.7194
 118   2.0000      -0.610750       -16.6194
 119   2.0000      -0.608664       -16.5626
 120   2.0000      -0.608129       -16.5480
 121   2.0000      -0.600511       -16.3407
 122   2.0000      -0.593162       -16.1407
 123   2.0000      -0.589160       -16.0319
 124   2.0000      -0.584090       -15.8939
 125   2.0000      -0.577984       -15.7277
 126   2.0000      -0.574548       -15.6342
 127   2.0000      -0.571732       -15.5576
 128   2.0000      -0.570534       -15.5250
 129   2.0000      -0.569212       -15.4890
 130   2.0000      -0.556273       -15.1369
 131   2.0000      -0.542653       -14.7663
 132   2.0000      -0.542025       -14.7492
 133   2.0000      -0.538109       -14.6427
 134   2.0000      -0.533461       -14.5162
 135   2.0000      -0.529104       -14.3977
 136   2.0000      -0.519559       -14.1379
 137   2.0000      -0.515565       -14.0292
 138   2.0000      -0.513842       -13.9824
 139   2.0000      -0.511831       -13.9276
 140   2.0000      -0.509599       -13.8669
 141   2.0000      -0.503323       -13.6961
 142   2.0000      -0.501084       -13.6352
 143   2.0000      -0.497406       -13.5351
 144   2.0000      -0.495307       -13.4780
 145   2.0000      -0.492498       -13.4015
 146   2.0000      -0.488238       -13.2856
 147   2.0000      -0.472966       -12.8701
 148   2.0000      -0.469815       -12.7843
 149   2.0000      -0.465829       -12.6758
 150   2.0000      -0.462900       -12.5961
 151   2.0000      -0.459977       -12.5166
 152   2.0000      -0.451920       -12.2974
 153   2.0000      -0.440741       -11.9932
 154   2.0000      -0.432531       -11.7698
 155   2.0000      -0.430800       -11.7227
 156   2.0000      -0.418628       -11.3914
 157   2.0000      -0.416532       -11.3344
 158   2.0000      -0.410867       -11.1802
 159   2.0000      -0.410708       -11.1759
 160   2.0000      -0.381357       -10.3773
 161   2.0000      -0.369259       -10.0480
 162   2.0000      -0.353099        -9.6083
 163   2.0000      -0.351549        -9.5661
 164   2.0000      -0.345444        -9.4000
 165   2.0000      -0.341772        -9.3001
 166   2.0000      -0.337810        -9.1923
 167   2.0000      -0.316401        -8.6097
 168   2.0000      -0.311643        -8.4802
 169   2.0000      -0.305225        -8.3056
 170   2.0000      -0.298048        -8.1103
 171   2.0000      -0.282366        -7.6836
 172   2.0000      -0.275240        -7.4897
 173   2.0000      -0.266645        -7.2558
 174   2.0000      -0.228629        -6.2213
 175   2.0000      -0.182886        -4.9766
 176   2.0000      -0.173095        -4.7101
 177   2.0000      -0.062700        -1.7062
 178   2.0000      -0.050756        -1.3812
 179   0.0000       0.036293         0.9876
 180   0.0000       0.053961         1.4683
 181   0.0000       0.072689         1.9780
 182   0.0000       0.098735         2.6867
 183   0.0000       0.102316         2.7842

MULLIKEN ATOMIC CHARGES
-----------------------
   0 C :    0.239549
   1 N :   -0.410120
   2 C :   -0.066267
   3 N :   -0.344398
   4 C :   -0.065889
   5 N :   -0.566289
   6 C :   -0.024423
   7 N :   -0.336774
   8 C :    0.235022
   9 N :   -0.566501
  10 C :    0.103035
  11 N :   -0.440278
  12 C :   -0.057977
  13 N :   -0.452108
  14 C :    0.218948
  15 N :   -0.441860
  16 C :    0.258444
  17 C :   -0.032402
  18 C :   -0.174548
  19 C :    0.230216
  20 C :    0.185419
  21 C :   -0.067063
  22 C :   -0.092520
  23 C :   -0.069573
  24 C :    0.217709
  25 C :    0.115237
  26 C :   -0.064695
  27 C :    0.250412
  28 C :   -0.038634
  29 C :   -0.197949
  30 C :    0.219250
  31 C :    0.185675
  32 C :   -0.064246
  33 C :   -0.104599
  34 C :   -0.050503
  35 C :    0.175879
  36 C :    0.121723
  37 C :   -0.071041
  38 C :    0.245319
  39 C :   -0.065797
  40 C :   -0.206003
  41 C :    0.215808
  42 C :    0.212831
  43 C :   -0.077841
  44 C :   -0.092999
  45 C :   -0.036788
  46 C :    0.181617
  47 C :    0.116956
  48 C :   -0.082767
  49 C :    0.205694
  50 C :   -0.069285
  51 C :   -0.188537
  52 H :    0.084793
  53 H :   -0.005939
  54 H :    0.069837
  55 H :    0.083113
  56 H :    0.087587
  57 H :    0.078293
  58 H :    0.076173
  59 H :   -0.030170
  60 H :    0.068831
  61 H :    0.177671
  62 H :    0.167198
  63 H :    0.051671
  64 H :   -0.036060
  65 H :    0.039419
  66 H :    0.053964
  67 H :    0.057122
  68 H :    0.055346
  69 H :    0.058564
  70 H :   -0.011903
  71 H :    0.045888
  72 H :    0.035439
  73 H :   -0.019603
  74 H :    0.027509
  75 H :    0.034066
  76 H :    0.044518
  77 H :    0.044777
  78 H :    0.044029
  79 H :   -0.011496
  80 H :    0.027236
  81 H :    0.049721
  82 H :   -0.023016
  83 H :    0.042395
  84 H :    0.048575
  85 H :    0.053481
  86 H :    0.056226
  87 H :    0.054034
  88 H :   -0.031327
  89 H :    0.037967
Sum of atomic charges:   -0.0000000

LOEWDIN ATOMIC CHARGES
----------------------
   0 C :    0.043972
   1 N :    0.198685
   2 C :   -0.097913
   3 N :    0.170306
   4 C :    0.127392
   5 N :   -0.149049
   6 C :   -0.008876
   7 N :    0.177443
   8 C :    0.040403
   9 N :   -0.138417
  10 C :    0.041423
  11 N :    0.137831
  12 C :   -0.095879
  13 N :    0.110547
  14 C :   -0.062919
  15 N :    0.133834
  16 C :   -0.013874
  17 C :   -0.012512
  18 C :   -0.122384
  19 C :   -0.089256
  20 C :   -0.021286
  21 C :   -0.098526
  22 C :    0.030322
  23 C :   -0.035798
  24 C :    0.007375
  25 C :    0.028928
  26 C :   -0.090373
  27 C :   -0.050201
  28 C :   -0.014557
  29 C :   -0.119076
  30 C :   -0.067142
  31 C :   -0.029314
  32 C :   -0.100650
  33 C :   -0.011048
  34 C :   -0.027544
  35 C :   -0.038098
  36 C :    0.022425
  37 C :   -0.111156
  38 C :   -0.027692
  39 C :   -0.035506
  40 C :   -0.114021
  41 C :   -0.093627
  42 C :    0.001055
  43 C :   -0.115359
  44 C :    0.025460
  45 C :   -0.013484
  46 C :   -0.026114
  47 C :    0.027978
  48 C :   -0.115829
  49 C :   -0.120622
  50 C :   -0.035023
  51 C :   -0.107903
  52 H :    0.043375
  53 H :    0.008239
  54 H :    0.057077
  55 H :    0.042952
  56 H :    0.041417
  57 H :    0.040798
  58 H :    0.040350
  59 H :   -0.001043
  60 H :    0.056479
  61 H :    0.062884
  62 H :    0.057381
  63 H :    0.028124
  64 H :   -0.005800
  65 H :    0.041011
  66 H :    0.029535
  67 H :    0.025811
  68 H :    0.030718
  69 H :    0.031045
  70 H :    0.003900
  71 H :    0.045174
  72 H :    0.021117
  73 H :    0.001614
  74 H :    0.036960
  75 H :    0.020091
  76 H :    0.019156
  77 H :    0.025310
  78 H :    0.025006
  79 H :    0.005694
  80 H :    0.036007
  81 H :    0.027736
  82 H :   -0.001323
  83 H :    0.044075
  84 H :    0.026353
  85 H :    0.023900
  86 H :    0.030262
  87 H :    0.029882
  88 H :   -0.005662
  89 H :    0.040046

  Mayer bond orders larger than 0.100000
B(  0-C ,  1-N ) :   1.2168 B(  0-C , 17-C ) :   1.5056 B(  0-C , 52-H ) :   0.9665
B(  1-N ,  8-C ) :   1.2085 B(  1-N , 10-C ) :   0.9229 B(  2-C , 12-C ) :   1.5842
B(  2-C , 16-C ) :   1.2689 B(  2-C , 53-H ) :   0.9794 B(  3-N , 14-C ) :   1.1737
B(  3-N , 16-C ) :   1.2020 B(  3-N , 61-H ) :   0.8950 B(  4-C ,  6-C ) :   1.3654
B(  4-C , 17-C ) :   1.3657 B(  4-C , 18-C ) :   1.0428 B(  5-N , 19-C ) :   1.3623
B(  5-N , 27-C ) :   1.4500 B(  6-C ,  8-C ) :   1.5071 B(  6-C , 54-H ) :   0.9704
B(  7-N , 30-C ) :   1.1834 B(  7-N , 38-C ) :   1.2164 B(  7-N , 62-H ) :   0.9016
B(  8-C , 55-H ) :   0.9674 B(  9-N , 41-C ) :   1.4364 B(  9-N , 49-C ) :   1.3915
B( 10-C , 56-H ) :   0.9768 B( 10-C , 57-H ) :   0.9805 B( 10-C , 58-H ) :   0.9815
B( 11-N , 20-C ) :   1.0945 B( 11-N , 24-C ) :   1.1343 B( 11-N , 25-C ) :   0.9629
B( 12-C , 14-C ) :   1.2692 B( 12-C , 59-H ) :   0.9768 B( 13-N , 31-C ) :   1.0801
B( 13-N , 35-C ) :   1.0695 B( 13-N , 36-C ) :   0.9836 B( 14-C , 18-C ) :   1.2661
B( 15-N , 42-C ) :   1.1266 B( 15-N , 46-C ) :   1.0874 B( 15-N , 47-C ) :   0.9668
B( 16-C , 51-C ) :   1.2518 B( 17-C , 60-H ) :   0.9708 B( 18-C , 19-C ) :   1.3168
B( 19-C , 21-C ) :   1.1591 B( 20-C , 28-C ) :   1.6302 B( 20-C , 63-H ) :   0.9710
B( 21-C , 26-C ) :   1.6856 B( 21-C , 64-H ) :   0.9714 B( 22-C , 23-C ) :   1.2533
B( 22-C , 28-C ) :   1.2795 B( 22-C , 29-C ) :   1.2585 B( 23-C , 24-C ) :   1.6365
B( 23-C , 65-H ) :   0.9723 B( 24-C , 66-H ) :   0.9691 B( 25-C , 67-H ) :   0.9762
B( 25-C , 68-H ) :   0.9834 B( 25-C , 69-H ) :   0.9819 B( 26-C , 27-C ) :   1.1691
B( 26-C , 70-H ) :   0.9759 B( 27-C , 29-C ) :   1.2443 B( 28-C , 71-H ) :   0.9709
B( 29-C , 30-C ) :   1.1727 B( 30-C , 32-C ) :   1.3534 B( 31-C , 39-C ) :   1.6879
B( 31-C , 72-H ) :   0.9709 B( 32-C , 37-C ) :   1.5069 B( 32-C , 73-H ) :   0.9771
B( 33-C , 34-C ) :   1.2301 B( 33-C , 39-C ) :   1.2224 B( 33-C , 40-C ) :   1.3646
B( 34-C , 35-C ) :   1.6865 B( 34-C , 74-H ) :   0.9710 B( 35-C , 75-H ) :   0.9709
B( 36-C , 76-H ) :   0.9754 B( 36-C , 77-H ) :   0.9826 B( 36-C , 78-H ) :   0.9838
B( 37-C , 38-C ) :   1.3464 B( 37-C , 79-H ) :   0.9794 B( 38-C , 40-C ) :   1.1767
B( 39-C , 80-H ) :   0.9721 B( 40-C , 41-C ) :   1.1655 B( 41-C , 43-C ) :   1.2589
B( 42-C , 50-C ) :   1.6429 B( 42-C , 81-H ) :   0.9696 B( 43-C , 48-C ) :   1.5922
B( 43-C , 82-H ) :   0.9757 B( 44-C , 45-C ) :   1.2814 B( 44-C , 50-C ) :   1.2476
B( 44-C , 51-C ) :   1.2463 B( 45-C , 46-C ) :   1.6333 B( 45-C , 83-H ) :   0.9702
B( 46-C , 84-H ) :   0.9710 B( 47-C , 85-H ) :   0.9759 B( 47-C , 86-H ) :   0.9825
B( 47-C , 87-H ) :   0.9830 B( 48-C , 49-C ) :   1.2530 B( 48-C , 88-H ) :   0.9725
B( 49-C , 51-C ) :   1.1875 B( 50-C , 89-H ) :   0.9723

MP2 TOTAL ENERGY:    -2130.868778004 Eh
FINAL SINGLE POINT ENERGY     -2130.868778004055

DIPOLE MOMENT
-------------
                                X             Y             Z
Electronic contribution:     -4.73762       5.63791      -0.15178
Nuclear contribution   :     -0.02784       0.16605       0.20865
                        -----------------------------------------
Total Dipole Moment    :     -4.76546       5.80396       0.05687
                        -----------------------------------------
Magnitude (a.u.)       :      7.50991
Magnitude (Debye)      :     19.08868

Rotational constants in cm-1:     0.001498     0.001472     0.000763
Rotational constants in MHz :    44.900811    44.137379    22.868897

                             ****ORCA TERMINATED NORMALLY****
TOTAL RUN TIME: 0 days 1 hours 13 minutes 51 seconds 879 msec
