                         Program Version 5.0.4 -  RELEASE  -
|  1> ! PAL2
|  2> ! mp2 cc-pvdz TightSCF  NoKeepInts
|  3>
|  4> %scf
|  5>   MaxCore 2000
|  6> end
|  7> %mp2
|  8>   MaxCore 2000
|  9> end
| 10> * xyz 0 1
| 11>    C       -4.75800         5.30300         0.78200
| 12>    C        1.47400         4.04100         0.05700
| 13>    C       -2.80200         4.09300         0.04900
| 14>    C       -2.42800         5.23700        -0.67300
| 15>    C       -3.22200         6.36600        -0.64300
| 16>    C       -5.17800         7.62600         0.11600
| 17>    C        0.13200         4.30700         0.06100
| 18>    C       -0.56900         3.05600         0.04700
| 19>    C        1.64900         2.61800         0.02300
| 20>    C       -3.99400         4.15100         0.78700
| 21>    N       -4.36900         6.38800         0.07400
| 22>    N        0.38800         2.06700         0.02500
| 23>    N       -2.01000         0.39500        -0.07500
| 24>    N       -0.38800        -2.07400        -0.02700
| 25>    N        2.01000        -0.40100         0.06500
| 26>    C       -1.96000         2.86100         0.02400
| 27>    C       -2.62300         1.61500        -0.01800
| 28>    C       -5.57300        -4.32900         1.06600
| 29>    C       -4.07300         1.47100         0.05600
| 30>    C       -4.10600        -2.75600        -0.02600
| 31>    C       -4.99500        -2.75700        -1.11100
| 32>    C       -6.13200        -3.54200        -1.07600
| 33>    C       -7.65100        -5.11300         0.04000
| 34>    C       -4.32400         0.14100         0.03700
| 35>    C       -3.02500        -0.52000        -0.04800
| 36>    C       -4.42200        -3.56600         1.07500
| 37>    N       -6.40700        -4.31300         0.00100
| 38>    C       -2.86700        -1.92200        -0.04000
| 39>    C       -1.65000        -2.62400        -0.02700
| 40>    C        3.56800        -6.14200        -1.04000
| 41>    C       -1.47600        -4.04900        -0.03400
| 42>    C        2.80300        -4.09900        -0.00800
| 43>    C        3.65700        -4.38400         1.06900
| 44>    C        4.42700        -5.53000         1.05900
| 45>    C        5.24500        -7.58800         0.01400
| 46>    C       -0.13400        -4.31500        -0.02200
| 47>    C        0.56800        -3.06400        -0.02700
| 48>    C        2.77500        -5.01200        -1.07400
| 49>    N        4.37600        -6.39100         0.01700
| 50>    C        1.95900        -2.86900        -0.00900
| 51>    C        2.62100        -1.62200         0.00900
| 52>    C        5.54300         4.33900        -1.13000
| 53>    C        4.07000        -1.47900        -0.09400
| 54>    C        4.10400         2.75100        -0.02100
| 55>    C        5.02700         2.72900         1.03600
| 56>    C        6.16600         3.50900         0.97800
| 57>    C        7.61900         5.15300        -0.11500
| 58>    C        4.32100        -0.14800        -0.09200
| 59>    C        3.02500         0.51400         0.01500
| 60>    C        4.38700         3.58200        -1.11500
| 61>    C        2.86600         1.91600         0.01300
| 62>    N        6.41300         4.29600        -0.09500
| 63>    H       -5.69000         5.38800         1.32600
| 64>    H        2.27400         4.76600         0.08100
| 65>    H       -1.51400         5.25700        -1.25500
| 66>    H       -2.97000         7.27400        -1.17600
| 67>    H       -4.79400         8.27500         0.90700
| 68>    H       -5.10300         8.12700        -0.84900
| 69>    H       -6.21500         7.36100         0.32000
| 70>    H       -0.33200         5.28200         0.06900
| 71>    H       -4.34400         3.29600         1.35400
| 72>    H        0.18200         1.07200         0.00500
| 73>    H       -0.18300        -1.08000        -0.02100
| 74>    H       -5.86400        -4.96200         1.89500
| 75>    H       -4.79400         2.27200         0.13900
| 76>    H       -4.80000        -2.16000        -1.99400
| 77>    H       -6.84100        -3.58200        -1.89300
| 78>    H       -8.42800        -4.53600         0.54600
| 79>    H       -7.95600        -5.33700        -0.98100
| 80>    H       -7.45600        -6.03700         0.58400
| 81>    H       -5.28700        -0.34400         0.10000
| 82>    H       -3.78000        -3.60100         1.94700
| 83>    H        3.58700        -6.86800        -1.84300
| 84>    H       -2.27600        -4.77400        -0.05000
| 85>    H        3.71400        -3.72400         1.92600
| 86>    H        5.09200        -5.79500         1.87100
| 87>    H        6.20500        -7.32900        -0.43900
| 88>    H        5.39300        -7.91700         1.04200
| 89>    H        4.75900        -8.37300        -0.56400
| 90>    H        0.32900        -5.29000        -0.00800
| 91>    H        2.14600        -4.84200        -1.94000
| 92>    H        5.80800         4.98600        -1.95600
| 93>    H        4.78800        -2.28100        -0.18500
| 94>    H        4.86000         2.11400         1.91200
| 95>    H        6.90100         3.53100         1.77200
| 96>    H        7.38300         6.10900         0.35600
| 97>    H        8.41400         4.65200         0.43500
| 98>    H        7.92100         5.31000        -1.15000
| 99>    H        5.28300         0.33600        -0.17900
|100>    H        3.72000         3.63200        -1.96700
|101> *
|102>
|103>                          ****END OF INPUT****

CARTESIAN COORDINATES (ANGSTROEM)
---------------------------------
  C     -4.758000    5.303000    0.782000
  C      1.474000    4.041000    0.057000
  C     -2.802000    4.093000    0.049000
  C     -2.428000    5.237000   -0.673000
  C     -3.222000    6.366000   -0.643000
  C     -5.178000    7.626000    0.116000
  C      0.132000    4.307000    0.061000
  C     -0.569000    3.056000    0.047000
  C      1.649000    2.618000    0.023000
  C     -3.994000    4.151000    0.787000
  N     -4.369000    6.388000    0.074000
  N      0.388000    2.067000    0.025000
  N     -2.010000    0.395000   -0.075000
  N     -0.388000   -2.074000   -0.027000
  N      2.010000   -0.401000    0.065000
  C     -1.960000    2.861000    0.024000
  C     -2.623000    1.615000   -0.018000
  C     -5.573000   -4.329000    1.066000
  C     -4.073000    1.471000    0.056000
  C     -4.106000   -2.756000   -0.026000
  C     -4.995000   -2.757000   -1.111000
  C     -6.132000   -3.542000   -1.076000
  C     -7.651000   -5.113000    0.040000
  C     -4.324000    0.141000    0.037000
  C     -3.025000   -0.520000   -0.048000
  C     -4.422000   -3.566000    1.075000
  N     -6.407000   -4.313000    0.001000
  C     -2.867000   -1.922000   -0.040000
  C     -1.650000   -2.624000   -0.027000
  C      3.568000   -6.142000   -1.040000
  C     -1.476000   -4.049000   -0.034000
  C      2.803000   -4.099000   -0.008000
  C      3.657000   -4.384000    1.069000
  C      4.427000   -5.530000    1.059000
  C      5.245000   -7.588000    0.014000
  C     -0.134000   -4.315000   -0.022000
  C      0.568000   -3.064000   -0.027000
  C      2.775000   -5.012000   -1.074000
  N      4.376000   -6.391000    0.017000
  C      1.959000   -2.869000   -0.009000
  C      2.621000   -1.622000    0.009000
  C      5.543000    4.339000   -1.130000
  C      4.070000   -1.479000   -0.094000
  C      4.104000    2.751000   -0.021000
  C      5.027000    2.729000    1.036000
  C      6.166000    3.509000    0.978000
  C      7.619000    5.153000   -0.115000
  C      4.321000   -0.148000   -0.092000
  C      3.025000    0.514000    0.015000
  C      4.387000    3.582000   -1.115000
  C      2.866000    1.916000    0.013000
  N      6.413000    4.296000   -0.095000
  H     -5.690000    5.388000    1.326000
  H      2.274000    4.766000    0.081000
  H     -1.514000    5.257000   -1.255000
  H     -2.970000    7.274000   -1.176000
  H     -4.794000    8.275000    0.907000
  H     -5.103000    8.127000   -0.849000
  H     -6.215000    7.361000    0.320000
  H     -0.332000    5.282000    0.069000
  H     -4.344000    3.296000    1.354000
  H      0.182000    1.072000    0.005000
  H     -0.183000   -1.080000   -0.021000
  H     -5.864000   -4.962000    1.895000
  H     -4.794000    2.272000    0.139000
  H     -4.800000   -2.160000   -1.994000
  H     -6.841000   -3.582000   -1.893000
  H     -8.428000   -4.536000    0.546000
  H     -7.956000   -5.337000   -0.981000
  H     -7.456000   -6.037000    0.584000
  H     -5.287000   -0.344000    0.100000
  H     -3.780000   -3.601000    1.947000
  H      3.587000   -6.868000   -1.843000
  H     -2.276000   -4.774000   -0.050000
  H      3.714000   -3.724000    1.926000
  H      5.092000   -5.795000    1.871000
  H      6.205000   -7.329000   -0.439000
  H      5.393000   -7.917000    1.042000
  H      4.759000   -8.373000   -0.564000
  H      0.329000   -5.290000   -0.008000
  H      2.146000   -4.842000   -1.940000
  H      5.808000    4.986000   -1.956000
  H      4.788000   -2.281000   -0.185000
  H      4.860000    2.114000    1.912000
  H      6.901000    3.531000    1.772000
  H      7.383000    6.109000    0.356000
  H      8.414000    4.652000    0.435000
  H      7.921000    5.310000   -1.150000
  H      5.283000    0.336000   -0.179000
  H      3.720000    3.632000   -1.967000

 Total Charge           Charge          ....    0
 Multiplicity           Mult            ....    1
 Number of Electrons    NEL             ....  358
 Basis Dimension        Dim             ....  918

ORBITAL ENERGIES
----------------

  NO   OCC          E(Eh)            E(eV)
   0   2.0000     -15.666271      -426.3009
   1   2.0000     -15.635984      -425.4768
   2   2.0000     -15.630132      -425.3175
   3   2.0000     -15.597089      -424.4184
   4   2.0000     -15.523712      -422.4217
   5   2.0000     -15.516359      -422.2216
   6   2.0000     -15.450776      -420.4370
   7   2.0000     -15.442293      -420.2062
   8   2.0000     -11.319577      -308.0213
   9   2.0000     -11.318450      -307.9907
  10   2.0000     -11.316676      -307.9424
  11   2.0000     -11.300566      -307.5040
  12   2.0000     -11.297200      -307.4124
  13   2.0000     -11.293960      -307.3243
  14   2.0000     -11.289020      -307.1898
  15   2.0000     -11.288902      -307.1866
  16   2.0000     -11.285743      -307.1007
  17   2.0000     -11.277174      -306.8675
  18   2.0000     -11.269344      -306.6544
  19   2.0000     -11.261134      -306.4310
  20   2.0000     -11.260681      -306.4187
  21   2.0000     -11.253860      -306.2331
  22   2.0000     -11.252925      -306.2076
  23   2.0000     -11.239526      -305.8431
  24   2.0000     -11.234865      -305.7162
  25   2.0000     -11.232615      -305.6550
  26   2.0000     -11.231820      -305.6334
  27   2.0000     -11.228388      -305.5400
  28   2.0000     -11.228287      -305.5372
  29   2.0000     -11.207985      -304.9848
  30   2.0000     -11.206893      -304.9551
  31   2.0000     -11.206377      -304.9410
  32   2.0000     -11.201335      -304.8038
  33   2.0000     -11.199242      -304.7469
  34   2.0000     -11.190914      -304.5202
  35   2.0000     -11.190213      -304.5012
  36   2.0000     -11.185389      -304.3699
  37   2.0000     -11.182856      -304.3010
  38   2.0000     -11.181972      -304.2769
  39   2.0000     -11.172870      -304.0292
  40   2.0000     -11.169847      -303.9470
  41   2.0000     -11.169408      -303.9350
  42   2.0000     -11.165779      -303.8363
  43   2.0000     -11.163367      -303.7707
  44   2.0000     -11.161551      -303.7212
  45   2.0000     -11.160044      -303.6802
  46   2.0000     -11.155780      -303.5642
  47   2.0000     -11.151681      -303.4527
  48   2.0000     -11.149319      -303.3884
  49   2.0000     -11.143290      -303.2243
  50   2.0000     -11.135113      -303.0018
  51   2.0000     -11.127634      -302.7983
  52   2.0000      -1.348877       -36.7048
  53   2.0000      -1.322940       -35.9990
  54   2.0000      -1.318085       -35.8669
  55   2.0000      -1.290506       -35.1164
  56   2.0000      -1.223806       -33.3015
  57   2.0000      -1.211137       -32.9567
  58   2.0000      -1.169109       -31.8131
  59   2.0000      -1.153699       -31.3937
  60   2.0000      -1.133948       -30.8563
  61   2.0000      -1.111542       -30.2466
  62   2.0000      -1.107642       -30.1405
  63   2.0000      -1.085332       -29.5334
  64   2.0000      -1.071391       -29.1540
  65   2.0000      -1.047013       -28.4907
  66   2.0000      -1.042812       -28.3764
  67   2.0000      -1.034845       -28.1596
  68   2.0000      -1.018199       -27.7066
  69   2.0000      -1.013752       -27.5856
  70   2.0000      -1.009799       -27.4780
  71   2.0000      -0.992498       -27.0072
  72   2.0000      -0.987409       -26.8688
  73   2.0000      -0.977461       -26.5981
  74   2.0000      -0.972912       -26.4743
  75   2.0000      -0.959891       -26.1200
  76   2.0000      -0.951530       -25.8924
  77   2.0000      -0.947768       -25.7901
  78   2.0000      -0.935964       -25.4689
  79   2.0000      -0.920952       -25.0604
  80   2.0000      -0.901519       -24.5316
  81   2.0000      -0.891605       -24.2618
  82   2.0000      -0.874573       -23.7984
  83   2.0000      -0.870913       -23.6987
  84   2.0000      -0.866452       -23.5774
  85   2.0000      -0.855899       -23.2902
  86   2.0000      -0.843763       -22.9599
  87   2.0000      -0.837630       -22.7931
  88   2.0000      -0.823012       -22.3953
  89   2.0000      -0.798480       -21.7277
  90   2.0000      -0.794003       -21.6059
  91   2.0000      -0.746235       -20.3061
  92   2.0000      -0.738736       -20.1020
  93   2.0000      -0.731881       -19.9155
  94   2.0000      -0.722989       -19.6735
  95   2.0000      -0.720971       -19.6186
  96   2.0000      -0.714283       -19.4366
  97   2.0000      -0.707700       -19.2575
  98   2.0000      -0.703704       -19.1488
  99   2.0000      -0.696017       -18.9396
 100   2.0000      -0.694713       -18.9041
 101   2.0000      -0.682473       -18.5710
 102   2.0000      -0.678795       -18.4710
 103   2.0000      -0.676363       -18.4048
 104   2.0000      -0.675468       -18.3804
 105   2.0000      -0.671994       -18.2859
 106   2.0000      -0.666077       -18.1249
 107   2.0000      -0.662196       -18.0193
 108   2.0000      -0.655147       -17.8274
 109   2.0000      -0.654185       -17.8013
 110   2.0000      -0.650018       -17.6879
 111   2.0000      -0.645724       -17.5710
 112   2.0000      -0.642078       -17.4718
 113   2.0000      -0.637942       -17.3593
 114   2.0000      -0.636276       -17.3140
 115   2.0000      -0.629000       -17.1159
 116   2.0000      -0.625896       -17.0315
 117   2.0000      -0.616541       -16.7769
 118   2.0000      -0.613881       -16.7045
 119   2.0000      -0.611803       -16.6480
 120   2.0000      -0.610058       -16.6005
 121   2.0000      -0.603056       -16.4100
 122   2.0000      -0.600755       -16.3474
 123   2.0000      -0.588218       -16.0062
 124   2.0000      -0.584371       -15.9015
 125   2.0000      -0.582005       -15.8372
 126   2.0000      -0.579417       -15.7667
 127   2.0000      -0.577186       -15.7060
 128   2.0000      -0.564158       -15.3515
 129   2.0000      -0.558602       -15.2003
 130   2.0000      -0.553681       -15.0664
 131   2.0000      -0.548460       -14.9244
 132   2.0000      -0.541874       -14.7451
 133   2.0000      -0.538254       -14.6466
 134   2.0000      -0.536513       -14.5993
 135   2.0000      -0.535096       -14.5607
 136   2.0000      -0.526371       -14.3233
 137   2.0000      -0.524619       -14.2756
 138   2.0000      -0.516730       -14.0609
 139   2.0000      -0.514631       -14.0038
 140   2.0000      -0.511341       -13.9143
 141   2.0000      -0.510780       -13.8990
 142   2.0000      -0.508672       -13.8417
 143   2.0000      -0.502830       -13.6827
 144   2.0000      -0.501483       -13.6461
 145   2.0000      -0.497846       -13.5471
 146   2.0000      -0.494166       -13.4469
 147   2.0000      -0.485835       -13.2203
 148   2.0000      -0.482884       -13.1399
 149   2.0000      -0.468153       -12.7391
 150   2.0000      -0.464483       -12.6392
 151   2.0000      -0.456494       -12.4218
 152   2.0000      -0.449166       -12.2224
 153   2.0000      -0.446045       -12.1375
 154   2.0000      -0.443473       -12.0675
 155   2.0000      -0.440187       -11.9781
 156   2.0000      -0.431063       -11.7298
 157   2.0000      -0.424276       -11.5451
 158   2.0000      -0.401332       -10.9208
 159   2.0000      -0.387706       -10.5500
 160   2.0000      -0.379156       -10.3173
 161   2.0000      -0.377683       -10.2773
 162   2.0000      -0.370329       -10.0772
 163   2.0000      -0.357915        -9.7394
 164   2.0000      -0.354560        -9.6481
 165   2.0000      -0.338667        -9.2156
 166   2.0000      -0.337137        -9.1740
 167   2.0000      -0.330130        -8.9833
 168   2.0000      -0.327108        -8.9010
 169   2.0000      -0.302353        -8.2275
 170   2.0000      -0.299829        -8.1588
 171   2.0000      -0.286927        -7.8077
 172   2.0000      -0.283975        -7.7273
 173   2.0000      -0.260922        -7.1000
 174   2.0000      -0.244728        -6.6594
 175   2.0000      -0.189572        -5.1585
 176   2.0000      -0.179817        -4.8931
 177   2.0000      -0.073064        -1.9882
 178   2.0000      -0.057345        -1.5604
 179   0.0000       0.028978         0.7885
 180   0.0000       0.067652         1.8409
 181   0.0000       0.091911         2.5010
 182   0.0000       0.106296         2.8925
 183   0.0000       0.115185         3.1343

MULLIKEN ATOMIC CHARGES
-----------------------
   0 C :    0.208161
   1 N :   -0.452582
   2 C :   -0.063115
   3 N :   -0.336154
   4 C :   -0.049045
   5 N :   -0.563169
   6 C :   -0.108280
   7 N :   -0.339622
   8 C :    0.204937
   9 N :   -0.562603
  10 C :    0.118005
  11 N :   -0.438000
  12 C :   -0.083862
  13 N :   -0.432639
  14 C :    0.238830
  15 N :   -0.441128
  16 C :    0.228215
  17 C :   -0.108449
  18 C :   -0.204152
  19 C :    0.232418
  20 C :    0.212253
  21 C :   -0.095434
  22 C :   -0.090327
  23 C :   -0.041872
  24 C :    0.196990
  25 C :    0.114332
  26 C :   -0.075912
  27 C :    0.214005
  28 C :   -0.059258
  29 C :   -0.180520
  30 C :    0.242986
  31 C :    0.224737
  32 C :   -0.062673
  33 C :   -0.066749
  34 C :   -0.050484
  35 C :    0.220751
  36 C :    0.110010
  37 C :   -0.065139
  38 C :    0.233232
  39 C :   -0.059000
  40 C :   -0.183528
  41 C :    0.224346
  42 C :    0.198657
  43 C :   -0.072645
  44 C :   -0.089827
  45 C :   -0.058863
  46 C :    0.208926
  47 C :    0.115522
  48 C :   -0.069093
  49 C :    0.235312
  50 C :   -0.048382
  51 C :   -0.190866
  52 H :    0.042925
  53 H :   -0.015797
  54 H :    0.049248
  55 H :    0.041074
  56 H :    0.051000
  57 H :    0.049380
  58 H :    0.049466
  59 H :    0.000053
  60 H :    0.052137
  61 H :    0.171522
  62 H :    0.174770
  63 H :    0.055797
  64 H :   -0.008400
  65 H :    0.047584
  66 H :    0.056508
  67 H :    0.062589
  68 H :    0.057671
  69 H :    0.057152
  70 H :   -0.028054
  71 H :    0.045668
  72 H :    0.066953
  73 H :   -0.009621
  74 H :    0.056365
  75 H :    0.066218
  76 H :    0.071081
  77 H :    0.065068
  78 H :    0.064316
  79 H :   -0.015650
  80 H :    0.057084
  81 H :    0.053700
  82 H :   -0.024451
  83 H :    0.042115
  84 H :    0.053739
  85 H :    0.060218
  86 H :    0.055631
  87 H :    0.056823
  88 H :   -0.016365
  89 H :    0.045229
Sum of atomic charges:   -0.0000000

LOEWDIN ATOMIC CHARGES
----------------------
   0 C :   -0.017773
   1 N :    0.119422
   2 C :   -0.101098
   3 N :    0.182879
   4 C :    0.000401
   5 N :   -0.133430
   6 C :   -0.037510
   7 N :    0.176299
   8 C :   -0.020904
   9 N :   -0.140182
  10 C :    0.024653
  11 N :    0.142969
  12 C :   -0.110141
  13 N :    0.158835
  14 C :   -0.033045
  15 N :    0.138274
  16 C :   -0.056458
  17 C :   -0.038051
  18 C :   -0.102963
  19 C :   -0.083171
  20 C :    0.003781
  21 C :   -0.117162
  22 C :    0.038217
  23 C :   -0.015762
  24 C :   -0.009345
  25 C :    0.030047
  26 C :   -0.105987
  27 C :   -0.111383
  28 C :   -0.025812
  29 C :   -0.101449
  30 C :   -0.034533
  31 C :    0.017794
  32 C :   -0.095632
  33 C :    0.069356
  34 C :   -0.016264
  35 C :    0.014543
  36 C :    0.033577
  37 C :   -0.096354
  38 C :   -0.048628
  39 C :   -0.019953
  40 C :   -0.108334
  41 C :   -0.092326
  42 C :   -0.009568
  43 C :   -0.100748
  44 C :    0.032626
  45 C :   -0.026539
  46 C :   -0.000508
  47 C :    0.029354
  48 C :   -0.097502
  49 C :   -0.075083
  50 C :   -0.020412
  51 C :   -0.108671
  52 H :    0.024901
  53 H :    0.003464
  54 H :    0.040740
  55 H :    0.024351
  56 H :    0.022530
  57 H :    0.027092
  58 H :    0.027961
  59 H :    0.009064
  60 H :    0.042575
  61 H :    0.060153
  62 H :    0.061496
  63 H :    0.030889
  64 H :    0.004239
  65 H :    0.045951
  66 H :    0.029733
  67 H :    0.028333
  68 H :    0.031824
  69 H :    0.030638
  70 H :   -0.003706
  71 H :    0.043957
  72 H :    0.035675
  73 H :    0.006337
  74 H :    0.049000
  75 H :    0.035180
  76 H :    0.032805
  77 H :    0.034805
  78 H :    0.034474
  79 H :    0.003423
  80 H :    0.048875
  81 H :    0.028841
  82 H :   -0.002487
  83 H :    0.042734
  84 H :    0.029598
  85 H :    0.027066
  86 H :    0.030200
  87 H :    0.031222
  88 H :    0.001488
  89 H :    0.044234

  Mayer bond orders larger than 0.100000
B(  0-C ,  1-N ) :   1.0942 B(  0-C , 17-C ) :   1.6926 B(  0-C , 52-H ) :   0.9678
B(  1-N ,  8-C ) :   1.0921 B(  1-N , 10-C ) :   0.9750 B(  2-C , 12-C ) :   1.5149
B(  2-C , 16-C ) :   1.3491 B(  2-C , 53-H ) :   0.9760 B(  3-N , 14-C ) :   1.2160
B(  3-N , 16-C ) :   1.1920 B(  3-N , 61-H ) :   0.8990 B(  4-C ,  6-C ) :   1.2204
B(  4-C , 17-C ) :   1.2205 B(  4-C , 18-C ) :   1.4038 B(  5-N , 19-C ) :   1.4466
B(  5-N , 27-C ) :   1.3837 B(  6-C ,  8-C ) :   1.6914 B(  6-C , 54-H ) :   0.9637
B(  7-N , 30-C ) :   1.1952 B(  7-N , 38-C ) :   1.1937 B(  7-N , 62-H ) :   0.8972
B(  8-C , 55-H ) :   0.9685 B(  9-N , 41-C ) :   1.3973 B(  9-N , 49-C ) :   1.4235
B( 10-C , 56-H ) :   0.9768 B( 10-C , 57-H ) :   0.9821 B( 10-C , 58-H ) :   0.9842
B( 11-N , 20-C ) :   1.1298 B( 11-N , 24-C ) :   1.1114 B( 11-N , 25-C ) :   0.9594
B( 12-C , 14-C ) :   1.3499 B( 12-C , 59-H ) :   0.9743 B( 13-N , 31-C ) :   1.1502
B( 13-N , 35-C ) :   1.1462 B( 13-N , 36-C ) :   0.9469 B( 14-C , 18-C ) :   1.1433
B( 15-N , 42-C ) :   1.1092 B( 15-N , 46-C ) :   1.1206 B( 15-N , 47-C ) :   0.9619
B( 16-C , 51-C ) :   1.1772 B( 17-C , 60-H ) :   0.9627 B( 18-C , 19-C ) :   1.1505
B( 19-C , 21-C ) :   1.2368 B( 20-C , 28-C ) :   1.6266 B( 20-C , 63-H ) :   0.9703
B( 21-C , 26-C ) :   1.6193 B( 21-C , 64-H ) :   0.9698 B( 22-C , 23-C ) :   1.2888
B( 22-C , 28-C ) :   1.2671 B( 22-C , 29-C ) :   1.2227 B( 23-C , 24-C ) :   1.6188
B( 23-C , 65-H ) :   0.9705 B( 24-C , 66-H ) :   0.9694 B( 25-C , 67-H ) :   0.9760
B( 25-C , 68-H ) :   0.9828 B( 25-C , 69-H ) :   0.9822 B( 26-C , 27-C ) :   1.2326
B( 26-C , 70-H ) :   0.9715 B( 27-C , 29-C ) :   1.2195 B( 28-C , 71-H ) :   0.9718
B( 29-C , 30-C ) :   1.2336 B( 30-C , 32-C ) :   1.2902 B( 31-C , 39-C ) :   1.6009
B( 31-C , 72-H ) :   0.9686 B( 32-C , 37-C ) :   1.5687 B( 32-C , 73-H ) :   0.9784
B( 33-C , 34-C ) :   1.2980 B( 33-C , 39-C ) :   1.2928 B( 33-C , 40-C ) :   1.1974
B( 34-C , 35-C ) :   1.5979 B( 34-C , 74-H ) :   0.9699 B( 35-C , 75-H ) :   0.9686
B( 36-C , 76-H ) :   0.9766 B( 36-C , 77-H ) :   0.9817 B( 36-C , 78-H ) :   0.9826
B( 37-C , 38-C ) :   1.2939 B( 37-C , 79-H ) :   0.9769 B( 38-C , 40-C ) :   1.2253
B( 39-C , 80-H ) :   0.9708 B( 40-C , 41-C ) :   1.2418 B( 41-C , 43-C ) :   1.1931
B( 42-C , 50-C ) :   1.6340 B( 42-C , 81-H ) :   0.9697 B( 43-C , 48-C ) :   1.6591
B( 43-C , 82-H ) :   0.9726 B( 44-C , 45-C ) :   1.2650 B( 44-C , 50-C ) :   1.2702
B( 44-C , 51-C ) :   1.2604 B( 45-C , 46-C ) :   1.6350 B( 45-C , 83-H ) :   0.9717
B( 46-C , 84-H ) :   0.9701 B( 47-C , 85-H ) :   0.9762 B( 47-C , 86-H ) :   0.9829
B( 47-C , 87-H ) :   0.9825 B( 48-C , 49-C ) :   1.1958 B( 48-C , 88-H ) :   0.9746
B( 49-C , 51-C ) :   1.2356 B( 50-C , 89-H ) :   0.9711

MP2 TOTAL ENERGY:    -2130.901550451 Eh
FINAL SINGLE POINT ENERGY     -2130.901550450893

DIPOLE MOMENT
-------------
                                X             Y             Z
Electronic contribution:      1.77546      -3.37851      -0.14794
Nuclear contribution   :      0.07955       0.24045       0.15118
                        -----------------------------------------
Total Dipole Moment    :      1.85501      -3.13807       0.00324
                        -----------------------------------------
Magnitude (a.u.)       :      3.64534
Magnitude (Debye)      :      9.26572

Rotational constants in cm-1:     0.001500     0.001477     0.000761
Rotational constants in MHz :    44.963208    44.287501    22.812064

                             ****ORCA TERMINATED NORMALLY****
TOTAL RUN TIME: 0 days 1 hours 19 minutes 28 seconds 769 msec
