                         Program Version 5.0.4 -  RELEASE  -
|  1> ! PAL2
|  2> ! mp2 cc-pvdz TightSCF  NoKeepInts
|  3>
|  4> %scf
|  5>   MaxCore 2000
|  6> end
|  7> %mp2
|  8>   MaxCore 2000
|  9> end
| 10> * xyz 0 1
| 11>    C       -3.30700         6.32400        -0.71900
| 12>    C        1.47400         4.04100         0.05700
| 13>    C       -2.80200         4.09300         0.04900
| 14>    C       -3.91000         4.19200         0.90500
| 15>    C       -4.67500         5.34100         0.91800
| 16>    C       -5.23000         7.59000         0.12800
| 17>    C        0.13200         4.30700         0.06100
| 18>    C       -0.56900         3.05600         0.04700
| 19>    C        1.64900         2.61800         0.02300
| 20>    C       -2.51500         5.19400        -0.77300
| 21>    N       -4.36800         6.38700         0.11700
| 22>    N        0.38800         2.06700         0.02500
| 23>    N       -2.01000         0.39500        -0.07500
| 24>    N       -0.38800        -2.07400        -0.02700
| 25>    N        2.01000        -0.40100         0.06500
| 26>    C       -1.96000         2.86100         0.02400
| 27>    C       -2.62300         1.61500        -0.01800
| 28>    C       -5.57300        -4.32900         1.06600
| 29>    C       -4.07300         1.47100         0.05600
| 30>    C       -4.10600        -2.75600        -0.02600
| 31>    C       -4.99500        -2.75700        -1.11100
| 32>    C       -6.13200        -3.54200        -1.07600
| 33>    C       -7.65100        -5.11300         0.04000
| 34>    C       -4.32400         0.14100         0.03700
| 35>    C       -3.02500        -0.52000        -0.04800
| 36>    C       -4.42200        -3.56600         1.07500
| 37>    N       -6.40700        -4.31300         0.00100
| 38>    C       -2.86700        -1.92200        -0.04000
| 39>    C       -1.65000        -2.62400        -0.02700
| 40>    C        3.56800        -6.14200        -1.04000
| 41>    C       -1.47600        -4.04900        -0.03400
| 42>    C        2.80300        -4.09900        -0.00800
| 43>    C        3.65700        -4.38400         1.06900
| 44>    C        4.42700        -5.53000         1.05900
| 45>    C        5.24500        -7.58800         0.01400
| 46>    C       -0.13400        -4.31500        -0.02200
| 47>    C        0.56800        -3.06400        -0.02700
| 48>    C        2.77500        -5.01200        -1.07400
| 49>    N        4.37600        -6.39100         0.01700
| 50>    C        1.95900        -2.86900        -0.00900
| 51>    C        2.62100        -1.62200         0.00900
| 52>    C        5.54300         4.33900        -1.13000
| 53>    C        4.07000        -1.47900        -0.09400
| 54>    C        4.10400         2.75100        -0.02100
| 55>    C        5.02700         2.72900         1.03600
| 56>    C        6.16600         3.50900         0.97800
| 57>    C        7.61900         5.15300        -0.11500
| 58>    C        4.32100        -0.14800        -0.09200
| 59>    C        3.02500         0.51400         0.01500
| 60>    C        4.38700         3.58200        -1.11500
| 61>    C        2.86600         1.91600         0.01300
| 62>    N        6.41300         4.29600        -0.09500
| 63>    H       -3.11600         7.20100        -1.32600
| 64>    H        2.27400         4.76600         0.08100
| 65>    H       -4.18800         3.37200         1.55600
| 66>    H       -5.54300         5.46000         1.55400
| 67>    H       -6.06100         7.43800        -0.56400
| 68>    H       -5.60700         7.74200         1.13900
| 69>    H       -4.63700         8.45000        -0.18200
| 70>    H       -0.33200         5.28200         0.06900
| 71>    H       -1.66500         5.18400        -1.44500
| 72>    H        0.18200         1.07200         0.00500
| 73>    H       -0.18300        -1.08000        -0.02100
| 74>    H       -5.86400        -4.96200         1.89500
| 75>    H       -4.79400         2.27200         0.13900
| 76>    H       -4.80000        -2.16000        -1.99400
| 77>    H       -6.84100        -3.58200        -1.89300
| 78>    H       -8.42800        -4.53600         0.54600
| 79>    H       -7.95600        -5.33700        -0.98100
| 80>    H       -7.45600        -6.03700         0.58400
| 81>    H       -5.28700        -0.34400         0.10000
| 82>    H       -3.78000        -3.60100         1.94700
| 83>    H        3.58700        -6.86800        -1.84300
| 84>    H       -2.27600        -4.77400        -0.05000
| 85>    H        3.71400        -3.72400         1.92600
| 86>    H        5.09200        -5.79500         1.87100
| 87>    H        6.20500        -7.32900        -0.43900
| 88>    H        5.39300        -7.91700         1.04200
| 89>    H        4.75900        -8.37300        -0.56400
| 90>    H        0.32900        -5.29000        -0.00800
| 91>    H        2.14600        -4.84200        -1.94000
| 92>    H        5.80800         4.98600        -1.95600
| 93>    H        4.78800        -2.28100        -0.18500
| 94>    H        4.86000         2.11400         1.91200
| 95>    H        6.90100         3.53100         1.77200
| 96>    H        7.38300         6.10900         0.35600
| 97>    H        8.41400         4.65200         0.43500
| 98>    H        7.92100         5.31000        -1.15000
| 99>    H        5.28300         0.33600        -0.17900
|100>    H        3.72000         3.63200        -1.96700
|101> *
|102>
|103>                          ****END OF INPUT****

CARTESIAN COORDINATES (ANGSTROEM)
---------------------------------
  C     -3.307000    6.324000   -0.719000
  C      1.474000    4.041000    0.057000
  C     -2.802000    4.093000    0.049000
  C     -3.910000    4.192000    0.905000
  C     -4.675000    5.341000    0.918000
  C     -5.230000    7.590000    0.128000
  C      0.132000    4.307000    0.061000
  C     -0.569000    3.056000    0.047000
  C      1.649000    2.618000    0.023000
  C     -2.515000    5.194000   -0.773000
  N     -4.368000    6.387000    0.117000
  N      0.388000    2.067000    0.025000
  N     -2.010000    0.395000   -0.075000
  N     -0.388000   -2.074000   -0.027000
  N      2.010000   -0.401000    0.065000
  C     -1.960000    2.861000    0.024000
  C     -2.623000    1.615000   -0.018000
  C     -5.573000   -4.329000    1.066000
  C     -4.073000    1.471000    0.056000
  C     -4.106000   -2.756000   -0.026000
  C     -4.995000   -2.757000   -1.111000
  C     -6.132000   -3.542000   -1.076000
  C     -7.651000   -5.113000    0.040000
  C     -4.324000    0.141000    0.037000
  C     -3.025000   -0.520000   -0.048000
  C     -4.422000   -3.566000    1.075000
  N     -6.407000   -4.313000    0.001000
  C     -2.867000   -1.922000   -0.040000
  C     -1.650000   -2.624000   -0.027000
  C      3.568000   -6.142000   -1.040000
  C     -1.476000   -4.049000   -0.034000
  C      2.803000   -4.099000   -0.008000
  C      3.657000   -4.384000    1.069000
  C      4.427000   -5.530000    1.059000
  C      5.245000   -7.588000    0.014000
  C     -0.134000   -4.315000   -0.022000
  C      0.568000   -3.064000   -0.027000
  C      2.775000   -5.012000   -1.074000
  N      4.376000   -6.391000    0.017000
  C      1.959000   -2.869000   -0.009000
  C      2.621000   -1.622000    0.009000
  C      5.543000    4.339000   -1.130000
  C      4.070000   -1.479000   -0.094000
  C      4.104000    2.751000   -0.021000
  C      5.027000    2.729000    1.036000
  C      6.166000    3.509000    0.978000
  C      7.619000    5.153000   -0.115000
  C      4.321000   -0.148000   -0.092000
  C      3.025000    0.514000    0.015000
  C      4.387000    3.582000   -1.115000
  C      2.866000    1.916000    0.013000
  N      6.413000    4.296000   -0.095000
  H     -3.116000    7.201000   -1.326000
  H      2.274000    4.766000    0.081000
  H     -4.188000    3.372000    1.556000
  H     -5.543000    5.460000    1.554000
  H     -6.061000    7.438000   -0.564000
  H     -5.607000    7.742000    1.139000
  H     -4.637000    8.450000   -0.182000
  H     -0.332000    5.282000    0.069000
  H     -1.665000    5.184000   -1.445000
  H      0.182000    1.072000    0.005000
  H     -0.183000   -1.080000   -0.021000
  H     -5.864000   -4.962000    1.895000
  H     -4.794000    2.272000    0.139000
  H     -4.800000   -2.160000   -1.994000
  H     -6.841000   -3.582000   -1.893000
  H     -8.428000   -4.536000    0.546000
  H     -7.956000   -5.337000   -0.981000
  H     -7.456000   -6.037000    0.584000
  H     -5.287000   -0.344000    0.100000
  H     -3.780000   -3.601000    1.947000
  H      3.587000   -6.868000   -1.843000
  H     -2.276000   -4.774000   -0.050000
  H      3.714000   -3.724000    1.926000
  H      5.092000   -5.795000    1.871000
  H      6.205000   -7.329000   -0.439000
  H      5.393000   -7.917000    1.042000
  H      4.759000   -8.373000   -0.564000
  H      0.329000   -5.290000   -0.008000
  H      2.146000   -4.842000   -1.940000
  H      5.808000    4.986000   -1.956000
  H      4.788000   -2.281000   -0.185000
  H      4.860000    2.114000    1.912000
  H      6.901000    3.531000    1.772000
  H      7.383000    6.109000    0.356000
  H      8.414000    4.652000    0.435000
  H      7.921000    5.310000   -1.150000
  H      5.283000    0.336000   -0.179000
  H      3.720000    3.632000   -1.967000

 Total Charge           Charge          ....    0
 Multiplicity           Mult            ....    1
 Number of Electrons    NEL             ....  358
 Basis Dimension        Dim             ....  918

ORBITAL ENERGIES
----------------

  NO   OCC          E(Eh)            E(eV)
   0   2.0000     -15.658685      -426.0945
   1   2.0000     -15.636511      -425.4911
   2   2.0000     -15.630180      -425.3188
   3   2.0000     -15.604049      -424.6078
   4   2.0000     -15.522358      -422.3848
   5   2.0000     -15.516379      -422.2221
   6   2.0000     -15.449055      -420.3902
   7   2.0000     -15.442800      -420.2200
   8   2.0000     -11.314872      -307.8933
   9   2.0000     -11.312118      -307.8184
  10   2.0000     -11.310233      -307.7671
  11   2.0000     -11.300875      -307.5124
  12   2.0000     -11.297151      -307.4111
  13   2.0000     -11.293919      -307.3232
  14   2.0000     -11.289950      -307.2151
  15   2.0000     -11.288449      -307.1743
  16   2.0000     -11.286050      -307.1090
  17   2.0000     -11.281571      -306.9871
  18   2.0000     -11.267546      -306.6055
  19   2.0000     -11.266002      -306.5635
  20   2.0000     -11.262165      -306.4591
  21   2.0000     -11.248446      -306.0858
  22   2.0000     -11.247531      -306.0609
  23   2.0000     -11.239986      -305.8556
  24   2.0000     -11.234810      -305.7147
  25   2.0000     -11.232875      -305.6621
  26   2.0000     -11.232082      -305.6405
  27   2.0000     -11.228293      -305.5374
  28   2.0000     -11.228170      -305.5340
  29   2.0000     -11.213044      -305.1224
  30   2.0000     -11.207922      -304.9831
  31   2.0000     -11.206841      -304.9537
  32   2.0000     -11.205666      -304.9217
  33   2.0000     -11.204852      -304.8995
  34   2.0000     -11.191925      -304.5478
  35   2.0000     -11.191269      -304.5299
  36   2.0000     -11.181729      -304.2703
  37   2.0000     -11.179919      -304.2211
  38   2.0000     -11.179298      -304.2042
  39   2.0000     -11.172386      -304.0161
  40   2.0000     -11.169052      -303.9253
  41   2.0000     -11.166735      -303.8623
  42   2.0000     -11.165371      -303.8252
  43   2.0000     -11.163809      -303.7827
  44   2.0000     -11.163655      -303.7785
  45   2.0000     -11.162039      -303.7345
  46   2.0000     -11.152522      -303.4755
  47   2.0000     -11.150513      -303.4209
  48   2.0000     -11.149170      -303.3843
  49   2.0000     -11.145996      -303.2980
  50   2.0000     -11.137293      -303.0612
  51   2.0000     -11.131602      -302.9063
  52   2.0000      -1.342405       -36.5287
  53   2.0000      -1.323378       -36.0109
  54   2.0000      -1.318054       -35.8661
  55   2.0000      -1.296664       -35.2840
  56   2.0000      -1.221960       -33.2512
  57   2.0000      -1.211678       -32.9714
  58   2.0000      -1.166832       -31.7511
  59   2.0000      -1.154985       -31.4287
  60   2.0000      -1.128436       -30.7063
  61   2.0000      -1.111843       -30.2548
  62   2.0000      -1.107451       -30.1353
  63   2.0000      -1.090045       -29.6616
  64   2.0000      -1.065356       -28.9898
  65   2.0000      -1.047397       -28.5011
  66   2.0000      -1.042733       -28.3742
  67   2.0000      -1.031700       -28.0740
  68   2.0000      -1.023620       -27.8541
  69   2.0000      -1.012703       -27.5570
  70   2.0000      -1.009779       -27.4775
  71   2.0000      -0.993796       -27.0426
  72   2.0000      -0.986240       -26.8369
  73   2.0000      -0.975199       -26.5365
  74   2.0000      -0.973270       -26.4840
  75   2.0000      -0.959523       -26.1099
  76   2.0000      -0.950780       -25.8721
  77   2.0000      -0.948061       -25.7981
  78   2.0000      -0.937238       -25.5035
  79   2.0000      -0.922237       -25.0954
  80   2.0000      -0.897660       -24.4266
  81   2.0000      -0.888620       -24.1806
  82   2.0000      -0.874745       -23.8030
  83   2.0000      -0.870267       -23.6812
  84   2.0000      -0.863941       -23.5090
  85   2.0000      -0.855656       -23.2836
  86   2.0000      -0.847066       -23.0498
  87   2.0000      -0.839302       -22.8386
  88   2.0000      -0.822396       -22.3785
  89   2.0000      -0.798709       -21.7340
  90   2.0000      -0.795800       -21.6548
  91   2.0000      -0.742865       -20.2144
  92   2.0000      -0.736208       -20.0332
  93   2.0000      -0.730810       -19.8864
  94   2.0000      -0.722097       -19.6493
  95   2.0000      -0.720683       -19.6108
  96   2.0000      -0.713374       -19.4119
  97   2.0000      -0.706435       -19.2231
  98   2.0000      -0.701661       -19.0932
  99   2.0000      -0.695197       -18.9173
 100   2.0000      -0.692134       -18.8339
 101   2.0000      -0.681538       -18.5456
 102   2.0000      -0.678626       -18.4663
 103   2.0000      -0.675199       -18.3731
 104   2.0000      -0.671458       -18.2713
 105   2.0000      -0.670453       -18.2440
 106   2.0000      -0.663441       -18.0532
 107   2.0000      -0.662698       -18.0329
 108   2.0000      -0.655625       -17.8405
 109   2.0000      -0.654539       -17.8109
 110   2.0000      -0.651334       -17.7237
 111   2.0000      -0.648445       -17.6451
 112   2.0000      -0.644000       -17.5241
 113   2.0000      -0.637539       -17.3483
 114   2.0000      -0.633067       -17.2266
 115   2.0000      -0.630747       -17.1635
 116   2.0000      -0.624880       -17.0039
 117   2.0000      -0.614778       -16.7290
 118   2.0000      -0.614048       -16.7091
 119   2.0000      -0.610718       -16.6185
 120   2.0000      -0.609900       -16.5962
 121   2.0000      -0.602300       -16.3894
 122   2.0000      -0.597809       -16.2672
 123   2.0000      -0.591175       -16.0867
 124   2.0000      -0.588888       -16.0245
 125   2.0000      -0.583074       -15.8662
 126   2.0000      -0.579461       -15.7679
 127   2.0000      -0.575768       -15.6674
 128   2.0000      -0.564225       -15.3534
 129   2.0000      -0.558756       -15.2045
 130   2.0000      -0.554431       -15.0868
 131   2.0000      -0.549344       -14.9484
 132   2.0000      -0.541098       -14.7240
 133   2.0000      -0.537324       -14.6213
 134   2.0000      -0.535020       -14.5586
 135   2.0000      -0.531950       -14.4751
 136   2.0000      -0.526088       -14.3156
 137   2.0000      -0.523938       -14.2571
 138   2.0000      -0.518158       -14.0998
 139   2.0000      -0.516296       -14.0491
 140   2.0000      -0.511046       -13.9063
 141   2.0000      -0.508631       -13.8405
 142   2.0000      -0.507368       -13.8062
 143   2.0000      -0.501792       -13.6545
 144   2.0000      -0.501107       -13.6358
 145   2.0000      -0.498155       -13.5555
 146   2.0000      -0.494357       -13.4521
 147   2.0000      -0.487919       -13.2770
 148   2.0000      -0.487436       -13.2638
 149   2.0000      -0.469126       -12.7656
 150   2.0000      -0.462991       -12.5986
 151   2.0000      -0.455087       -12.3835
 152   2.0000      -0.448089       -12.1931
 153   2.0000      -0.446829       -12.1588
 154   2.0000      -0.445919       -12.1341
 155   2.0000      -0.440600       -11.9893
 156   2.0000      -0.433402       -11.7935
 157   2.0000      -0.428188       -11.6516
 158   2.0000      -0.397714       -10.8224
 159   2.0000      -0.386704       -10.5228
 160   2.0000      -0.378260       -10.2930
 161   2.0000      -0.373383       -10.1603
 162   2.0000      -0.370727       -10.0880
 163   2.0000      -0.358181        -9.7466
 164   2.0000      -0.354404        -9.6438
 165   2.0000      -0.337444        -9.1823
 166   2.0000      -0.336325        -9.1519
 167   2.0000      -0.335830        -9.1384
 168   2.0000      -0.327993        -8.9251
 169   2.0000      -0.300473        -8.1763
 170   2.0000      -0.299713        -8.1556
 171   2.0000      -0.287712        -7.8290
 172   2.0000      -0.285576        -7.7709
 173   2.0000      -0.259133        -7.0514
 174   2.0000      -0.246262        -6.7011
 175   2.0000      -0.189177        -5.1478
 176   2.0000      -0.179309        -4.8792
 177   2.0000      -0.070692        -1.9236
 178   2.0000      -0.056369        -1.5339
 179   0.0000       0.029563         0.8044
 180   0.0000       0.068946         1.8761
 181   0.0000       0.092381         2.5138
 182   0.0000       0.102976         2.8021
 183   0.0000       0.120420         3.2768

MULLIKEN ATOMIC CHARGES
-----------------------
   0 C :    0.206353
   1 N :   -0.450218
   2 C :   -0.062562
   3 N :   -0.336010
   4 C :   -0.051905
   5 N :   -0.562799
   6 C :   -0.094476
   7 N :   -0.339113
   8 C :    0.204974
   9 N :   -0.562721
  10 C :    0.117608
  11 N :   -0.437866
  12 C :   -0.081112
  13 N :   -0.434429
  14 C :    0.243463
  15 N :   -0.440934
  16 C :    0.228764
  17 C :   -0.101215
  18 C :   -0.212223
  19 C :    0.237256
  20 C :    0.211187
  21 C :   -0.094658
  22 C :   -0.089599
  23 C :   -0.043483
  24 C :    0.198915
  25 C :    0.114234
  26 C :   -0.073327
  27 C :    0.215651
  28 C :   -0.057694
  29 C :   -0.181648
  30 C :    0.241244
  31 C :    0.221206
  32 C :   -0.063486
  33 C :   -0.070332
  34 C :   -0.050561
  35 C :    0.216874
  36 C :    0.111010
  37 C :   -0.065574
  38 C :    0.233940
  39 C :   -0.059412
  40 C :   -0.185031
  41 C :    0.223789
  42 C :    0.199828
  43 C :   -0.072779
  44 C :   -0.089492
  45 C :   -0.057357
  46 C :    0.207835
  47 C :    0.115496
  48 C :   -0.070268
  49 C :    0.233095
  50 C :   -0.049370
  51 C :   -0.189922
  52 H :    0.045403
  53 H :   -0.015316
  54 H :    0.051832
  55 H :    0.044549
  56 H :    0.052910
  57 H :    0.051334
  58 H :    0.050506
  59 H :   -0.003151
  60 H :    0.046818
  61 H :    0.171850
  62 H :    0.174247
  63 H :    0.055936
  64 H :   -0.010731
  65 H :    0.047484
  66 H :    0.056762
  67 H :    0.062567
  68 H :    0.057785
  69 H :    0.057524
  70 H :   -0.026986
  71 H :    0.046103
  72 H :    0.064368
  73 H :   -0.010775
  74 H :    0.053970
  75 H :    0.063588
  76 H :    0.068823
  77 H :    0.063359
  78 H :    0.062620
  79 H :   -0.015286
  80 H :    0.054650
  81 H :    0.053726
  82 H :   -0.024091
  83 H :    0.042519
  84 H :    0.053771
  85 H :    0.060056
  86 H :    0.055885
  87 H :    0.056845
  88 H :   -0.017624
  89 H :    0.045017
Sum of atomic charges:   -0.0000000

LOEWDIN ATOMIC CHARGES
----------------------
   0 C :   -0.015932
   1 N :    0.122965
   2 C :   -0.100595
   3 N :    0.181923
   4 C :    0.009388
   5 N :   -0.134584
   6 C :   -0.031715
   7 N :    0.176728
   8 C :   -0.016980
   9 N :   -0.139919
  10 C :    0.025914
  11 N :    0.143327
  12 C :   -0.106890
  13 N :    0.154625
  14 C :   -0.035915
  15 N :    0.138559
  16 C :   -0.054514
  17 C :   -0.036448
  18 C :   -0.104052
  19 C :   -0.084504
  20 C :    0.002953
  21 C :   -0.113090
  22 C :    0.039131
  23 C :   -0.016762
  24 C :   -0.007542
  25 C :    0.030122
  26 C :   -0.104802
  27 C :   -0.107514
  28 C :   -0.024750
  29 C :   -0.103109
  30 C :   -0.037093
  31 C :    0.013662
  32 C :   -0.096828
  33 C :    0.062268
  34 C :   -0.017227
  35 C :    0.010077
  36 C :    0.032624
  37 C :   -0.097596
  38 C :   -0.047248
  39 C :   -0.021124
  40 C :   -0.108489
  41 C :   -0.092224
  42 C :   -0.008524
  43 C :   -0.101554
  44 C :    0.033250
  45 C :   -0.025479
  46 C :   -0.001390
  47 C :    0.029385
  48 C :   -0.098932
  49 C :   -0.078611
  50 C :   -0.021018
  51 C :   -0.108284
  52 H :    0.025913
  53 H :    0.003705
  54 H :    0.042900
  55 H :    0.025834
  56 H :    0.023383
  57 H :    0.028036
  58 H :    0.028455
  59 H :    0.007336
  60 H :    0.040546
  61 H :    0.060253
  62 H :    0.061229
  63 H :    0.030905
  64 H :    0.002482
  65 H :    0.045826
  66 H :    0.029915
  67 H :    0.028340
  68 H :    0.031875
  69 H :    0.030797
  70 H :   -0.003207
  71 H :    0.044235
  72 H :    0.034456
  73 H :    0.005779
  74 H :    0.047980
  75 H :    0.033922
  76 H :    0.031637
  77 H :    0.034001
  78 H :    0.033677
  79 H :    0.003614
  80 H :    0.047818
  81 H :    0.028896
  82 H :   -0.002277
  83 H :    0.042991
  84 H :    0.029568
  85 H :    0.027001
  86 H :    0.030306
  87 H :    0.031229
  88 H :    0.000888
  89 H :    0.044098

  Mayer bond orders larger than 0.100000
B(  0-C ,  1-N ) :   1.0993 B(  0-C , 17-C ) :   1.6773 B(  0-C , 52-H ) :   0.9688
B(  1-N ,  8-C ) :   1.0951 B(  1-N , 10-C ) :   0.9721 B(  2-C , 12-C ) :   1.5214
B(  2-C , 16-C ) :   1.3424 B(  2-C , 53-H ) :   0.9767 B(  3-N , 14-C ) :   1.2134
B(  3-N , 16-C ) :   1.1930 B(  3-N , 61-H ) :   0.8989 B(  4-C ,  6-C ) :   1.2282
B(  4-C , 17-C ) :   1.2305 B(  4-C , 18-C ) :   1.3737 B(  5-N , 19-C ) :   1.4405
B(  5-N , 27-C ) :   1.3884 B(  6-C ,  8-C ) :   1.6814 B(  6-C , 54-H ) :   0.9663
B(  7-N , 30-C ) :   1.1952 B(  7-N , 38-C ) :   1.1955 B(  7-N , 62-H ) :   0.8975
B(  8-C , 55-H ) :   0.9689 B(  9-N , 41-C ) :   1.4002 B(  9-N , 49-C ) :   1.4211
B( 10-C , 56-H ) :   0.9767 B( 10-C , 57-H ) :   0.9820 B( 10-C , 58-H ) :   0.9841
B( 11-N , 20-C ) :   1.1286 B( 11-N , 24-C ) :   1.1139 B( 11-N , 25-C ) :   0.9592
B( 12-C , 14-C ) :   1.3438 B( 12-C , 59-H ) :   0.9746 B( 13-N , 31-C ) :   1.1434
B( 13-N , 35-C ) :   1.1391 B( 13-N , 36-C ) :   0.9500 B( 14-C , 18-C ) :   1.1558
B( 15-N , 42-C ) :   1.1110 B( 15-N , 46-C ) :   1.1195 B( 15-N , 47-C ) :   0.9618
B( 16-C , 51-C ) :   1.1827 B( 17-C , 60-H ) :   0.9677 B( 18-C , 19-C ) :   1.1656
B( 19-C , 21-C ) :   1.2294 B( 20-C , 28-C ) :   1.6259 B( 20-C , 63-H ) :   0.9703
B( 21-C , 26-C ) :   1.6272 B( 21-C , 64-H ) :   0.9699 B( 22-C , 23-C ) :   1.2877
B( 22-C , 28-C ) :   1.2687 B( 22-C , 29-C ) :   1.2241 B( 23-C , 24-C ) :   1.6187
B( 23-C , 65-H ) :   0.9706 B( 24-C , 66-H ) :   0.9693 B( 25-C , 67-H ) :   0.9761
B( 25-C , 68-H ) :   0.9828 B( 25-C , 69-H ) :   0.9822 B( 26-C , 27-C ) :   1.2264
B( 26-C , 70-H ) :   0.9721 B( 27-C , 29-C ) :   1.2232 B( 28-C , 71-H ) :   0.9717
B( 29-C , 30-C ) :   1.2269 B( 30-C , 32-C ) :   1.2965 B( 31-C , 39-C ) :   1.6083
B( 31-C , 72-H ) :   0.9688 B( 32-C , 37-C ) :   1.5620 B( 32-C , 73-H ) :   0.9783
B( 33-C , 34-C ) :   1.2922 B( 33-C , 39-C ) :   1.2868 B( 33-C , 40-C ) :   1.2102
B( 34-C , 35-C ) :   1.6053 B( 34-C , 74-H ) :   0.9700 B( 35-C , 75-H ) :   0.9689
B( 36-C , 76-H ) :   0.9765 B( 36-C , 77-H ) :   0.9818 B( 36-C , 78-H ) :   0.9827
B( 37-C , 38-C ) :   1.2997 B( 37-C , 79-H ) :   0.9771 B( 38-C , 40-C ) :   1.2202
B( 39-C , 80-H ) :   0.9710 B( 40-C , 41-C ) :   1.2365 B( 41-C , 43-C ) :   1.1976
B( 42-C , 50-C ) :   1.6334 B( 42-C , 81-H ) :   0.9697 B( 43-C , 48-C ) :   1.6545
B( 43-C , 82-H ) :   0.9729 B( 44-C , 45-C ) :   1.2666 B( 44-C , 50-C ) :   1.2699
B( 44-C , 51-C ) :   1.2581 B( 45-C , 46-C ) :   1.6340 B( 45-C , 83-H ) :   0.9715
B( 46-C , 84-H ) :   0.9701 B( 47-C , 85-H ) :   0.9761 B( 47-C , 86-H ) :   0.9829
B( 47-C , 87-H ) :   0.9825 B( 48-C , 49-C ) :   1.1996 B( 48-C , 88-H ) :   0.9744
B( 49-C , 51-C ) :   1.2323 B( 50-C , 89-H ) :   0.9711

MP2 TOTAL ENERGY:    -2130.909828161 Eh
FINAL SINGLE POINT ENERGY     -2130.909828161374

DIPOLE MOMENT
-------------
                                X             Y             Z
Electronic contribution:      1.43341      -2.65033      -0.12745
Nuclear contribution   :     -0.05071       0.15175       0.15585
                        -----------------------------------------
Total Dipole Moment    :      1.38270      -2.49858       0.02840
                        -----------------------------------------
Magnitude (a.u.)       :      2.85580
Magnitude (Debye)      :      7.25887

Rotational constants in cm-1:     0.001500     0.001475     0.000761
Rotational constants in MHz :    44.982330    44.230394    22.823298

                             ****ORCA TERMINATED NORMALLY****
TOTAL RUN TIME: 0 days 1 hours 16 minutes 24 seconds 124 msec
