                         Program Version 5.0.4 -  RELEASE  -
|  1> ! PAL2
|  2> ! mp2 cc-pvdz TightSCF  NoKeepInts
|  3>
|  4> %scf
|  5>   MaxCore 2000
|  6> end
|  7> %mp2
|  8>   MaxCore 2000
|  9> end
| 10> * xyz 0 1
| 11>    C       -3.21600         6.38400        -0.58700
| 12>    C        1.47400         4.04100         0.05700
| 13>    C       -2.80200         4.09300         0.04900
| 14>    C       -4.00600         4.12900         0.76900
| 15>    C       -4.77000         5.27900         0.78500
| 16>    C       -5.23100         7.59000         0.12300
| 17>    C        0.13200         4.30700         0.06100
| 18>    C       -0.56900         3.05600         0.04700
| 19>    C        1.64900         2.61800         0.02300
| 20>    C       -2.42000         5.25600        -0.63800
| 21>    N       -4.37100         6.38600         0.11700
| 22>    N        0.38800         2.06700         0.02500
| 23>    N       -2.01000         0.39500        -0.07500
| 24>    N       -0.38800        -2.07400        -0.02700
| 25>    N        2.01000        -0.40100         0.06500
| 26>    C       -1.96000         2.86100         0.02400
| 27>    C       -2.62300         1.61500        -0.01800
| 28>    C       -5.57300        -4.32900         1.06600
| 29>    C       -4.07300         1.47100         0.05600
| 30>    C       -4.10600        -2.75600        -0.02600
| 31>    C       -4.99500        -2.75700        -1.11100
| 32>    C       -6.13200        -3.54200        -1.07600
| 33>    C       -7.65100        -5.11300         0.04000
| 34>    C       -4.32400         0.14100         0.03700
| 35>    C       -3.02500        -0.52000        -0.04800
| 36>    C       -4.42200        -3.56600         1.07500
| 37>    N       -6.40700        -4.31300         0.00100
| 38>    C       -2.86700        -1.92200        -0.04000
| 39>    C       -1.65000        -2.62400        -0.02700
| 40>    C        3.56800        -6.14200        -1.04000
| 41>    C       -1.47600        -4.04900        -0.03400
| 42>    C        2.80300        -4.09900        -0.00800
| 43>    C        3.65700        -4.38400         1.06900
| 44>    C        4.42700        -5.53000         1.05900
| 45>    C        5.24500        -7.58800         0.01400
| 46>    C       -0.13400        -4.31500        -0.02200
| 47>    C        0.56800        -3.06400        -0.02700
| 48>    C        2.77500        -5.01200        -1.07400
| 49>    N        4.37600        -6.39100         0.01700
| 50>    C        1.95900        -2.86900        -0.00900
| 51>    C        2.62100        -1.62200         0.00900
| 52>    C        5.54300         4.33900        -1.13000
| 53>    C        4.07000        -1.47900        -0.09400
| 54>    C        4.10400         2.75100        -0.02100
| 55>    C        5.02700         2.72900         1.03600
| 56>    C        6.16600         3.50900         0.97800
| 57>    C        7.61900         5.15300        -0.11500
| 58>    C        4.32100        -0.14800        -0.09200
| 59>    C        3.02500         0.51400         0.01500
| 60>    C        4.38700         3.58200        -1.11500
| 61>    C        2.86600         1.91600         0.01300
| 62>    N        6.41300         4.29600        -0.09500
| 63>    H       -2.95500         7.30700        -1.09000
| 64>    H        2.27400         4.76600         0.08100
| 65>    H       -4.35900         3.26000         1.31100
| 66>    H       -5.71000         5.35100         1.31800
| 67>    H       -5.97100         7.50200        -0.67500
| 68>    H       -5.72900         7.66000         1.09000
| 69>    H       -4.60600         8.46700        -0.04000
| 70>    H       -0.33200         5.28200         0.06900
| 71>    H       -1.49400         5.29600        -1.20000
| 72>    H        0.18200         1.07200         0.00500
| 73>    H       -0.18300        -1.08000        -0.02100
| 74>    H       -5.86400        -4.96200         1.89500
| 75>    H       -4.79400         2.27200         0.13900
| 76>    H       -4.80000        -2.16000        -1.99400
| 77>    H       -6.84100        -3.58200        -1.89300
| 78>    H       -8.42800        -4.53600         0.54600
| 79>    H       -7.95600        -5.33700        -0.98100
| 80>    H       -7.45600        -6.03700         0.58400
| 81>    H       -5.28700        -0.34400         0.10000
| 82>    H       -3.78000        -3.60100         1.94700
| 83>    H        3.58700        -6.86800        -1.84300
| 84>    H       -2.27600        -4.77400        -0.05000
| 85>    H        3.71400        -3.72400         1.92600
| 86>    H        5.09200        -5.79500         1.87100
| 87>    H        6.20500        -7.32900        -0.43900
| 88>    H        5.39300        -7.91700         1.04200
| 89>    H        4.75900        -8.37300        -0.56400
| 90>    H        0.32900        -5.29000        -0.00800
| 91>    H        2.14600        -4.84200        -1.94000
| 92>    H        5.80800         4.98600        -1.95600
| 93>    H        4.78800        -2.28100        -0.18500
| 94>    H        4.86000         2.11400         1.91200
| 95>    H        6.90100         3.53100         1.77200
| 96>    H        7.38300         6.10900         0.35600
| 97>    H        8.41400         4.65200         0.43500
| 98>    H        7.92100         5.31000        -1.15000
| 99>    H        5.28300         0.33600        -0.17900
|100>    H        3.72000         3.63200        -1.96700
|101> *
|102>
|103>                          ****END OF INPUT****

CARTESIAN COORDINATES (ANGSTROEM)
---------------------------------
  C     -3.216000    6.384000   -0.587000
  C      1.474000    4.041000    0.057000
  C     -2.802000    4.093000    0.049000
  C     -4.006000    4.129000    0.769000
  C     -4.770000    5.279000    0.785000
  C     -5.231000    7.590000    0.123000
  C      0.132000    4.307000    0.061000
  C     -0.569000    3.056000    0.047000
  C      1.649000    2.618000    0.023000
  C     -2.420000    5.256000   -0.638000
  N     -4.371000    6.386000    0.117000
  N      0.388000    2.067000    0.025000
  N     -2.010000    0.395000   -0.075000
  N     -0.388000   -2.074000   -0.027000
  N      2.010000   -0.401000    0.065000
  C     -1.960000    2.861000    0.024000
  C     -2.623000    1.615000   -0.018000
  C     -5.573000   -4.329000    1.066000
  C     -4.073000    1.471000    0.056000
  C     -4.106000   -2.756000   -0.026000
  C     -4.995000   -2.757000   -1.111000
  C     -6.132000   -3.542000   -1.076000
  C     -7.651000   -5.113000    0.040000
  C     -4.324000    0.141000    0.037000
  C     -3.025000   -0.520000   -0.048000
  C     -4.422000   -3.566000    1.075000
  N     -6.407000   -4.313000    0.001000
  C     -2.867000   -1.922000   -0.040000
  C     -1.650000   -2.624000   -0.027000
  C      3.568000   -6.142000   -1.040000
  C     -1.476000   -4.049000   -0.034000
  C      2.803000   -4.099000   -0.008000
  C      3.657000   -4.384000    1.069000
  C      4.427000   -5.530000    1.059000
  C      5.245000   -7.588000    0.014000
  C     -0.134000   -4.315000   -0.022000
  C      0.568000   -3.064000   -0.027000
  C      2.775000   -5.012000   -1.074000
  N      4.376000   -6.391000    0.017000
  C      1.959000   -2.869000   -0.009000
  C      2.621000   -1.622000    0.009000
  C      5.543000    4.339000   -1.130000
  C      4.070000   -1.479000   -0.094000
  C      4.104000    2.751000   -0.021000
  C      5.027000    2.729000    1.036000
  C      6.166000    3.509000    0.978000
  C      7.619000    5.153000   -0.115000
  C      4.321000   -0.148000   -0.092000
  C      3.025000    0.514000    0.015000
  C      4.387000    3.582000   -1.115000
  C      2.866000    1.916000    0.013000
  N      6.413000    4.296000   -0.095000
  H     -2.955000    7.307000   -1.090000
  H      2.274000    4.766000    0.081000
  H     -4.359000    3.260000    1.311000
  H     -5.710000    5.351000    1.318000
  H     -5.971000    7.502000   -0.675000
  H     -5.729000    7.660000    1.090000
  H     -4.606000    8.467000   -0.040000
  H     -0.332000    5.282000    0.069000
  H     -1.494000    5.296000   -1.200000
  H      0.182000    1.072000    0.005000
  H     -0.183000   -1.080000   -0.021000
  H     -5.864000   -4.962000    1.895000
  H     -4.794000    2.272000    0.139000
  H     -4.800000   -2.160000   -1.994000
  H     -6.841000   -3.582000   -1.893000
  H     -8.428000   -4.536000    0.546000
  H     -7.956000   -5.337000   -0.981000
  H     -7.456000   -6.037000    0.584000
  H     -5.287000   -0.344000    0.100000
  H     -3.780000   -3.601000    1.947000
  H      3.587000   -6.868000   -1.843000
  H     -2.276000   -4.774000   -0.050000
  H      3.714000   -3.724000    1.926000
  H      5.092000   -5.795000    1.871000
  H      6.205000   -7.329000   -0.439000
  H      5.393000   -7.917000    1.042000
  H      4.759000   -8.373000   -0.564000
  H      0.329000   -5.290000   -0.008000
  H      2.146000   -4.842000   -1.940000
  H      5.808000    4.986000   -1.956000
  H      4.788000   -2.281000   -0.185000
  H      4.860000    2.114000    1.912000
  H      6.901000    3.531000    1.772000
  H      7.383000    6.109000    0.356000
  H      8.414000    4.652000    0.435000
  H      7.921000    5.310000   -1.150000
  H      5.283000    0.336000   -0.179000
  H      3.720000    3.632000   -1.967000

 Total Charge           Charge          ....    0
 Multiplicity           Mult            ....    1
 Number of Electrons    NEL             ....  358
 Basis Dimension        Dim             ....  918

ORBITAL ENERGIES
----------------

  NO   OCC          E(Eh)            E(eV)
   0   2.0000     -15.667939      -426.3463
   1   2.0000     -15.635294      -425.4580
   2   2.0000     -15.630647      -425.3315
   3   2.0000     -15.595650      -424.3792
   4   2.0000     -15.523856      -422.4256
   5   2.0000     -15.516370      -422.2219
   6   2.0000     -15.451288      -420.4509
   7   2.0000     -15.442037      -420.1992
   8   2.0000     -11.320613      -308.0495
   9   2.0000     -11.319775      -308.0267
  10   2.0000     -11.318166      -307.9830
  11   2.0000     -11.300141      -307.4925
  12   2.0000     -11.297539      -307.4217
  13   2.0000     -11.293477      -307.3111
  14   2.0000     -11.289459      -307.2018
  15   2.0000     -11.288351      -307.1717
  16   2.0000     -11.286096      -307.1103
  17   2.0000     -11.276168      -306.8401
  18   2.0000     -11.270919      -306.6973
  19   2.0000     -11.260619      -306.4170
  20   2.0000     -11.258726      -306.3655
  21   2.0000     -11.255048      -306.2654
  22   2.0000     -11.254106      -306.2398
  23   2.0000     -11.238884      -305.8256
  24   2.0000     -11.235373      -305.7300
  25   2.0000     -11.232130      -305.6418
  26   2.0000     -11.231326      -305.6199
  27   2.0000     -11.228795      -305.5510
  28   2.0000     -11.228699      -305.5484
  29   2.0000     -11.208261      -304.9923
  30   2.0000     -11.207166      -304.9625
  31   2.0000     -11.204971      -304.9028
  32   2.0000     -11.199445      -304.7524
  33   2.0000     -11.197570      -304.7014
  34   2.0000     -11.190838      -304.5182
  35   2.0000     -11.190039      -304.4964
  36   2.0000     -11.186200      -304.3920
  37   2.0000     -11.183723      -304.3246
  38   2.0000     -11.182768      -304.2986
  39   2.0000     -11.172571      -304.0211
  40   2.0000     -11.170374      -303.9613
  41   2.0000     -11.169833      -303.9466
  42   2.0000     -11.165944      -303.8408
  43   2.0000     -11.162752      -303.7539
  44   2.0000     -11.160853      -303.7022
  45   2.0000     -11.159506      -303.6656
  46   2.0000     -11.156689      -303.5889
  47   2.0000     -11.152504      -303.4751
  48   2.0000     -11.149229      -303.3859
  49   2.0000     -11.142646      -303.2068
  50   2.0000     -11.134361      -302.9814
  51   2.0000     -11.126502      -302.7675
  52   2.0000      -1.350302       -36.7436
  53   2.0000      -1.322355       -35.9831
  54   2.0000      -1.318539       -35.8793
  55   2.0000      -1.289186       -35.0805
  56   2.0000      -1.224041       -33.3078
  57   2.0000      -1.211069       -32.9549
  58   2.0000      -1.169782       -31.8314
  59   2.0000      -1.153265       -31.3819
  60   2.0000      -1.135169       -30.8895
  61   2.0000      -1.111074       -30.2339
  62   2.0000      -1.108046       -30.1515
  63   2.0000      -1.084307       -29.5055
  64   2.0000      -1.072718       -29.1901
  65   2.0000      -1.046469       -28.4759
  66   2.0000      -1.043248       -28.3882
  67   2.0000      -1.035577       -28.1795
  68   2.0000      -1.017128       -27.6775
  69   2.0000      -1.013857       -27.5884
  70   2.0000      -1.009860       -27.4797
  71   2.0000      -0.992381       -27.0041
  72   2.0000      -0.987415       -26.8689
  73   2.0000      -0.977953       -26.6115
  74   2.0000      -0.972796       -26.4711
  75   2.0000      -0.960175       -26.1277
  76   2.0000      -0.951962       -25.9042
  77   2.0000      -0.947513       -25.7831
  78   2.0000      -0.935669       -25.4609
  79   2.0000      -0.920663       -25.0525
  80   2.0000      -0.902511       -24.5586
  81   2.0000      -0.892109       -24.2755
  82   2.0000      -0.874307       -23.7911
  83   2.0000      -0.871203       -23.7066
  84   2.0000      -0.867095       -23.5949
  85   2.0000      -0.856073       -23.2949
  86   2.0000      -0.843108       -22.9421
  87   2.0000      -0.837155       -22.7802
  88   2.0000      -0.823230       -22.4012
  89   2.0000      -0.798387       -21.7252
  90   2.0000      -0.793500       -21.5922
  91   2.0000      -0.747084       -20.3292
  92   2.0000      -0.739322       -20.1180
  93   2.0000      -0.732003       -19.9188
  94   2.0000      -0.723039       -19.6749
  95   2.0000      -0.721199       -19.6248
  96   2.0000      -0.714528       -19.4433
  97   2.0000      -0.708228       -19.2719
  98   2.0000      -0.704319       -19.1655
  99   2.0000      -0.695999       -18.9391
 100   2.0000      -0.695122       -18.9152
 101   2.0000      -0.682878       -18.5820
 102   2.0000      -0.678655       -18.4671
 103   2.0000      -0.676868       -18.4185
 104   2.0000      -0.676554       -18.4100
 105   2.0000      -0.672323       -18.2948
 106   2.0000      -0.666828       -18.1453
 107   2.0000      -0.661752       -18.0072
 108   2.0000      -0.655188       -17.8286
 109   2.0000      -0.654016       -17.7967
 110   2.0000      -0.650266       -17.6946
 111   2.0000      -0.644770       -17.5451
 112   2.0000      -0.641606       -17.4590
 113   2.0000      -0.638202       -17.3664
 114   2.0000      -0.637490       -17.3470
 115   2.0000      -0.628011       -17.0891
 116   2.0000      -0.626396       -17.0451
 117   2.0000      -0.617023       -16.7901
 118   2.0000      -0.613396       -16.6913
 119   2.0000      -0.611786       -16.6475
 120   2.0000      -0.610466       -16.6116
 121   2.0000      -0.604011       -16.4360
 122   2.0000      -0.600759       -16.3475
 123   2.0000      -0.587519       -15.9872
 124   2.0000      -0.583609       -15.8808
 125   2.0000      -0.581551       -15.8248
 126   2.0000      -0.579612       -15.7721
 127   2.0000      -0.577262       -15.7081
 128   2.0000      -0.564724       -15.3669
 129   2.0000      -0.558754       -15.2045
 130   2.0000      -0.553134       -15.0515
 131   2.0000      -0.548257       -14.9188
 132   2.0000      -0.541897       -14.7458
 133   2.0000      -0.538184       -14.6447
 134   2.0000      -0.537419       -14.6239
 135   2.0000      -0.535372       -14.5682
 136   2.0000      -0.526376       -14.3234
 137   2.0000      -0.524194       -14.2641
 138   2.0000      -0.516549       -14.0560
 139   2.0000      -0.514720       -14.0062
 140   2.0000      -0.511803       -13.9269
 141   2.0000      -0.511100       -13.9077
 142   2.0000      -0.508682       -13.8419
 143   2.0000      -0.503174       -13.6921
 144   2.0000      -0.501322       -13.6417
 145   2.0000      -0.497658       -13.5420
 146   2.0000      -0.494050       -13.4438
 147   2.0000      -0.485470       -13.2103
 148   2.0000      -0.482175       -13.1207
 149   2.0000      -0.467693       -12.7266
 150   2.0000      -0.464879       -12.6500
 151   2.0000      -0.456783       -12.4297
 152   2.0000      -0.449561       -12.2332
 153   2.0000      -0.445851       -12.1322
 154   2.0000      -0.442852       -12.0506
 155   2.0000      -0.439349       -11.9553
 156   2.0000      -0.430565       -11.7163
 157   2.0000      -0.422854       -11.5064
 158   2.0000      -0.402132       -10.9426
 159   2.0000      -0.387781       -10.5521
 160   2.0000      -0.380041       -10.3414
 161   2.0000      -0.378068       -10.2878
 162   2.0000      -0.370118       -10.0714
 163   2.0000      -0.357472        -9.7273
 164   2.0000      -0.354943        -9.6585
 165   2.0000      -0.339164        -9.2291
 166   2.0000      -0.337221        -9.1763
 167   2.0000      -0.329041        -8.9537
 168   2.0000      -0.326765        -8.8917
 169   2.0000      -0.302645        -8.2354
 170   2.0000      -0.299860        -8.1596
 171   2.0000      -0.286716        -7.8019
 172   2.0000      -0.283615        -7.7176
 173   2.0000      -0.261463        -7.1148
 174   2.0000      -0.244258        -6.6466
 175   2.0000      -0.189637        -5.1603
 176   2.0000      -0.179906        -4.8955
 177   2.0000      -0.073564        -2.0018
 178   2.0000      -0.057595        -1.5673
 179   0.0000       0.028867         0.7855
 180   0.0000       0.067367         1.8331
 181   0.0000       0.091767         2.4971
 182   0.0000       0.107071         2.9136
 183   0.0000       0.114052         3.1035

MULLIKEN ATOMIC CHARGES
-----------------------
   0 C :    0.207986
   1 N :   -0.453525
   2 C :   -0.063288
   3 N :   -0.336290
   4 C :   -0.049166
   5 N :   -0.563340
   6 C :   -0.104679
   7 N :   -0.339751
   8 C :    0.205151
   9 N :   -0.562487
  10 C :    0.118837
  11 N :   -0.438167
  12 C :   -0.083624
  13 N :   -0.432250
  14 C :    0.238150
  15 N :   -0.441042
  16 C :    0.227972
  17 C :   -0.114574
  18 C :   -0.202230
  19 C :    0.230853
  20 C :    0.212199
  21 C :   -0.095781
  22 C :   -0.090653
  23 C :   -0.041607
  24 C :    0.196389
  25 C :    0.114424
  26 C :   -0.077013
  27 C :    0.213674
  28 C :   -0.059621
  29 C :   -0.180590
  30 C :    0.243538
  31 C :    0.225306
  32 C :   -0.062633
  33 C :   -0.065949
  34 C :   -0.050694
  35 C :    0.221838
  36 C :    0.109787
  37 C :   -0.064993
  38 C :    0.232804
  39 C :   -0.058716
  40 C :   -0.183246
  41 C :    0.224701
  42 C :    0.198572
  43 C :   -0.072553
  44 C :   -0.089704
  45 C :   -0.059213
  46 C :    0.209448
  47 C :    0.115463
  48 C :   -0.068742
  49 C :    0.235800
  50 C :   -0.048073
  51 C :   -0.190834
  52 H :    0.041707
  53 H :   -0.016008
  54 H :    0.053077
  55 H :    0.041194
  56 H :    0.050706
  57 H :    0.049369
  58 H :    0.048569
  59 H :    0.000474
  60 H :    0.048249
  61 H :    0.171474
  62 H :    0.174825
  63 H :    0.055560
  64 H :   -0.008126
  65 H :    0.047420
  66 H :    0.056262
  67 H :    0.062433
  68 H :    0.057524
  69 H :    0.056940
  70 H :   -0.028253
  71 H :    0.045368
  72 H :    0.067510
  73 H :   -0.009375
  74 H :    0.056863
  75 H :    0.066805
  76 H :    0.071562
  77 H :    0.065440
  78 H :    0.064712
  79 H :   -0.015811
  80 H :    0.057645
  81 H :    0.053883
  82 H :   -0.024427
  83 H :    0.042195
  84 H :    0.053916
  85 H :    0.060400
  86 H :    0.055689
  87 H :    0.056941
  88 H :   -0.016083
  89 H :    0.045508
Sum of atomic charges:    0.0000000

LOEWDIN ATOMIC CHARGES
----------------------
   0 C :   -0.018954
   1 N :    0.118716
   2 C :   -0.100957
   3 N :    0.183022
   4 C :   -0.001219
   5 N :   -0.133230
   6 C :   -0.035731
   7 N :    0.176170
   8 C :   -0.020899
   9 N :   -0.140190
  10 C :    0.024769
  11 N :    0.142575
  12 C :   -0.110914
  13 N :    0.159757
  14 C :   -0.031804
  15 N :    0.138507
  16 C :   -0.057196
  17 C :   -0.041553
  18 C :   -0.102905
  19 C :   -0.083311
  20 C :    0.003626
  21 C :   -0.118572
  22 C :    0.037585
  23 C :   -0.015678
  24 C :   -0.009975
  25 C :    0.029960
  26 C :   -0.106491
  27 C :   -0.112094
  28 C :   -0.026142
  29 C :   -0.101390
  30 C :   -0.033741
  31 C :    0.018517
  32 C :   -0.095589
  33 C :    0.070909
  34 C :   -0.016199
  35 C :    0.015731
  36 C :    0.033787
  37 C :   -0.096039
  38 C :   -0.049325
  39 C :   -0.019576
  40 C :   -0.108320
  41 C :   -0.091946
  42 C :   -0.009563
  43 C :   -0.100490
  44 C :    0.032943
  45 C :   -0.026710
  46 C :    0.000009
  47 C :    0.029413
  48 C :   -0.097027
  49 C :   -0.074371
  50 C :   -0.020134
  51 C :   -0.108470
  52 H :    0.024401
  53 H :    0.003370
  54 H :    0.042809
  55 H :    0.024522
  56 H :    0.022295
  57 H :    0.027182
  58 H :    0.027544
  59 H :    0.009362
  60 H :    0.040210
  61 H :    0.060143
  62 H :    0.061523
  63 H :    0.030788
  64 H :    0.004759
  65 H :    0.045897
  66 H :    0.029608
  67 H :    0.028249
  68 H :    0.031757
  69 H :    0.030541
  70 H :   -0.003803
  71 H :    0.043812
  72 H :    0.035931
  73 H :    0.006457
  74 H :    0.049200
  75 H :    0.035471
  76 H :    0.033056
  77 H :    0.034981
  78 H :    0.034658
  79 H :    0.003346
  80 H :    0.049129
  81 H :    0.028915
  82 H :   -0.002483
  83 H :    0.042746
  84 H :    0.029692
  85 H :    0.027156
  86 H :    0.030230
  87 H :    0.031277
  88 H :    0.001621
  89 H :    0.044363

  Mayer bond orders larger than 0.100000
B(  0-C ,  1-N ) :   1.0953 B(  0-C , 17-C ) :   1.6920 B(  0-C , 52-H ) :   0.9680
B(  1-N ,  8-C ) :   1.0896 B(  1-N , 10-C ) :   0.9753 B(  2-C , 12-C ) :   1.5140
B(  2-C , 16-C ) :   1.3501 B(  2-C , 53-H ) :   0.9759 B(  3-N , 14-C ) :   1.2169
B(  3-N , 16-C ) :   1.1914 B(  3-N , 61-H ) :   0.8990 B(  4-C ,  6-C ) :   1.2183
B(  4-C , 17-C ) :   1.2192 B(  4-C , 18-C ) :   1.4101 B(  5-N , 19-C ) :   1.4471
B(  5-N , 27-C ) :   1.3832 B(  6-C ,  8-C ) :   1.6973 B(  6-C , 54-H ) :   0.9607
B(  7-N , 30-C ) :   1.1955 B(  7-N , 38-C ) :   1.1930 B(  7-N , 62-H ) :   0.8972
B(  8-C , 55-H ) :   0.9680 B(  9-N , 41-C ) :   1.3971 B(  9-N , 49-C ) :   1.4235
B( 10-C , 56-H ) :   0.9769 B( 10-C , 57-H ) :   0.9821 B( 10-C , 58-H ) :   0.9842
B( 11-N , 20-C ) :   1.1296 B( 11-N , 24-C ) :   1.1104 B( 11-N , 25-C ) :   0.9597
B( 12-C , 14-C ) :   1.3509 B( 12-C , 59-H ) :   0.9743 B( 13-N , 31-C ) :   1.1514
B( 13-N , 35-C ) :   1.1481 B( 13-N , 36-C ) :   0.9462 B( 14-C , 18-C ) :   1.1408
B( 15-N , 42-C ) :   1.1092 B( 15-N , 46-C ) :   1.1214 B( 15-N , 47-C ) :   0.9617
B( 16-C , 51-C ) :   1.1764 B( 17-C , 60-H ) :   0.9633 B( 18-C , 19-C ) :   1.1475
B( 19-C , 21-C ) :   1.2390 B( 20-C , 28-C ) :   1.6273 B( 20-C , 63-H ) :   0.9703
B( 21-C , 26-C ) :   1.6160 B( 21-C , 64-H ) :   0.9696 B( 22-C , 23-C ) :   1.2885
B( 22-C , 28-C ) :   1.2663 B( 22-C , 29-C ) :   1.2238 B( 23-C , 24-C ) :   1.6195
B( 23-C , 65-H ) :   0.9704 B( 24-C , 66-H ) :   0.9694 B( 25-C , 67-H ) :   0.9760
B( 25-C , 68-H ) :   0.9828 B( 25-C , 69-H ) :   0.9823 B( 26-C , 27-C ) :   1.2349
B( 26-C , 70-H ) :   0.9713 B( 27-C , 29-C ) :   1.2175 B( 28-C , 71-H ) :   0.9718
B( 29-C , 30-C ) :   1.2349 B( 30-C , 32-C ) :   1.2891 B( 31-C , 39-C ) :   1.5993
B( 31-C , 72-H ) :   0.9685 B( 32-C , 37-C ) :   1.5697 B( 32-C , 73-H ) :   0.9784
B( 33-C , 34-C ) :   1.2990 B( 33-C , 39-C ) :   1.2943 B( 33-C , 40-C ) :   1.1949
B( 34-C , 35-C ) :   1.5964 B( 34-C , 74-H ) :   0.9699 B( 35-C , 75-H ) :   0.9685
B( 36-C , 76-H ) :   0.9766 B( 36-C , 77-H ) :   0.9817 B( 36-C , 78-H ) :   0.9825
B( 37-C , 38-C ) :   1.2932 B( 37-C , 79-H ) :   0.9768 B( 38-C , 40-C ) :   1.2261
B( 39-C , 80-H ) :   0.9708 B( 40-C , 41-C ) :   1.2431 B( 41-C , 43-C ) :   1.1917
B( 42-C , 50-C ) :   1.6335 B( 42-C , 81-H ) :   0.9697 B( 43-C , 48-C ) :   1.6606
B( 43-C , 82-H ) :   0.9726 B( 44-C , 45-C ) :   1.2650 B( 44-C , 50-C ) :   1.2708
B( 44-C , 51-C ) :   1.2596 B( 45-C , 46-C ) :   1.6346 B( 45-C , 83-H ) :   0.9717
B( 46-C , 84-H ) :   0.9700 B( 47-C , 85-H ) :   0.9762 B( 47-C , 86-H ) :   0.9829
B( 47-C , 87-H ) :   0.9825 B( 48-C , 49-C ) :   1.1946 B( 48-C , 88-H ) :   0.9746
B( 49-C , 51-C ) :   1.2370 B( 50-C , 89-H ) :   0.9711

MP2 TOTAL ENERGY:    -2130.898510380 Eh
FINAL SINGLE POINT ENERGY     -2130.898510379879

DIPOLE MOMENT
-------------
                                X             Y             Z
Electronic contribution:      2.06507      -3.38744      -0.12016
Nuclear contribution   :     -0.05092       0.15083       0.14434
                        -----------------------------------------
Total Dipole Moment    :      2.01415      -3.23660       0.02418
                        -----------------------------------------
Magnitude (a.u.)       :      3.81221
Magnitude (Debye)      :      9.68988

Rotational constants in cm-1:     0.001501     0.001476     0.000761
Rotational constants in MHz :    45.006504    44.253726    22.810111

                             ****ORCA TERMINATED NORMALLY****
TOTAL RUN TIME: 0 days 1 hours 34 minutes 53 seconds 830 msec
