                         Program Version 5.0.4 -  RELEASE  -
|  1> ! PAL2
|  2> ! mp2 cc-pvdz TightSCF  NoKeepInts
|  3>
|  4> %scf
|  5>   MaxCore 2000
|  6> end
|  7> %mp2
|  8>   MaxCore 2000
|  9> end
| 10> * xyz 0 1
| 11>    C       -4.95300         5.18600        -0.02100
| 12>    C        1.47400         4.04100         0.05700
| 13>    C       -2.80200         4.09300         0.04900
| 14>    C       -2.21700         5.36400         0.15400
| 15>    C       -3.01000         6.49400         0.17000
| 16>    C       -5.18200         7.62300         0.13900
| 17>    C        0.13200         4.30700         0.06100
| 18>    C       -0.56900         3.05600         0.04700
| 19>    C        1.64900         2.61800         0.02300
| 20>    C       -4.20100         4.02600        -0.03600
| 21>    N       -4.35700         6.39600         0.08000
| 22>    N        0.38800         2.06700         0.02500
| 23>    N       -2.01000         0.39500        -0.07500
| 24>    N       -0.38800        -2.07400        -0.02700
| 25>    N        2.01000        -0.40100         0.06500
| 26>    C       -1.96000         2.86100         0.02400
| 27>    C       -2.62300         1.61500        -0.01800
| 28>    C       -5.57300        -4.32900         1.06600
| 29>    C       -4.07300         1.47100         0.05600
| 30>    C       -4.10600        -2.75600        -0.02600
| 31>    C       -4.99500        -2.75700        -1.11100
| 32>    C       -6.13200        -3.54200        -1.07600
| 33>    C       -7.65100        -5.11300         0.04000
| 34>    C       -4.32400         0.14100         0.03700
| 35>    C       -3.02500        -0.52000        -0.04800
| 36>    C       -4.42200        -3.56600         1.07500
| 37>    N       -6.40700        -4.31300         0.00100
| 38>    C       -2.86700        -1.92200        -0.04000
| 39>    C       -1.65000        -2.62400        -0.02700
| 40>    C        3.56800        -6.14200        -1.04000
| 41>    C       -1.47600        -4.04900        -0.03400
| 42>    C        2.80300        -4.09900        -0.00800
| 43>    C        3.65700        -4.38400         1.06900
| 44>    C        4.42700        -5.53000         1.05900
| 45>    C        5.24500        -7.58800         0.01400
| 46>    C       -0.13400        -4.31500        -0.02200
| 47>    C        0.56800        -3.06400        -0.02700
| 48>    C        2.77500        -5.01200        -1.07400
| 49>    N        4.37600        -6.39100         0.01700
| 50>    C        1.95900        -2.86900        -0.00900
| 51>    C        2.62100        -1.62200         0.00900
| 52>    C        5.54300         4.33900        -1.13000
| 53>    C        4.07000        -1.47900        -0.09400
| 54>    C        4.10400         2.75100        -0.02100
| 55>    C        5.02700         2.72900         1.03600
| 56>    C        6.16600         3.50900         0.97800
| 57>    C        7.61900         5.15300        -0.11500
| 58>    C        4.32100        -0.14800        -0.09200
| 59>    C        3.02500         0.51400         0.01500
| 60>    C        4.38700         3.58200        -1.11500
| 61>    C        2.86600         1.91600         0.01300
| 62>    N        6.41300         4.29600        -0.09500
| 63>    H       -6.03300         5.18200        -0.09700
| 64>    H        2.27400         4.76600         0.08100
| 65>    H       -1.14300         5.48000         0.23200
| 66>    H       -2.60600         7.49400         0.25800
| 67>    H       -5.37500         7.87200         1.18500
| 68>    H       -4.64000         8.43400        -0.34600
| 69>    H       -6.12200         7.43800        -0.38100
| 70>    H       -0.33200         5.28200         0.06900
| 71>    H       -4.71200         3.07500        -0.13300
| 72>    H        0.18200         1.07200         0.00500
| 73>    H       -0.18300        -1.08000        -0.02100
| 74>    H       -5.86400        -4.96200         1.89500
| 75>    H       -4.79400         2.27200         0.13900
| 76>    H       -4.80000        -2.16000        -1.99400
| 77>    H       -6.84100        -3.58200        -1.89300
| 78>    H       -8.42800        -4.53600         0.54600
| 79>    H       -7.95600        -5.33700        -0.98100
| 80>    H       -7.45600        -6.03700         0.58400
| 81>    H       -5.28700        -0.34400         0.10000
| 82>    H       -3.78000        -3.60100         1.94700
| 83>    H        3.58700        -6.86800        -1.84300
| 84>    H       -2.27600        -4.77400        -0.05000
| 85>    H        3.71400        -3.72400         1.92600
| 86>    H        5.09200        -5.79500         1.87100
| 87>    H        6.20500        -7.32900        -0.43900
| 88>    H        5.39300        -7.91700         1.04200
| 89>    H        4.75900        -8.37300        -0.56400
| 90>    H        0.32900        -5.29000        -0.00800
| 91>    H        2.14600        -4.84200        -1.94000
| 92>    H        5.80800         4.98600        -1.95600
| 93>    H        4.78800        -2.28100        -0.18500
| 94>    H        4.86000         2.11400         1.91200
| 95>    H        6.90100         3.53100         1.77200
| 96>    H        7.38300         6.10900         0.35600
| 97>    H        8.41400         4.65200         0.43500
| 98>    H        7.92100         5.31000        -1.15000
| 99>    H        5.28300         0.33600        -0.17900
|100>    H        3.72000         3.63200        -1.96700
|101> *
|102>
|103>                          ****END OF INPUT****

CARTESIAN COORDINATES (ANGSTROEM)
---------------------------------
  C     -4.953000    5.186000   -0.021000
  C      1.474000    4.041000    0.057000
  C     -2.802000    4.093000    0.049000
  C     -2.217000    5.364000    0.154000
  C     -3.010000    6.494000    0.170000
  C     -5.182000    7.623000    0.139000
  C      0.132000    4.307000    0.061000
  C     -0.569000    3.056000    0.047000
  C      1.649000    2.618000    0.023000
  C     -4.201000    4.026000   -0.036000
  N     -4.357000    6.396000    0.080000
  N      0.388000    2.067000    0.025000
  N     -2.010000    0.395000   -0.075000
  N     -0.388000   -2.074000   -0.027000
  N      2.010000   -0.401000    0.065000
  C     -1.960000    2.861000    0.024000
  C     -2.623000    1.615000   -0.018000
  C     -5.573000   -4.329000    1.066000
  C     -4.073000    1.471000    0.056000
  C     -4.106000   -2.756000   -0.026000
  C     -4.995000   -2.757000   -1.111000
  C     -6.132000   -3.542000   -1.076000
  C     -7.651000   -5.113000    0.040000
  C     -4.324000    0.141000    0.037000
  C     -3.025000   -0.520000   -0.048000
  C     -4.422000   -3.566000    1.075000
  N     -6.407000   -4.313000    0.001000
  C     -2.867000   -1.922000   -0.040000
  C     -1.650000   -2.624000   -0.027000
  C      3.568000   -6.142000   -1.040000
  C     -1.476000   -4.049000   -0.034000
  C      2.803000   -4.099000   -0.008000
  C      3.657000   -4.384000    1.069000
  C      4.427000   -5.530000    1.059000
  C      5.245000   -7.588000    0.014000
  C     -0.134000   -4.315000   -0.022000
  C      0.568000   -3.064000   -0.027000
  C      2.775000   -5.012000   -1.074000
  N      4.376000   -6.391000    0.017000
  C      1.959000   -2.869000   -0.009000
  C      2.621000   -1.622000    0.009000
  C      5.543000    4.339000   -1.130000
  C      4.070000   -1.479000   -0.094000
  C      4.104000    2.751000   -0.021000
  C      5.027000    2.729000    1.036000
  C      6.166000    3.509000    0.978000
  C      7.619000    5.153000   -0.115000
  C      4.321000   -0.148000   -0.092000
  C      3.025000    0.514000    0.015000
  C      4.387000    3.582000   -1.115000
  C      2.866000    1.916000    0.013000
  N      6.413000    4.296000   -0.095000
  H     -6.033000    5.182000   -0.097000
  H      2.274000    4.766000    0.081000
  H     -1.143000    5.480000    0.232000
  H     -2.606000    7.494000    0.258000
  H     -5.375000    7.872000    1.185000
  H     -4.640000    8.434000   -0.346000
  H     -6.122000    7.438000   -0.381000
  H     -0.332000    5.282000    0.069000
  H     -4.712000    3.075000   -0.133000
  H      0.182000    1.072000    0.005000
  H     -0.183000   -1.080000   -0.021000
  H     -5.864000   -4.962000    1.895000
  H     -4.794000    2.272000    0.139000
  H     -4.800000   -2.160000   -1.994000
  H     -6.841000   -3.582000   -1.893000
  H     -8.428000   -4.536000    0.546000
  H     -7.956000   -5.337000   -0.981000
  H     -7.456000   -6.037000    0.584000
  H     -5.287000   -0.344000    0.100000
  H     -3.780000   -3.601000    1.947000
  H      3.587000   -6.868000   -1.843000
  H     -2.276000   -4.774000   -0.050000
  H      3.714000   -3.724000    1.926000
  H      5.092000   -5.795000    1.871000
  H      6.205000   -7.329000   -0.439000
  H      5.393000   -7.917000    1.042000
  H      4.759000   -8.373000   -0.564000
  H      0.329000   -5.290000   -0.008000
  H      2.146000   -4.842000   -1.940000
  H      5.808000    4.986000   -1.956000
  H      4.788000   -2.281000   -0.185000
  H      4.860000    2.114000    1.912000
  H      6.901000    3.531000    1.772000
  H      7.383000    6.109000    0.356000
  H      8.414000    4.652000    0.435000
  H      7.921000    5.310000   -1.150000
  H      5.283000    0.336000   -0.179000
  H      3.720000    3.632000   -1.967000

 Total Charge           Charge          ....    0
 Multiplicity           Mult            ....    1
 Number of Electrons    NEL             ....  358
 Basis Dimension        Dim             ....  918

ORBITAL ENERGIES
----------------

  NO   OCC          E(Eh)            E(eV)
   0   2.0000     -15.680172      -426.6792
   1   2.0000     -15.634449      -425.4350
   2   2.0000     -15.631487      -425.3544
   3   2.0000     -15.587848      -424.1669
   4   2.0000     -15.525164      -422.4612
   5   2.0000     -15.515413      -422.1959
   6   2.0000     -15.453692      -420.5163
   7   2.0000     -15.439560      -420.1318
   8   2.0000     -11.329761      -308.2985
   9   2.0000     -11.328625      -308.2676
  10   2.0000     -11.328152      -308.2547
  11   2.0000     -11.299610      -307.4780
  12   2.0000     -11.298172      -307.4389
  13   2.0000     -11.293410      -307.3093
  14   2.0000     -11.290972      -307.2430
  15   2.0000     -11.286945      -307.1334
  16   2.0000     -11.286184      -307.1127
  17   2.0000     -11.282388      -307.0094
  18   2.0000     -11.269309      -306.6535
  19   2.0000     -11.263580      -306.4976
  20   2.0000     -11.262586      -306.4705
  21   2.0000     -11.250026      -306.1288
  22   2.0000     -11.248513      -306.0876
  23   2.0000     -11.238199      -305.8069
  24   2.0000     -11.236290      -305.7550
  25   2.0000     -11.231455      -305.6234
  26   2.0000     -11.230788      -305.6053
  27   2.0000     -11.229494      -305.5701
  28   2.0000     -11.229269      -305.5640
  29   2.0000     -11.211295      -305.0749
  30   2.0000     -11.209792      -305.0339
  31   2.0000     -11.193490      -304.5903
  32   2.0000     -11.192211      -304.5556
  33   2.0000     -11.191437      -304.5345
  34   2.0000     -11.188276      -304.4485
  35   2.0000     -11.187937      -304.4392
  36   2.0000     -11.186791      -304.4081
  37   2.0000     -11.174900      -304.0845
  38   2.0000     -11.172548      -304.0205
  39   2.0000     -11.170513      -303.9651
  40   2.0000     -11.170176      -303.9559
  41   2.0000     -11.168708      -303.9160
  42   2.0000     -11.167571      -303.8851
  43   2.0000     -11.161758      -303.7269
  44   2.0000     -11.160999      -303.7062
  45   2.0000     -11.156646      -303.5878
  46   2.0000     -11.156468      -303.5829
  47   2.0000     -11.150809      -303.4289
  48   2.0000     -11.146806      -303.3200
  49   2.0000     -11.135567      -303.0142
  50   2.0000     -11.129734      -302.8555
  51   2.0000     -11.117521      -302.5231
  52   2.0000      -1.360690       -37.0263
  53   2.0000      -1.321620       -35.9631
  54   2.0000      -1.319328       -35.9007
  55   2.0000      -1.279678       -34.8218
  56   2.0000      -1.226330       -33.3701
  57   2.0000      -1.210338       -32.9350
  58   2.0000      -1.173352       -31.9285
  59   2.0000      -1.150832       -31.3157
  60   2.0000      -1.143869       -31.1263
  61   2.0000      -1.110550       -30.2196
  62   2.0000      -1.108754       -30.1707
  63   2.0000      -1.082346       -29.4521
  64   2.0000      -1.077160       -29.3110
  65   2.0000      -1.045780       -28.4571
  66   2.0000      -1.043991       -28.4084
  67   2.0000      -1.041266       -28.3343
  68   2.0000      -1.015021       -27.6201
  69   2.0000      -1.014489       -27.6056
  70   2.0000      -1.009054       -27.4578
  71   2.0000      -0.993732       -27.0408
  72   2.0000      -0.985479       -26.8163
  73   2.0000      -0.982018       -26.7221
  74   2.0000      -0.974177       -26.5087
  75   2.0000      -0.962096       -26.1800
  76   2.0000      -0.954704       -25.9788
  77   2.0000      -0.946469       -25.7547
  78   2.0000      -0.938863       -25.5478
  79   2.0000      -0.916630       -24.9428
  80   2.0000      -0.910866       -24.7859
  81   2.0000      -0.898516       -24.4499
  82   2.0000      -0.877531       -23.8788
  83   2.0000      -0.872650       -23.7460
  84   2.0000      -0.870692       -23.6927
  85   2.0000      -0.861504       -23.4427
  86   2.0000      -0.844193       -22.9716
  87   2.0000      -0.838988       -22.8300
  88   2.0000      -0.829308       -22.5666
  89   2.0000      -0.796355       -21.6699
  90   2.0000      -0.789103       -21.4726
  91   2.0000      -0.774567       -21.0770
  92   2.0000      -0.753271       -20.4976
  93   2.0000      -0.734313       -19.9817
  94   2.0000      -0.728649       -19.8276
  95   2.0000      -0.726200       -19.7609
  96   2.0000      -0.720353       -19.6018
  97   2.0000      -0.717938       -19.5361
  98   2.0000      -0.713795       -19.4233
  99   2.0000      -0.699346       -19.0302
 100   2.0000      -0.698513       -19.0075
 101   2.0000      -0.694335       -18.8938
 102   2.0000      -0.685575       -18.6554
 103   2.0000      -0.684517       -18.6266
 104   2.0000      -0.679120       -18.4798
 105   2.0000      -0.674465       -18.3531
 106   2.0000      -0.672835       -18.3088
 107   2.0000      -0.660797       -17.9812
 108   2.0000      -0.658239       -17.9116
 109   2.0000      -0.653160       -17.7734
 110   2.0000      -0.651867       -17.7382
 111   2.0000      -0.646447       -17.5907
 112   2.0000      -0.645818       -17.5736
 113   2.0000      -0.638205       -17.3664
 114   2.0000      -0.635404       -17.2902
 115   2.0000      -0.628392       -17.0994
 116   2.0000      -0.623058       -16.9543
 117   2.0000      -0.620342       -16.8804
 118   2.0000      -0.613176       -16.6854
 119   2.0000      -0.612577       -16.6691
 120   2.0000      -0.611941       -16.6518
 121   2.0000      -0.611161       -16.6305
 122   2.0000      -0.601282       -16.3617
 123   2.0000      -0.589406       -16.0386
 124   2.0000      -0.581948       -15.8356
 125   2.0000      -0.580775       -15.8037
 126   2.0000      -0.580325       -15.7914
 127   2.0000      -0.571267       -15.5450
 128   2.0000      -0.566803       -15.4235
 129   2.0000      -0.559888       -15.2353
 130   2.0000      -0.555735       -15.1223
 131   2.0000      -0.547979       -14.9113
 132   2.0000      -0.542876       -14.7724
 133   2.0000      -0.540542       -14.7089
 134   2.0000      -0.538942       -14.6654
 135   2.0000      -0.535873       -14.5818
 136   2.0000      -0.531872       -14.4730
 137   2.0000      -0.518074       -14.0975
 138   2.0000      -0.517123       -14.0716
 139   2.0000      -0.514016       -13.9871
 140   2.0000      -0.511821       -13.9274
 141   2.0000      -0.510231       -13.8841
 142   2.0000      -0.507917       -13.8211
 143   2.0000      -0.505386       -13.7523
 144   2.0000      -0.501940       -13.6585
 145   2.0000      -0.495511       -13.4835
 146   2.0000      -0.488619       -13.2960
 147   2.0000      -0.481311       -13.0971
 148   2.0000      -0.476288       -12.9605
 149   2.0000      -0.467816       -12.7299
 150   2.0000      -0.466172       -12.6852
 151   2.0000      -0.456205       -12.4140
 152   2.0000      -0.451318       -12.2810
 153   2.0000      -0.445247       -12.1158
 154   2.0000      -0.438102       -11.9214
 155   2.0000      -0.427714       -11.6387
 156   2.0000      -0.409225       -11.1356
 157   2.0000      -0.391234       -10.6460
 158   2.0000      -0.388071       -10.5599
 159   2.0000      -0.384472       -10.4620
 160   2.0000      -0.378479       -10.2989
 161   2.0000      -0.373465       -10.1625
 162   2.0000      -0.362374        -9.8607
 163   2.0000      -0.356955        -9.7132
 164   2.0000      -0.355631        -9.6772
 165   2.0000      -0.341712        -9.2984
 166   2.0000      -0.337655        -9.1881
 167   2.0000      -0.324893        -8.8408
 168   2.0000      -0.320860        -8.7310
 169   2.0000      -0.305588        -8.3155
 170   2.0000      -0.299221        -8.1422
 171   2.0000      -0.285894        -7.7796
 172   2.0000      -0.278161        -7.5691
 173   2.0000      -0.263332        -7.1656
 174   2.0000      -0.241998        -6.5851
 175   2.0000      -0.190012        -5.1705
 176   2.0000      -0.181431        -4.9370
 177   2.0000      -0.080348        -2.1864
 178   2.0000      -0.059777        -1.6266
 179   0.0000       0.028395         0.7727
 180   0.0000       0.065286         1.7765
 181   0.0000       0.090182         2.4540
 182   0.0000       0.106015         2.8848
 183   0.0000       0.116826         3.1790

MULLIKEN ATOMIC CHARGES
-----------------------
   0 C :    0.223138
   1 N :   -0.455768
   2 C :   -0.070935
   3 N :   -0.341382
   4 C :   -0.107896
   5 N :   -0.569095
   6 C :   -0.107295
   7 N :   -0.341097
   8 C :    0.225895
   9 N :   -0.562489
  10 C :    0.119610
  11 N :   -0.438317
  12 C :   -0.047588
  13 N :   -0.429236
  14 C :    0.208498
  15 N :   -0.441004
  16 C :    0.235956
  17 C :   -0.107294
  18 C :   -0.165774
  19 C :    0.205448
  20 C :    0.214103
  21 C :   -0.048524
  22 C :   -0.089868
  23 C :   -0.039547
  24 C :    0.193517
  25 C :    0.114535
  26 C :   -0.090326
  27 C :    0.217848
  28 C :   -0.061803
  29 C :   -0.183481
  30 C :    0.245818
  31 C :    0.230671
  32 C :   -0.061334
  33 C :   -0.059779
  34 C :   -0.051047
  35 C :    0.228727
  36 C :    0.108152
  37 C :   -0.064498
  38 C :    0.231306
  39 C :   -0.057758
  40 C :   -0.181678
  41 C :    0.225857
  42 C :    0.197159
  43 C :   -0.072784
  44 C :   -0.089798
  45 C :   -0.061734
  46 C :    0.211676
  47 C :    0.115388
  48 C :   -0.066515
  49 C :    0.237796
  50 C :   -0.046057
  51 C :   -0.193917
  52 H :    0.033785
  53 H :   -0.018501
  54 H :    0.054203
  55 H :    0.031025
  56 H :    0.049458
  57 H :    0.047002
  58 H :    0.046704
  59 H :   -0.021452
  60 H :    0.049505
  61 H :    0.170990
  62 H :    0.175563
  63 H :    0.055470
  64 H :   -0.035411
  65 H :    0.046935
  66 H :    0.055667
  67 H :    0.062608
  68 H :    0.057274
  69 H :    0.056443
  70 H :   -0.030346
  71 H :    0.045004
  72 H :    0.071598
  73 H :   -0.007934
  74 H :    0.060690
  75 H :    0.071038
  76 H :    0.075224
  77 H :    0.068197
  78 H :    0.067479
  79 H :   -0.016697
  80 H :    0.061577
  81 H :    0.054353
  82 H :   -0.025131
  83 H :    0.041786
  84 H :    0.054124
  85 H :    0.060805
  86 H :    0.055487
  87 H :    0.057237
  88 H :   -0.014392
  89 H :    0.047156
Sum of atomic charges:   -0.0000000

LOEWDIN ATOMIC CHARGES
----------------------
   0 C :   -0.020733
   1 N :    0.122358
   2 C :   -0.100257
   3 N :    0.182395
   4 C :   -0.011217
   5 N :   -0.134690
   6 C :   -0.021091
   7 N :    0.174962
   8 C :   -0.017894
   9 N :   -0.140714
  10 C :    0.022756
  11 N :    0.142160
  12 C :   -0.092177
  13 N :    0.166709
  14 C :   -0.014875
  15 N :    0.138694
  16 C :   -0.060778
  17 C :   -0.020090
  18 C :   -0.114897
  19 C :   -0.072470
  20 C :    0.005211
  21 C :   -0.099664
  22 C :    0.037843
  23 C :   -0.014459
  24 C :   -0.012673
  25 C :    0.029861
  26 C :   -0.107904
  27 C :   -0.117295
  28 C :   -0.027579
  29 C :   -0.099038
  30 C :   -0.029996
  31 C :    0.024861
  32 C :   -0.094000
  33 C :    0.082902
  34 C :   -0.014986
  35 C :    0.023490
  36 C :    0.035339
  37 C :   -0.094109
  38 C :   -0.051980
  39 C :   -0.017555
  40 C :   -0.108999
  41 C :   -0.091483
  42 C :   -0.010744
  43 C :   -0.099446
  44 C :    0.033568
  45 C :   -0.028473
  46 C :    0.002011
  47 C :    0.029481
  48 C :   -0.094752
  49 C :   -0.069321
  50 C :   -0.018529
  51 C :   -0.108630
  52 H :    0.021793
  53 H :    0.002388
  54 H :   -0.015886
  55 H :    0.021574
  56 H :    0.021951
  57 H :    0.025889
  58 H :    0.026820
  59 H :    0.002497
  60 H :   -0.013615
  61 H :    0.060319
  62 H :    0.061933
  63 H :    0.030830
  64 H :   -0.000964
  65 H :    0.045845
  66 H :    0.029248
  67 H :    0.028309
  68 H :    0.031645
  69 H :    0.030335
  70 H :   -0.004926
  71 H :    0.043568
  72 H :    0.037852
  73 H :    0.007176
  74 H :    0.050817
  75 H :    0.037529
  76 H :    0.034960
  77 H :    0.036281
  78 H :    0.035957
  79 H :    0.002916
  80 H :    0.050865
  81 H :    0.029061
  82 H :   -0.002866
  83 H :    0.042429
  84 H :    0.029865
  85 H :    0.027354
  86 H :    0.030154
  87 H :    0.031415
  88 H :    0.002445
  89 H :    0.045136

  Mayer bond orders larger than 0.100000
B(  0-C ,  1-N ) :   1.0951 B(  0-C , 17-C ) :   1.7278 B(  0-C , 52-H ) :   0.9586
B(  1-N ,  8-C ) :   1.0992 B(  1-N , 10-C ) :   0.9772 B(  2-C , 12-C ) :   1.4806
B(  2-C , 16-C ) :   1.3804 B(  2-C , 53-H ) :   0.9709 B(  3-N , 14-C ) :   1.2258
B(  3-N , 16-C ) :   1.1778 B(  3-N , 61-H ) :   0.8976 B(  4-C ,  6-C ) :   1.2266
B(  4-C , 17-C ) :   1.2276 B(  4-C , 18-C ) :   1.4857 B(  5-N , 19-C ) :   1.4614
B(  5-N , 27-C ) :   1.3679 B(  6-C ,  8-C ) :   1.7294 B(  6-C , 54-H ) :   0.8588
B(  7-N , 30-C ) :   1.1947 B(  7-N , 38-C ) :   1.1898 B(  7-N , 62-H ) :   0.8967
B(  8-C , 55-H ) :   0.9603 B(  9-N , 41-C ) :   1.3943 B(  9-N , 49-C ) :   1.4251
B( 10-C , 56-H ) :   0.9777 B( 10-C , 57-H ) :   0.9827 B( 10-C , 58-H ) :   0.9835
B( 11-N , 20-C ) :   1.1317 B( 11-N , 24-C ) :   1.1071 B( 11-N , 25-C ) :   0.9600
B( 12-C , 14-C ) :   1.3643 B( 12-C , 59-H ) :   0.8998 B( 13-N , 31-C ) :   1.1623
B( 13-N , 35-C ) :   1.1609 B( 13-N , 36-C ) :   0.9410 B( 14-C , 18-C ) :   1.1148
B( 15-N , 42-C ) :   1.1073 B( 15-N , 46-C ) :   1.1246 B( 15-N , 47-C ) :   0.9614
B( 16-C , 51-C ) :   1.1671 B( 17-C , 60-H ) :   0.8507 B( 18-C , 19-C ) :   1.1135
B( 19-C , 21-C ) :   1.2541 B( 20-C , 28-C ) :   1.6282 B( 20-C , 63-H ) :   0.9702
B( 21-C , 26-C ) :   1.5782 B( 21-C , 64-H ) :   0.8972 B( 22-C , 23-C ) :   1.2902
B( 22-C , 28-C ) :   1.2641 B( 22-C , 29-C ) :   1.2259 B( 23-C , 24-C ) :   1.6194
B( 23-C , 65-H ) :   0.9703 B( 24-C , 66-H ) :   0.9695 B( 25-C , 67-H ) :   0.9760
B( 25-C , 68-H ) :   0.9828 B( 25-C , 69-H ) :   0.9823 B( 26-C , 27-C ) :   1.2655
B( 26-C , 70-H ) :   0.9655 B( 27-C , 29-C ) :   1.2057 B( 28-C , 71-H ) :   0.9720
B( 29-C , 30-C ) :   1.2480 B( 30-C , 32-C ) :   1.2778 B( 31-C , 39-C ) :   1.5871
B( 31-C , 72-H ) :   0.9681 B( 32-C , 37-C ) :   1.5811 B( 32-C , 73-H ) :   0.9786
B( 33-C , 34-C ) :   1.3076 B( 33-C , 39-C ) :   1.3045 B( 33-C , 40-C ) :   1.1751
B( 34-C , 35-C ) :   1.5846 B( 34-C , 74-H ) :   0.9696 B( 35-C , 75-H ) :   0.9681
B( 36-C , 76-H ) :   0.9768 B( 36-C , 77-H ) :   0.9816 B( 36-C , 78-H ) :   0.9823
B( 37-C , 38-C ) :   1.2838 B( 37-C , 79-H ) :   0.9764 B( 38-C , 40-C ) :   1.2349
B( 39-C , 80-H ) :   0.9705 B( 40-C , 41-C ) :   1.2503 B( 41-C , 43-C ) :   1.1845
B( 42-C , 50-C ) :   1.6334 B( 42-C , 81-H ) :   0.9697 B( 43-C , 48-C ) :   1.6684
B( 43-C , 82-H ) :   0.9721 B( 44-C , 45-C ) :   1.2630 B( 44-C , 50-C ) :   1.2722
B( 44-C , 51-C ) :   1.2614 B( 45-C , 46-C ) :   1.6348 B( 45-C , 83-H ) :   0.9718
B( 46-C , 84-H ) :   0.9700 B( 47-C , 85-H ) :   0.9762 B( 47-C , 86-H ) :   0.9829
B( 47-C , 87-H ) :   0.9824 B( 48-C , 49-C ) :   1.1879 B( 48-C , 88-H ) :   0.9749
B( 49-C , 51-C ) :   1.2460 B( 50-C , 89-H ) :   0.9708 B( 54-H , 59-H ) :   0.1177
B( 60-H , 64-H ) :   0.1237

MP2 TOTAL ENERGY:    -2130.746357568 Eh
FINAL SINGLE POINT ENERGY     -2130.746357568123

DIPOLE MOMENT
-------------
                                X             Y             Z
Electronic contribution:      2.75625      -4.40878      -0.20509
Nuclear contribution   :      0.05916       0.22563       0.20398
                        -----------------------------------------
Total Dipole Moment    :      2.81540      -4.18315      -0.00111
                        -----------------------------------------
Magnitude (a.u.)       :      5.04235
Magnitude (Debye)      :     12.81663

Rotational constants in cm-1:     0.001501     0.001480     0.000760
Rotational constants in MHz :    45.012846    44.359188    22.780670

                             ****ORCA TERMINATED NORMALLY****
TOTAL RUN TIME: 0 days 1 hours 12 minutes 24 seconds 512 msec
