                         Program Version 5.0.4 -  RELEASE  -
|  1> ! PAL2
|  2> ! mp2 cc-pvdz TightSCF  NoKeepInts
|  3>
|  4> %scf
|  5>   MaxCore 2000
|  6> end
|  7> %mp2
|  8>   MaxCore 2000
|  9> end
| 10> * xyz 0 1
| 11>    C       -3.71600         6.05200        -1.02500
| 12>    C        1.47400         4.04100         0.05700
| 13>    C       -2.80200         4.09300         0.04900
| 14>    C       -3.48400         4.47700         1.21400
| 15>    C       -4.25500         5.62200         1.22100
| 16>    C       -5.22400         7.59400         0.14200
| 17>    C        0.13200         4.30700         0.06100
| 18>    C       -0.56900         3.05600         0.04700
| 19>    C        1.64900         2.61800         0.02300
| 20>    C       -2.93700         4.91100        -1.08300
| 21>    N       -4.36000         6.39300         0.11400
| 22>    N        0.38800         2.06700         0.02500
| 23>    N       -2.01000         0.39500        -0.07500
| 24>    N       -0.38800        -2.07400        -0.02700
| 25>    N        2.01000        -0.40100         0.06500
| 26>    C       -1.96000         2.86100         0.02400
| 27>    C       -2.62300         1.61500        -0.01800
| 28>    C       -5.57300        -4.32900         1.06600
| 29>    C       -4.07300         1.47100         0.05600
| 30>    C       -4.10600        -2.75600        -0.02600
| 31>    C       -4.99500        -2.75700        -1.11100
| 32>    C       -6.13200        -3.54200        -1.07600
| 33>    C       -7.65100        -5.11300         0.04000
| 34>    C       -4.32400         0.14100         0.03700
| 35>    C       -3.02500        -0.52000        -0.04800
| 36>    C       -4.42200        -3.56600         1.07500
| 37>    N       -6.40700        -4.31300         0.00100
| 38>    C       -2.86700        -1.92200        -0.04000
| 39>    C       -1.65000        -2.62400        -0.02700
| 40>    C        3.56800        -6.14200        -1.04000
| 41>    C       -1.47600        -4.04900        -0.03400
| 42>    C        2.80300        -4.09900        -0.00800
| 43>    C        3.65700        -4.38400         1.06900
| 44>    C        4.42700        -5.53000         1.05900
| 45>    C        5.24500        -7.58800         0.01400
| 46>    C       -0.13400        -4.31500        -0.02200
| 47>    C        0.56800        -3.06400        -0.02700
| 48>    C        2.77500        -5.01200        -1.07400
| 49>    N        4.37600        -6.39100         0.01700
| 50>    C        1.95900        -2.86900        -0.00900
| 51>    C        2.62100        -1.62200         0.00900
| 52>    C        5.54300         4.33900        -1.13000
| 53>    C        4.07000        -1.47900        -0.09400
| 54>    C        4.10400         2.75100        -0.02100
| 55>    C        5.02700         2.72900         1.03600
| 56>    C        6.16600         3.50900         0.97800
| 57>    C        7.61900         5.15300        -0.11500
| 58>    C        4.32100        -0.14800        -0.09200
| 59>    C        3.02500         0.51400         0.01500
| 60>    C        4.38700         3.58200        -1.11500
| 61>    C        2.86600         1.91600         0.01300
| 62>    N        6.41300         4.29600        -0.09500
| 63>    H       -3.83800         6.71800        -1.87000
| 64>    H        2.27400         4.76600         0.08100
| 65>    H       -3.42700         3.88100         2.11700
| 66>    H       -4.80600         5.95300         2.09200
| 67>    H       -6.24900         7.30000        -0.09200
| 68>    H       -5.17800         8.03500         1.13800
| 69>    H       -4.85900         8.30600        -0.59800
| 70>    H       -0.33200         5.28200         0.06900
| 71>    H       -2.42400         4.67700        -2.00800
| 72>    H        0.18200         1.07200         0.00500
| 73>    H       -0.18300        -1.08000        -0.02100
| 74>    H       -5.86400        -4.96200         1.89500
| 75>    H       -4.79400         2.27200         0.13900
| 76>    H       -4.80000        -2.16000        -1.99400
| 77>    H       -6.84100        -3.58200        -1.89300
| 78>    H       -8.42800        -4.53600         0.54600
| 79>    H       -7.95600        -5.33700        -0.98100
| 80>    H       -7.45600        -6.03700         0.58400
| 81>    H       -5.28700        -0.34400         0.10000
| 82>    H       -3.78000        -3.60100         1.94700
| 83>    H        3.58700        -6.86800        -1.84300
| 84>    H       -2.27600        -4.77400        -0.05000
| 85>    H        3.71400        -3.72400         1.92600
| 86>    H        5.09200        -5.79500         1.87100
| 87>    H        6.20500        -7.32900        -0.43900
| 88>    H        5.39300        -7.91700         1.04200
| 89>    H        4.75900        -8.37300        -0.56400
| 90>    H        0.32900        -5.29000        -0.00800
| 91>    H        2.14600        -4.84200        -1.94000
| 92>    H        5.80800         4.98600        -1.95600
| 93>    H        4.78800        -2.28100        -0.18500
| 94>    H        4.86000         2.11400         1.91200
| 95>    H        6.90100         3.53100         1.77200
| 96>    H        7.38300         6.10900         0.35600
| 97>    H        8.41400         4.65200         0.43500
| 98>    H        7.92100         5.31000        -1.15000
| 99>    H        5.28300         0.33600        -0.17900
|100>    H        3.72000         3.63200        -1.96700
|101> *
|102>
|103>                          ****END OF INPUT****

CARTESIAN COORDINATES (ANGSTROEM)
---------------------------------
  C     -3.716000    6.052000   -1.025000
  C      1.474000    4.041000    0.057000
  C     -2.802000    4.093000    0.049000
  C     -3.484000    4.477000    1.214000
  C     -4.255000    5.622000    1.221000
  C     -5.224000    7.594000    0.142000
  C      0.132000    4.307000    0.061000
  C     -0.569000    3.056000    0.047000
  C      1.649000    2.618000    0.023000
  C     -2.937000    4.911000   -1.083000
  N     -4.360000    6.393000    0.114000
  N      0.388000    2.067000    0.025000
  N     -2.010000    0.395000   -0.075000
  N     -0.388000   -2.074000   -0.027000
  N      2.010000   -0.401000    0.065000
  C     -1.960000    2.861000    0.024000
  C     -2.623000    1.615000   -0.018000
  C     -5.573000   -4.329000    1.066000
  C     -4.073000    1.471000    0.056000
  C     -4.106000   -2.756000   -0.026000
  C     -4.995000   -2.757000   -1.111000
  C     -6.132000   -3.542000   -1.076000
  C     -7.651000   -5.113000    0.040000
  C     -4.324000    0.141000    0.037000
  C     -3.025000   -0.520000   -0.048000
  C     -4.422000   -3.566000    1.075000
  N     -6.407000   -4.313000    0.001000
  C     -2.867000   -1.922000   -0.040000
  C     -1.650000   -2.624000   -0.027000
  C      3.568000   -6.142000   -1.040000
  C     -1.476000   -4.049000   -0.034000
  C      2.803000   -4.099000   -0.008000
  C      3.657000   -4.384000    1.069000
  C      4.427000   -5.530000    1.059000
  C      5.245000   -7.588000    0.014000
  C     -0.134000   -4.315000   -0.022000
  C      0.568000   -3.064000   -0.027000
  C      2.775000   -5.012000   -1.074000
  N      4.376000   -6.391000    0.017000
  C      1.959000   -2.869000   -0.009000
  C      2.621000   -1.622000    0.009000
  C      5.543000    4.339000   -1.130000
  C      4.070000   -1.479000   -0.094000
  C      4.104000    2.751000   -0.021000
  C      5.027000    2.729000    1.036000
  C      6.166000    3.509000    0.978000
  C      7.619000    5.153000   -0.115000
  C      4.321000   -0.148000   -0.092000
  C      3.025000    0.514000    0.015000
  C      4.387000    3.582000   -1.115000
  C      2.866000    1.916000    0.013000
  N      6.413000    4.296000   -0.095000
  H     -3.838000    6.718000   -1.870000
  H      2.274000    4.766000    0.081000
  H     -3.427000    3.881000    2.117000
  H     -4.806000    5.953000    2.092000
  H     -6.249000    7.300000   -0.092000
  H     -5.178000    8.035000    1.138000
  H     -4.859000    8.306000   -0.598000
  H     -0.332000    5.282000    0.069000
  H     -2.424000    4.677000   -2.008000
  H      0.182000    1.072000    0.005000
  H     -0.183000   -1.080000   -0.021000
  H     -5.864000   -4.962000    1.895000
  H     -4.794000    2.272000    0.139000
  H     -4.800000   -2.160000   -1.994000
  H     -6.841000   -3.582000   -1.893000
  H     -8.428000   -4.536000    0.546000
  H     -7.956000   -5.337000   -0.981000
  H     -7.456000   -6.037000    0.584000
  H     -5.287000   -0.344000    0.100000
  H     -3.780000   -3.601000    1.947000
  H      3.587000   -6.868000   -1.843000
  H     -2.276000   -4.774000   -0.050000
  H      3.714000   -3.724000    1.926000
  H      5.092000   -5.795000    1.871000
  H      6.205000   -7.329000   -0.439000
  H      5.393000   -7.917000    1.042000
  H      4.759000   -8.373000   -0.564000
  H      0.329000   -5.290000   -0.008000
  H      2.146000   -4.842000   -1.940000
  H      5.808000    4.986000   -1.956000
  H      4.788000   -2.281000   -0.185000
  H      4.860000    2.114000    1.912000
  H      6.901000    3.531000    1.772000
  H      7.383000    6.109000    0.356000
  H      8.414000    4.652000    0.435000
  H      7.921000    5.310000   -1.150000
  H      5.283000    0.336000   -0.179000
  H      3.720000    3.632000   -1.967000

 Total Charge           Charge          ....    0
 Multiplicity           Mult            ....    1
 Number of Electrons    NEL             ....  358
 Basis Dimension        Dim             ....  918

ORBITAL ENERGIES
----------------

  NO   OCC          E(Eh)            E(eV)
   0   2.0000     -15.682298      -426.7370
   1   2.0000     -15.634698      -425.4418
   2   2.0000     -15.624093      -425.1532
   3   2.0000     -15.597215      -424.4218
   4   2.0000     -15.519104      -422.2963
   5   2.0000     -15.509152      -422.0255
   6   2.0000     -15.448172      -420.3661
   7   2.0000     -15.432975      -419.9526
   8   2.0000     -11.329625      -308.2948
   9   2.0000     -11.328406      -308.2616
  10   2.0000     -11.327807      -308.2453
  11   2.0000     -11.299939      -307.4870
  12   2.0000     -11.293664      -307.3162
  13   2.0000     -11.292995      -307.2980
  14   2.0000     -11.287536      -307.1495
  15   2.0000     -11.284519      -307.0674
  16   2.0000     -11.280713      -306.9638
  17   2.0000     -11.278014      -306.8904
  18   2.0000     -11.276313      -306.8441
  19   2.0000     -11.263618      -306.4986
  20   2.0000     -11.263096      -306.4844
  21   2.0000     -11.260425      -306.4117
  22   2.0000     -11.257475      -306.3315
  23   2.0000     -11.238095      -305.8041
  24   2.0000     -11.230872      -305.6076
  25   2.0000     -11.229993      -305.5836
  26   2.0000     -11.228291      -305.5373
  27   2.0000     -11.223020      -305.3939
  28   2.0000     -11.222753      -305.3866
  29   2.0000     -11.204406      -304.8874
  30   2.0000     -11.204081      -304.8785
  31   2.0000     -11.203848      -304.8722
  32   2.0000     -11.203203      -304.8546
  33   2.0000     -11.202338      -304.8311
  34   2.0000     -11.186538      -304.4012
  35   2.0000     -11.186179      -304.3914
  36   2.0000     -11.185464      -304.3720
  37   2.0000     -11.184667      -304.3503
  38   2.0000     -11.184083      -304.3344
  39   2.0000     -11.168057      -303.8983
  40   2.0000     -11.166676      -303.8607
  41   2.0000     -11.163509      -303.7745
  42   2.0000     -11.160404      -303.6900
  43   2.0000     -11.159161      -303.6562
  44   2.0000     -11.154506      -303.5295
  45   2.0000     -11.154385      -303.5262
  46   2.0000     -11.154276      -303.5233
  47   2.0000     -11.148967      -303.3788
  48   2.0000     -11.146456      -303.3105
  49   2.0000     -11.139977      -303.1342
  50   2.0000     -11.126333      -302.7629
  51   2.0000     -11.122618      -302.6618
  52   2.0000      -1.361439       -37.0466
  53   2.0000      -1.321882       -35.9702
  54   2.0000      -1.312380       -35.7117
  55   2.0000      -1.289663       -35.0935
  56   2.0000      -1.220068       -33.1997
  57   2.0000      -1.205576       -32.8054
  58   2.0000      -1.169767       -31.8310
  59   2.0000      -1.145097       -31.1597
  60   2.0000      -1.142515       -31.0894
  61   2.0000      -1.110058       -30.2062
  62   2.0000      -1.101787       -29.9812
  63   2.0000      -1.082224       -29.4488
  64   2.0000      -1.081641       -29.4329
  65   2.0000      -1.045868       -28.4595
  66   2.0000      -1.038865       -28.2690
  67   2.0000      -1.037061       -28.2199
  68   2.0000      -1.015917       -27.6445
  69   2.0000      -1.013373       -27.5753
  70   2.0000      -1.005782       -27.3687
  71   2.0000      -0.988864       -26.9084
  72   2.0000      -0.985141       -26.8070
  73   2.0000      -0.977951       -26.6114
  74   2.0000      -0.968177       -26.3454
  75   2.0000      -0.959533       -26.1102
  76   2.0000      -0.951247       -25.8847
  77   2.0000      -0.945154       -25.7189
  78   2.0000      -0.927329       -25.2339
  79   2.0000      -0.918587       -24.9960
  80   2.0000      -0.909223       -24.7412
  81   2.0000      -0.888889       -24.1879
  82   2.0000      -0.874723       -23.8024
  83   2.0000      -0.870257       -23.6809
  84   2.0000      -0.864207       -23.5163
  85   2.0000      -0.851494       -23.1703
  86   2.0000      -0.842617       -22.9288
  87   2.0000      -0.831741       -22.6328
  88   2.0000      -0.822317       -22.3764
  89   2.0000      -0.796127       -21.6637
  90   2.0000      -0.792043       -21.5526
  91   2.0000      -0.752595       -20.4791
  92   2.0000      -0.734131       -19.9767
  93   2.0000      -0.727255       -19.7896
  94   2.0000      -0.721289       -19.6273
  95   2.0000      -0.716964       -19.5096
  96   2.0000      -0.714267       -19.4362
  97   2.0000      -0.707702       -19.2576
  98   2.0000      -0.699289       -19.0286
  99   2.0000      -0.695472       -18.9247
 100   2.0000      -0.693917       -18.8824
 101   2.0000      -0.684933       -18.6380
 102   2.0000      -0.682744       -18.5784
 103   2.0000      -0.676793       -18.4165
 104   2.0000      -0.672217       -18.2919
 105   2.0000      -0.669008       -18.2046
 106   2.0000      -0.666604       -18.1392
 107   2.0000      -0.655781       -17.8447
 108   2.0000      -0.653749       -17.7894
 109   2.0000      -0.650797       -17.7091
 110   2.0000      -0.646657       -17.5964
 111   2.0000      -0.646326       -17.5874
 112   2.0000      -0.646079       -17.5807
 113   2.0000      -0.639361       -17.3979
 114   2.0000      -0.634163       -17.2565
 115   2.0000      -0.627743       -17.0818
 116   2.0000      -0.622593       -16.9416
 117   2.0000      -0.615792       -16.7565
 118   2.0000      -0.612746       -16.6737
 119   2.0000      -0.612403       -16.6643
 120   2.0000      -0.609025       -16.5724
 121   2.0000      -0.604882       -16.4597
 122   2.0000      -0.594913       -16.1884
 123   2.0000      -0.588723       -16.0200
 124   2.0000      -0.585166       -15.9232
 125   2.0000      -0.581754       -15.8303
 126   2.0000      -0.575973       -15.6730
 127   2.0000      -0.573908       -15.6168
 128   2.0000      -0.570807       -15.5325
 129   2.0000      -0.559083       -15.2134
 130   2.0000      -0.555759       -15.1230
 131   2.0000      -0.547613       -14.9013
 132   2.0000      -0.545312       -14.8387
 133   2.0000      -0.538586       -14.6557
 134   2.0000      -0.534941       -14.5565
 135   2.0000      -0.531803       -14.4711
 136   2.0000      -0.520713       -14.1693
 137   2.0000      -0.518019       -14.0960
 138   2.0000      -0.513796       -13.9811
 139   2.0000      -0.512674       -13.9506
 140   2.0000      -0.510442       -13.8898
 141   2.0000      -0.507952       -13.8221
 142   2.0000      -0.503000       -13.6873
 143   2.0000      -0.500071       -13.6076
 144   2.0000      -0.496338       -13.5060
 145   2.0000      -0.493979       -13.4418
 146   2.0000      -0.493425       -13.4268
 147   2.0000      -0.483418       -13.1545
 148   2.0000      -0.481110       -13.0917
 149   2.0000      -0.464559       -12.6413
 150   2.0000      -0.463110       -12.6019
 151   2.0000      -0.456214       -12.4142
 152   2.0000      -0.449700       -12.2370
 153   2.0000      -0.442014       -12.0278
 154   2.0000      -0.439174       -11.9505
 155   2.0000      -0.437668       -11.9095
 156   2.0000      -0.426587       -11.6080
 157   2.0000      -0.420260       -11.4359
 158   2.0000      -0.402893       -10.9633
 159   2.0000      -0.387210       -10.5365
 160   2.0000      -0.382550       -10.4097
 161   2.0000      -0.372998       -10.1498
 162   2.0000      -0.359911        -9.7937
 163   2.0000      -0.356863        -9.7107
 164   2.0000      -0.349374        -9.5070
 165   2.0000      -0.339114        -9.2278
 166   2.0000      -0.337241        -9.1768
 167   2.0000      -0.331291        -9.0149
 168   2.0000      -0.318751        -8.6737
 169   2.0000      -0.299421        -8.1477
 170   2.0000      -0.298642        -8.1265
 171   2.0000      -0.285305        -7.7636
 172   2.0000      -0.281255        -7.6533
 173   2.0000      -0.262047        -7.1307
 174   2.0000      -0.237254        -6.4560
 175   2.0000      -0.185061        -5.0358
 176   2.0000      -0.174990        -4.7617
 177   2.0000      -0.062727        -1.7069
 178   2.0000      -0.051404        -1.3988
 179   0.0000       0.033952         0.9239
 180   0.0000       0.062326         1.6960
 181   0.0000       0.091326         2.4851
 182   0.0000       0.096661         2.6303
 183   0.0000       0.107235         2.9180

MULLIKEN ATOMIC CHARGES
-----------------------
   0 C :    0.225156
   1 N :   -0.424238
   2 C :   -0.066163
   3 N :   -0.341045
   4 C :   -0.072580
   5 N :   -0.565347
   6 C :   -0.035531
   7 N :   -0.336894
   8 C :    0.222107
   9 N :   -0.565347
  10 C :    0.107689
  11 N :   -0.438584
  12 C :   -0.061803
  13 N :   -0.447810
  14 C :    0.228807
  15 N :   -0.441007
  16 C :    0.248522
  17 C :   -0.041027
  18 C :   -0.191884
  19 C :    0.235676
  20 C :    0.195666
  21 C :   -0.073057
  22 C :   -0.087912
  23 C :   -0.061147
  24 C :    0.214809
  25 C :    0.114306
  26 C :   -0.068654
  27 C :    0.240237
  28 C :   -0.043510
  29 C :   -0.194396
  30 C :    0.225572
  31 C :    0.193944
  32 C :   -0.066352
  33 C :   -0.096671
  34 C :   -0.051046
  35 C :    0.186441
  36 C :    0.119004
  37 C :   -0.069428
  38 C :    0.241423
  39 C :   -0.063611
  40 C :   -0.200108
  41 C :    0.218673
  42 C :    0.210119
  43 C :   -0.075663
  44 C :   -0.090281
  45 C :   -0.042513
  46 C :    0.190879
  47 C :    0.116182
  48 C :   -0.079349
  49 C :    0.213906
  50 C :   -0.062639
  51 C :   -0.188629
  52 H :    0.072523
  53 H :   -0.009594
  54 H :    0.060094
  55 H :    0.071177
  56 H :    0.075597
  57 H :    0.069467
  58 H :    0.067845
  59 H :   -0.023549
  60 H :    0.058198
  61 H :    0.175892
  62 H :    0.169274
  63 H :    0.054531
  64 H :   -0.029503
  65 H :    0.043660
  66 H :    0.056469
  67 H :    0.060144
  68 H :    0.057099
  69 H :    0.059331
  70 H :   -0.017703
  71 H :    0.047569
  72 H :    0.042963
  73 H :   -0.018705
  74 H :    0.034373
  75 H :    0.041845
  76 H :    0.050728
  77 H :    0.049552
  78 H :    0.048835
  79 H :   -0.012574
  80 H :    0.034435
  81 H :    0.051741
  82 H :   -0.022585
  83 H :    0.043439
  84 H :    0.051084
  85 H :    0.056249
  86 H :    0.056693
  87 H :    0.055399
  88 H :   -0.027730
  89 H :    0.040846
Sum of atomic charges:   -0.0000000

LOEWDIN ATOMIC CHARGES
----------------------
   0 C :    0.024393
   1 N :    0.171686
   2 C :   -0.099941
   3 N :    0.174157
   4 C :    0.086069
   5 N :   -0.145245
   6 C :   -0.011472
   7 N :    0.177852
   8 C :    0.021658
   9 N :   -0.138966
  10 C :    0.036064
  11 N :    0.142077
  12 C :   -0.098601
  13 N :    0.121638
  14 C :   -0.056362
  15 N :    0.136721
  16 C :   -0.026742
  17 C :   -0.014398
  18 C :   -0.115413
  19 C :   -0.089401
  20 C :   -0.010992
  21 C :   -0.100715
  22 C :    0.039204
  23 C :   -0.029048
  24 C :    0.006124
  25 C :    0.029857
  26 C :   -0.096386
  27 C :   -0.067221
  28 C :   -0.016504
  29 C :   -0.116521
  30 C :   -0.059053
  31 C :   -0.018948
  32 C :   -0.102292
  33 C :    0.007139
  34 C :   -0.025166
  35 C :   -0.025567
  36 C :    0.025023
  37 C :   -0.107644
  38 C :   -0.033970
  39 C :   -0.031433
  40 C :   -0.112352
  41 C :   -0.092073
  42 C :   -0.000356
  43 C :   -0.110457
  44 C :    0.030842
  45 C :   -0.016390
  46 C :   -0.017006
  47 C :    0.028715
  48 C :   -0.110767
  49 C :   -0.108883
  50 C :   -0.030083
  51 C :   -0.107907
  52 H :    0.037672
  53 H :    0.006462
  54 H :    0.051875
  55 H :    0.037459
  56 H :    0.034946
  57 H :    0.036664
  58 H :    0.036458
  59 H :    0.000959
  60 H :    0.050948
  61 H :    0.062076
  62 H :    0.058545
  63 H :    0.029714
  64 H :   -0.004038
  65 H :    0.043287
  66 H :    0.030450
  67 H :    0.027292
  68 H :    0.031539
  69 H :    0.031482
  70 H :    0.001115
  71 H :    0.045660
  72 H :    0.024520
  73 H :    0.002007
  74 H :    0.039753
  75 H :    0.023691
  76 H :    0.022330
  77 H :    0.027534
  78 H :    0.027237
  79 H :    0.005102
  80 H :    0.039102
  81 H :    0.028468
  82 H :   -0.001238
  83 H :    0.044211
  84 H :    0.027765
  85 H :    0.025233
  86 H :    0.030542
  87 H :    0.030531
  88 H :   -0.003934
  89 H :    0.041635

  Mayer bond orders larger than 0.100000
B(  0-C ,  1-N ) :   1.1693 B(  0-C , 17-C ) :   1.5657 B(  0-C , 52-H ) :   0.9681
B(  1-N ,  8-C ) :   1.1626 B(  1-N , 10-C ) :   0.9399 B(  2-C , 12-C ) :   1.5618
B(  2-C , 16-C ) :   1.2943 B(  2-C , 53-H ) :   0.9787 B(  3-N , 14-C ) :   1.1845
B(  3-N , 16-C ) :   1.2016 B(  3-N , 61-H ) :   0.8962 B(  4-C ,  6-C ) :   1.3230
B(  4-C , 17-C ) :   1.3241 B(  4-C , 18-C ) :   1.1297 B(  5-N , 19-C ) :   1.3812
B(  5-N , 27-C ) :   1.4357 B(  6-C ,  8-C ) :   1.5665 B(  6-C , 54-H ) :   0.9709
B(  7-N , 30-C ) :   1.1886 B(  7-N , 38-C ) :   1.2104 B(  7-N , 62-H ) :   0.9004
B(  8-C , 55-H ) :   0.9686 B(  9-N , 41-C ) :   1.4277 B(  9-N , 49-C ) :   1.3985
B( 10-C , 56-H ) :   0.9764 B( 10-C , 57-H ) :   0.9810 B( 10-C , 58-H ) :   0.9825
B( 11-N , 20-C ) :   1.1087 B( 11-N , 24-C ) :   1.1328 B( 11-N , 25-C ) :   0.9599
B( 12-C , 14-C ) :   1.2941 B( 12-C , 59-H ) :   0.9773 B( 13-N , 31-C ) :   1.0944
B( 13-N , 35-C ) :   1.0864 B( 13-N , 36-C ) :   0.9751 B( 14-C , 18-C ) :   1.2366
B( 15-N , 42-C ) :   1.1241 B( 15-N , 46-C ) :   1.0991 B( 15-N , 47-C ) :   0.9643
B( 16-C , 51-C ) :   1.2263 B( 17-C , 60-H ) :   0.9715 B( 18-C , 19-C ) :   1.2794
B( 19-C , 21-C ) :   1.1790 B( 20-C , 28-C ) :   1.6251 B( 20-C , 63-H ) :   0.9706
B( 21-C , 26-C ) :   1.6682 B( 21-C , 64-H ) :   0.9722 B( 22-C , 23-C ) :   1.2669
B( 22-C , 28-C ) :   1.2794 B( 22-C , 29-C ) :   1.2478 B( 23-C , 24-C ) :   1.6272
B( 23-C , 65-H ) :   0.9717 B( 24-C , 66-H ) :   0.9690 B( 25-C , 67-H ) :   0.9763
B( 25-C , 68-H ) :   0.9832 B( 25-C , 69-H ) :   0.9819 B( 26-C , 27-C ) :   1.1853
B( 26-C , 70-H ) :   0.9748 B( 27-C , 29-C ) :   1.2378 B( 28-C , 71-H ) :   0.9710
B( 29-C , 30-C ) :   1.1846 B( 30-C , 32-C ) :   1.3410 B( 31-C , 39-C ) :   1.6670
B( 31-C , 72-H ) :   0.9706 B( 32-C , 37-C ) :   1.5177 B( 32-C , 73-H ) :   0.9773
B( 33-C , 34-C ) :   1.2458 B( 33-C , 39-C ) :   1.2391 B( 33-C , 40-C ) :   1.3218
B( 34-C , 35-C ) :   1.6652 B( 34-C , 74-H ) :   0.9709 B( 35-C , 75-H ) :   0.9705
B( 36-C , 76-H ) :   0.9758 B( 36-C , 77-H ) :   0.9824 B( 36-C , 78-H ) :   0.9836
B( 37-C , 38-C ) :   1.3383 B( 37-C , 79-H ) :   0.9787 B( 38-C , 40-C ) :   1.1857
B( 39-C , 80-H ) :   0.9720 B( 40-C , 41-C ) :   1.1863 B( 41-C , 43-C ) :   1.2395
B( 42-C , 50-C ) :   1.6376 B( 42-C , 81-H ) :   0.9696 B( 43-C , 48-C ) :   1.6118
B( 43-C , 82-H ) :   0.9751 B( 44-C , 45-C ) :   1.2791 B( 44-C , 50-C ) :   1.2564
B( 44-C , 51-C ) :   1.2480 B( 45-C , 46-C ) :   1.6311 B( 45-C , 83-H ) :   0.9705
B( 46-C , 84-H ) :   0.9706 B( 47-C , 85-H ) :   0.9760 B( 47-C , 86-H ) :   0.9826
B( 47-C , 87-H ) :   0.9828 B( 48-C , 49-C ) :   1.2353 B( 48-C , 88-H ) :   0.9730
B( 49-C , 51-C ) :   1.2046 B( 50-C , 89-H ) :   0.9719

MP2 TOTAL ENERGY:    -2130.892955004 Eh
FINAL SINGLE POINT ENERGY     -2130.892955003768

DIPOLE MOMENT
-------------
                                X             Y             Z
Electronic contribution:     -2.98194       3.15429      -0.15040
Nuclear contribution   :     -0.03795       0.15825       0.19333
                        -----------------------------------------
Total Dipole Moment    :     -3.01989       3.31254       0.04293
                        -----------------------------------------
Magnitude (a.u.)       :      4.48269
Magnitude (Debye)      :     11.39409

Rotational constants in cm-1:     0.001498     0.001473     0.000763
Rotational constants in MHz :    44.916399    44.150638    22.861192

                             ****ORCA TERMINATED NORMALLY****
TOTAL RUN TIME: 0 days 1 hours 11 minutes 22 seconds 914 msec
