                         Program Version 5.0.4 -  RELEASE  -
|  1> ! PAL2
|  2> ! mp2 cc-pvdz TightSCF  NoKeepInts
|  3>
|  4> %scf
|  5>   MaxCore 2000
|  6> end
|  7> %mp2
|  8>   MaxCore 2000
|  9> end
| 10> * xyz 0 1
| 11>    C       -3.10500         6.43700         0.53700
| 12>    C        1.47400         4.04100         0.05700
| 13>    C       -2.80200         4.09300         0.04900
| 14>    C       -4.13400         4.06500        -0.39100
| 15>    C       -4.90100         5.21300        -0.35600
| 16>    C       -5.22100         7.59700         0.09500
| 17>    C        0.13200         4.30700         0.06100
| 18>    C       -0.56900         3.05600         0.04700
| 19>    C        1.64900         2.61800         0.02300
| 20>    C       -2.29700         5.31700         0.51600
| 21>    N       -4.38500         6.37600         0.10600
| 22>    N        0.38800         2.06700         0.02500
| 23>    N       -2.01000         0.39500        -0.07500
| 24>    N       -0.38800        -2.07400        -0.02700
| 25>    N        2.01000        -0.40100         0.06500
| 26>    C       -1.96000         2.86100         0.02400
| 27>    C       -2.62300         1.61500        -0.01800
| 28>    C       -5.57300        -4.32900         1.06600
| 29>    C       -4.07300         1.47100         0.05600
| 30>    C       -4.10600        -2.75600        -0.02600
| 31>    C       -4.99500        -2.75700        -1.11100
| 32>    C       -6.13200        -3.54200        -1.07600
| 33>    C       -7.65100        -5.11300         0.04000
| 34>    C       -4.32400         0.14100         0.03700
| 35>    C       -3.02500        -0.52000        -0.04800
| 36>    C       -4.42200        -3.56600         1.07500
| 37>    N       -6.40700        -4.31300         0.00100
| 38>    C       -2.86700        -1.92200        -0.04000
| 39>    C       -1.65000        -2.62400        -0.02700
| 40>    C        3.56800        -6.14200        -1.04000
| 41>    C       -1.47600        -4.04900        -0.03400
| 42>    C        2.80300        -4.09900        -0.00800
| 43>    C        3.65700        -4.38400         1.06900
| 44>    C        4.42700        -5.53000         1.05900
| 45>    C        5.24500        -7.58800         0.01400
| 46>    C       -0.13400        -4.31500        -0.02200
| 47>    C        0.56800        -3.06400        -0.02700
| 48>    C        2.77500        -5.01200        -1.07400
| 49>    N        4.37600        -6.39100         0.01700
| 50>    C        1.95900        -2.86900        -0.00900
| 51>    C        2.62100        -1.62200         0.00900
| 52>    C        5.54300         4.33900        -1.13000
| 53>    C        4.07000        -1.47900        -0.09400
| 54>    C        4.10400         2.75100        -0.02100
| 55>    C        5.02700         2.72900         1.03600
| 56>    C        6.16600         3.50900         0.97800
| 57>    C        7.61900         5.15300        -0.11500
| 58>    C        4.32100        -0.14800        -0.09200
| 59>    C        3.02500         0.51400         0.01500
| 60>    C        4.38700         3.58200        -1.11500
| 61>    C        2.86600         1.91600         0.01300
| 62>    N        6.41300         4.29600        -0.09500
| 63>    H       -2.76200         7.39800         0.89900
| 64>    H        2.27400         4.76600         0.08100
| 65>    H       -4.57800         3.15300        -0.77100
| 66>    H       -5.92900         5.24200        -0.69300
| 67>    H       -5.14200         8.07300        -0.88600
| 68>    H       -6.25500         7.31700         0.29400
| 69>    H       -4.86200         8.27400         0.86900
| 70>    H       -0.33200         5.28200         0.06900
| 71>    H       -1.28100         5.40000         0.88200
| 72>    H        0.18200         1.07200         0.00500
| 73>    H       -0.18300        -1.08000        -0.02100
| 74>    H       -5.86400        -4.96200         1.89500
| 75>    H       -4.79400         2.27200         0.13900
| 76>    H       -4.80000        -2.16000        -1.99400
| 77>    H       -6.84100        -3.58200        -1.89300
| 78>    H       -8.42800        -4.53600         0.54600
| 79>    H       -7.95600        -5.33700        -0.98100
| 80>    H       -7.45600        -6.03700         0.58400
| 81>    H       -5.28700        -0.34400         0.10000
| 82>    H       -3.78000        -3.60100         1.94700
| 83>    H        3.58700        -6.86800        -1.84300
| 84>    H       -2.27600        -4.77400        -0.05000
| 85>    H        3.71400        -3.72400         1.92600
| 86>    H        5.09200        -5.79500         1.87100
| 87>    H        6.20500        -7.32900        -0.43900
| 88>    H        5.39300        -7.91700         1.04200
| 89>    H        4.75900        -8.37300        -0.56400
| 90>    H        0.32900        -5.29000        -0.00800
| 91>    H        2.14600        -4.84200        -1.94000
| 92>    H        5.80800         4.98600        -1.95600
| 93>    H        4.78800        -2.28100        -0.18500
| 94>    H        4.86000         2.11400         1.91200
| 95>    H        6.90100         3.53100         1.77200
| 96>    H        7.38300         6.10900         0.35600
| 97>    H        8.41400         4.65200         0.43500
| 98>    H        7.92100         5.31000        -1.15000
| 99>    H        5.28300         0.33600        -0.17900
|100>    H        3.72000         3.63200        -1.96700
|101> *
|102>
|103>                          ****END OF INPUT****

CARTESIAN COORDINATES (ANGSTROEM)
---------------------------------
  C     -3.105000    6.437000    0.537000
  C      1.474000    4.041000    0.057000
  C     -2.802000    4.093000    0.049000
  C     -4.134000    4.065000   -0.391000
  C     -4.901000    5.213000   -0.356000
  C     -5.221000    7.597000    0.095000
  C      0.132000    4.307000    0.061000
  C     -0.569000    3.056000    0.047000
  C      1.649000    2.618000    0.023000
  C     -2.297000    5.317000    0.516000
  N     -4.385000    6.376000    0.106000
  N      0.388000    2.067000    0.025000
  N     -2.010000    0.395000   -0.075000
  N     -0.388000   -2.074000   -0.027000
  N      2.010000   -0.401000    0.065000
  C     -1.960000    2.861000    0.024000
  C     -2.623000    1.615000   -0.018000
  C     -5.573000   -4.329000    1.066000
  C     -4.073000    1.471000    0.056000
  C     -4.106000   -2.756000   -0.026000
  C     -4.995000   -2.757000   -1.111000
  C     -6.132000   -3.542000   -1.076000
  C     -7.651000   -5.113000    0.040000
  C     -4.324000    0.141000    0.037000
  C     -3.025000   -0.520000   -0.048000
  C     -4.422000   -3.566000    1.075000
  N     -6.407000   -4.313000    0.001000
  C     -2.867000   -1.922000   -0.040000
  C     -1.650000   -2.624000   -0.027000
  C      3.568000   -6.142000   -1.040000
  C     -1.476000   -4.049000   -0.034000
  C      2.803000   -4.099000   -0.008000
  C      3.657000   -4.384000    1.069000
  C      4.427000   -5.530000    1.059000
  C      5.245000   -7.588000    0.014000
  C     -0.134000   -4.315000   -0.022000
  C      0.568000   -3.064000   -0.027000
  C      2.775000   -5.012000   -1.074000
  N      4.376000   -6.391000    0.017000
  C      1.959000   -2.869000   -0.009000
  C      2.621000   -1.622000    0.009000
  C      5.543000    4.339000   -1.130000
  C      4.070000   -1.479000   -0.094000
  C      4.104000    2.751000   -0.021000
  C      5.027000    2.729000    1.036000
  C      6.166000    3.509000    0.978000
  C      7.619000    5.153000   -0.115000
  C      4.321000   -0.148000   -0.092000
  C      3.025000    0.514000    0.015000
  C      4.387000    3.582000   -1.115000
  C      2.866000    1.916000    0.013000
  N      6.413000    4.296000   -0.095000
  H     -2.762000    7.398000    0.899000
  H      2.274000    4.766000    0.081000
  H     -4.578000    3.153000   -0.771000
  H     -5.929000    5.242000   -0.693000
  H     -5.142000    8.073000   -0.886000
  H     -6.255000    7.317000    0.294000
  H     -4.862000    8.274000    0.869000
  H     -0.332000    5.282000    0.069000
  H     -1.281000    5.400000    0.882000
  H      0.182000    1.072000    0.005000
  H     -0.183000   -1.080000   -0.021000
  H     -5.864000   -4.962000    1.895000
  H     -4.794000    2.272000    0.139000
  H     -4.800000   -2.160000   -1.994000
  H     -6.841000   -3.582000   -1.893000
  H     -8.428000   -4.536000    0.546000
  H     -7.956000   -5.337000   -0.981000
  H     -7.456000   -6.037000    0.584000
  H     -5.287000   -0.344000    0.100000
  H     -3.780000   -3.601000    1.947000
  H      3.587000   -6.868000   -1.843000
  H     -2.276000   -4.774000   -0.050000
  H      3.714000   -3.724000    1.926000
  H      5.092000   -5.795000    1.871000
  H      6.205000   -7.329000   -0.439000
  H      5.393000   -7.917000    1.042000
  H      4.759000   -8.373000   -0.564000
  H      0.329000   -5.290000   -0.008000
  H      2.146000   -4.842000   -1.940000
  H      5.808000    4.986000   -1.956000
  H      4.788000   -2.281000   -0.185000
  H      4.860000    2.114000    1.912000
  H      6.901000    3.531000    1.772000
  H      7.383000    6.109000    0.356000
  H      8.414000    4.652000    0.435000
  H      7.921000    5.310000   -1.150000
  H      5.283000    0.336000   -0.179000
  H      3.720000    3.632000   -1.967000

 Total Charge           Charge          ....    0
 Multiplicity           Mult            ....    1
 Number of Electrons    NEL             ....  358
 Basis Dimension        Dim             ....  918

ORBITAL ENERGIES
----------------

  NO   OCC          E(Eh)            E(eV)
   0   2.0000     -15.677849      -426.6160
   1   2.0000     -15.636018      -425.4777
   2   2.0000     -15.629856      -425.3100
   3   2.0000     -15.587737      -424.1639
   4   2.0000     -15.525597      -422.4730
   5   2.0000     -15.515519      -422.1987
   6   2.0000     -15.453018      -420.4980
   7   2.0000     -15.441527      -420.1853
   8   2.0000     -11.328101      -308.2533
   9   2.0000     -11.326732      -308.2160
  10   2.0000     -11.326415      -308.2074
  11   2.0000     -11.300611      -307.5053
  12   2.0000     -11.297107      -307.4099
  13   2.0000     -11.294606      -307.3419
  14   2.0000     -11.289409      -307.2004
  15   2.0000     -11.288549      -307.1770
  16   2.0000     -11.284956      -307.0793
  17   2.0000     -11.280252      -306.9513
  18   2.0000     -11.270608      -306.6888
  19   2.0000     -11.262046      -306.4558
  20   2.0000     -11.261077      -306.4295
  21   2.0000     -11.253388      -306.2202
  22   2.0000     -11.249990      -306.1278
  23   2.0000     -11.239742      -305.8489
  24   2.0000     -11.234691      -305.7115
  25   2.0000     -11.232749      -305.6586
  26   2.0000     -11.232136      -305.6420
  27   2.0000     -11.228276      -305.5369
  28   2.0000     -11.227948      -305.5280
  29   2.0000     -11.211592      -305.0829
  30   2.0000     -11.210102      -305.0424
  31   2.0000     -11.195637      -304.6488
  32   2.0000     -11.190808      -304.5174
  33   2.0000     -11.189633      -304.4854
  34   2.0000     -11.188238      -304.4474
  35   2.0000     -11.186841      -304.4094
  36   2.0000     -11.185590      -304.3754
  37   2.0000     -11.184070      -304.3340
  38   2.0000     -11.183063      -304.3066
  39   2.0000     -11.174774      -304.0811
  40   2.0000     -11.173870      -304.0565
  41   2.0000     -11.169294      -303.9319
  42   2.0000     -11.169235      -303.9303
  43   2.0000     -11.160646      -303.6966
  44   2.0000     -11.160379      -303.6894
  45   2.0000     -11.158251      -303.6314
  46   2.0000     -11.155545      -303.5578
  47   2.0000     -11.154984      -303.5425
  48   2.0000     -11.146294      -303.3061
  49   2.0000     -11.136470      -303.0388
  50   2.0000     -11.131435      -302.9017
  51   2.0000     -11.120247      -302.5973
  52   2.0000      -1.358728       -36.9729
  53   2.0000      -1.323003       -36.0008
  54   2.0000      -1.317910       -35.8622
  55   2.0000      -1.281500       -34.8714
  56   2.0000      -1.226630       -33.3783
  57   2.0000      -1.209862       -32.9220
  58   2.0000      -1.172315       -31.9003
  59   2.0000      -1.151869       -31.3440
  60   2.0000      -1.142267       -31.0827
  61   2.0000      -1.111684       -30.2505
  62   2.0000      -1.107610       -30.1396
  63   2.0000      -1.080552       -29.4033
  64   2.0000      -1.077888       -29.3308
  65   2.0000      -1.047135       -28.4940
  66   2.0000      -1.042643       -28.3718
  67   2.0000      -1.040293       -28.3078
  68   2.0000      -1.015245       -27.6262
  69   2.0000      -1.011904       -27.5353
  70   2.0000      -1.008858       -27.4524
  71   2.0000      -0.993960       -27.0470
  72   2.0000      -0.985893       -26.8275
  73   2.0000      -0.981353       -26.7040
  74   2.0000      -0.971878       -26.4462
  75   2.0000      -0.961077       -26.1522
  76   2.0000      -0.953756       -25.9530
  77   2.0000      -0.945690       -25.7335
  78   2.0000      -0.935312       -25.4511
  79   2.0000      -0.917897       -24.9772
  80   2.0000      -0.909126       -24.7386
  81   2.0000      -0.895256       -24.3612
  82   2.0000      -0.875744       -23.8302
  83   2.0000      -0.873435       -23.7674
  84   2.0000      -0.868868       -23.6431
  85   2.0000      -0.857498       -23.3337
  86   2.0000      -0.839265       -22.8376
  87   2.0000      -0.836384       -22.7592
  88   2.0000      -0.825015       -22.4498
  89   2.0000      -0.797222       -21.6935
  90   2.0000      -0.789968       -21.4961
  91   2.0000      -0.753029       -20.4910
  92   2.0000      -0.747192       -20.3321
  93   2.0000      -0.733784       -19.9673
  94   2.0000      -0.725264       -19.7354
  95   2.0000      -0.722592       -19.6627
  96   2.0000      -0.717066       -19.5124
  97   2.0000      -0.713780       -19.4229
  98   2.0000      -0.708618       -19.2825
  99   2.0000      -0.697908       -18.9911
 100   2.0000      -0.696375       -18.9493
 101   2.0000      -0.685500       -18.6534
 102   2.0000      -0.682986       -18.5850
 103   2.0000      -0.681170       -18.5356
 104   2.0000      -0.679330       -18.4855
 105   2.0000      -0.673100       -18.3160
 106   2.0000      -0.670879       -18.2555
 107   2.0000      -0.660676       -17.9779
 108   2.0000      -0.655900       -17.8479
 109   2.0000      -0.654258       -17.8033
 110   2.0000      -0.650200       -17.6928
 111   2.0000      -0.644744       -17.5444
 112   2.0000      -0.644129       -17.5276
 113   2.0000      -0.638262       -17.3680
 114   2.0000      -0.636876       -17.3303
 115   2.0000      -0.627142       -17.0654
 116   2.0000      -0.621800       -16.9200
 117   2.0000      -0.619851       -16.8670
 118   2.0000      -0.614075       -16.7098
 119   2.0000      -0.613273       -16.6880
 120   2.0000      -0.610265       -16.6062
 121   2.0000      -0.609799       -16.5935
 122   2.0000      -0.599600       -16.3160
 123   2.0000      -0.586546       -15.9607
 124   2.0000      -0.582754       -15.8575
 125   2.0000      -0.580466       -15.7953
 126   2.0000      -0.579012       -15.7557
 127   2.0000      -0.573267       -15.5994
 128   2.0000      -0.569071       -15.4852
 129   2.0000      -0.559282       -15.2188
 130   2.0000      -0.551494       -15.0069
 131   2.0000      -0.547742       -14.9048
 132   2.0000      -0.543075       -14.7778
 133   2.0000      -0.542388       -14.7591
 134   2.0000      -0.539414       -14.6782
 135   2.0000      -0.534821       -14.5532
 136   2.0000      -0.528993       -14.3946
 137   2.0000      -0.520376       -14.1601
 138   2.0000      -0.518293       -14.1035
 139   2.0000      -0.514344       -13.9960
 140   2.0000      -0.511836       -13.9278
 141   2.0000      -0.510675       -13.8962
 142   2.0000      -0.509868       -13.8742
 143   2.0000      -0.503875       -13.7111
 144   2.0000      -0.500945       -13.6314
 145   2.0000      -0.495620       -13.4865
 146   2.0000      -0.492318       -13.3967
 147   2.0000      -0.482240       -13.1224
 148   2.0000      -0.477943       -13.0055
 149   2.0000      -0.467238       -12.7142
 150   2.0000      -0.465984       -12.6801
 151   2.0000      -0.457108       -12.4385
 152   2.0000      -0.450732       -12.2651
 153   2.0000      -0.445763       -12.1298
 154   2.0000      -0.440395       -11.9838
 155   2.0000      -0.427913       -11.6441
 156   2.0000      -0.418560       -11.3896
 157   2.0000      -0.409410       -11.1406
 158   2.0000      -0.407634       -11.0923
 159   2.0000      -0.387297       -10.5389
 160   2.0000      -0.386353       -10.5132
 161   2.0000      -0.377943       -10.2844
 162   2.0000      -0.371419       -10.1068
 163   2.0000      -0.358105        -9.7445
 164   2.0000      -0.354493        -9.6462
 165   2.0000      -0.340966        -9.2781
 166   2.0000      -0.337875        -9.1940
 167   2.0000      -0.326160        -8.8753
 168   2.0000      -0.321393        -8.7455
 169   2.0000      -0.305783        -8.3208
 170   2.0000      -0.299320        -8.1449
 171   2.0000      -0.285094        -7.7578
 172   2.0000      -0.279928        -7.6172
 173   2.0000      -0.262846        -7.1524
 174   2.0000      -0.242224        -6.5913
 175   2.0000      -0.190104        -5.1730
 176   2.0000      -0.180709        -4.9174
 177   2.0000      -0.078263        -2.1297
 178   2.0000      -0.059163        -1.6099
 179   0.0000       0.028192         0.7671
 180   0.0000       0.065434         1.7805
 181   0.0000       0.090744         2.4693
 182   0.0000       0.107448         2.9238
 183   0.0000       0.112953         3.0736

MULLIKEN ATOMIC CHARGES
-----------------------
   0 C :    0.216839
   1 N :   -0.456469
   2 C :   -0.073150
   3 N :   -0.339147
   4 C :   -0.057886
   5 N :   -0.564495
   6 C :   -0.115963
   7 N :   -0.340741
   8 C :    0.207224
   9 N :   -0.562516
  10 C :    0.119081
  11 N :   -0.438071
  12 C :   -0.071307
  13 N :   -0.429806
  14 C :    0.215882
  15 N :   -0.441350
  16 C :    0.231629
  17 C :   -0.127366
  18 C :   -0.155747
  19 C :    0.202418
  20 C :    0.214310
  21 C :   -0.084983
  22 C :   -0.089286
  23 C :   -0.040089
  24 C :    0.194826
  25 C :    0.114336
  26 C :   -0.084590
  27 C :    0.212716
  28 C :   -0.061170
  29 C :   -0.182097
  30 C :    0.245707
  31 C :    0.230277
  32 C :   -0.061339
  33 C :   -0.061269
  34 C :   -0.050231
  35 C :    0.226574
  36 C :    0.108480
  37 C :   -0.064318
  38 C :    0.232099
  39 C :   -0.058566
  40 C :   -0.180982
  41 C :    0.224721
  42 C :    0.197110
  43 C :   -0.072640
  44 C :   -0.090708
  45 C :   -0.061323
  46 C :    0.210367
  47 C :    0.115584
  48 C :   -0.067434
  49 C :    0.238028
  50 C :   -0.046490
  51 C :   -0.194756
  52 H :    0.037733
  53 H :   -0.017580
  54 H :    0.053027
  55 H :    0.035893
  56 H :    0.048717
  57 H :    0.048286
  58 H :    0.046232
  59 H :   -0.001028
  60 H :    0.048722
  61 H :    0.170926
  62 H :    0.175651
  63 H :    0.056034
  64 H :   -0.006239
  65 H :    0.046998
  66 H :    0.056153
  67 H :    0.063066
  68 H :    0.057541
  69 H :    0.056857
  70 H :   -0.029303
  71 H :    0.045614
  72 H :    0.070854
  73 H :   -0.008015
  74 H :    0.060004
  75 H :    0.070184
  76 H :    0.074552
  77 H :    0.067670
  78 H :    0.066875
  79 H :   -0.016115
  80 H :    0.060727
  81 H :    0.053985
  82 H :   -0.025204
  83 H :    0.041217
  84 H :    0.053494
  85 H :    0.060319
  86 H :    0.055160
  87 H :    0.056919
  88 H :   -0.014670
  89 H :    0.046822
Sum of atomic charges:   -0.0000000

LOEWDIN ATOMIC CHARGES
----------------------
   0 C :   -0.018379
   1 N :    0.117179
   2 C :   -0.102568
   3 N :    0.183220
   4 C :   -0.013089
   5 N :   -0.131461
   6 C :   -0.038635
   7 N :    0.175286
   8 C :   -0.025970
   9 N :   -0.140582
  10 C :    0.023360
  11 N :    0.142908
  12 C :   -0.115482
  13 N :    0.165360
  14 C :   -0.025203
  15 N :    0.137884
  16 C :   -0.058761
  17 C :   -0.047141
  18 C :   -0.104373
  19 C :   -0.080058
  20 C :    0.005585
  21 C :   -0.122963
  22 C :    0.038486
  23 C :   -0.014714
  24 C :   -0.011358
  25 C :    0.030053
  26 C :   -0.109094
  27 C :   -0.116844
  28 C :   -0.026888
  29 C :   -0.098732
  30 C :   -0.031049
  31 C :    0.024193
  32 C :   -0.093594
  33 C :    0.080364
  34 C :   -0.014734
  35 C :    0.021243
  36 C :    0.035038
  37 C :   -0.094239
  38 C :   -0.050445
  39 C :   -0.018318
  40 C :   -0.108195
  41 C :   -0.092985
  42 C :   -0.010810
  43 C :   -0.099714
  44 C :    0.032008
  45 C :   -0.028417
  46 C :    0.000621
  47 C :    0.029295
  48 C :   -0.095810
  49 C :   -0.069659
  50 C :   -0.019017
  51 C :   -0.109973
  52 H :    0.023055
  53 H :    0.002614
  54 H :    0.036616
  55 H :    0.022536
  56 H :    0.021584
  57 H :    0.026507
  58 H :    0.026478
  59 H :    0.011307
  60 H :    0.033279
  61 H :    0.059988
  62 H :    0.061936
  63 H :    0.031075
  64 H :    0.008985
  65 H :    0.045837
  66 H :    0.029496
  67 H :    0.028538
  68 H :    0.031770
  69 H :    0.030528
  70 H :   -0.004466
  71 H :    0.043846
  72 H :    0.037526
  73 H :    0.007120
  74 H :    0.050564
  75 H :    0.037080
  76 H :    0.034603
  77 H :    0.036031
  78 H :    0.035678
  79 H :    0.003188
  80 H :    0.050452
  81 H :    0.028912
  82 H :   -0.002899
  83 H :    0.042210
  84 H :    0.029550
  85 H :    0.027109
  86 H :    0.029996
  87 H :    0.031269
  88 H :    0.002300
  89 H :    0.044967

  Mayer bond orders larger than 0.100000
B(  0-C ,  1-N ) :   1.0973 B(  0-C , 17-C ) :   1.7117 B(  0-C , 52-H ) :   0.9645
B(  1-N ,  8-C ) :   1.0839 B(  1-N , 10-C ) :   0.9784 B(  2-C , 12-C ) :   1.4976
B(  2-C , 16-C ) :   1.3639 B(  2-C , 53-H ) :   0.9748 B(  3-N , 14-C ) :   1.2191
B(  3-N , 16-C ) :   1.1877 B(  3-N , 61-H ) :   0.8993 B(  4-C ,  6-C ) :   1.2126
B(  4-C , 17-C ) :   1.2107 B(  4-C , 18-C ) :   1.4567 B(  5-N , 19-C ) :   1.4554
B(  5-N , 27-C ) :   1.3757 B(  6-C ,  8-C ) :   1.7167 B(  6-C , 54-H ) :   0.9377
B(  7-N , 30-C ) :   1.1944 B(  7-N , 38-C ) :   1.1909 B(  7-N , 62-H ) :   0.8967
B(  8-C , 55-H ) :   0.9661 B(  9-N , 41-C ) :   1.3925 B(  9-N , 49-C ) :   1.4276
B( 10-C , 56-H ) :   0.9772 B( 10-C , 57-H ) :   0.9831 B( 10-C , 58-H ) :   0.9835
B( 11-N , 20-C ) :   1.1320 B( 11-N , 24-C ) :   1.1088 B( 11-N , 25-C ) :   0.9594
B( 12-C , 14-C ) :   1.3581 B( 12-C , 59-H ) :   0.9649 B( 13-N , 31-C ) :   1.1610
B( 13-N , 35-C ) :   1.1574 B( 13-N , 36-C ) :   0.9421 B( 14-C , 18-C ) :   1.1226
B( 15-N , 42-C ) :   1.1068 B( 15-N , 46-C ) :   1.1226 B( 15-N , 47-C ) :   0.9620
B( 16-C , 51-C ) :   1.1686 B( 17-C , 60-H ) :   0.9377 B( 18-C , 19-C ) :   1.1222
B( 19-C , 21-C ) :   1.2495 B( 20-C , 28-C ) :   1.6269 B( 20-C , 63-H ) :   0.9702
B( 21-C , 26-C ) :   1.5977 B( 21-C , 64-H ) :   0.9638 B( 22-C , 23-C ) :   1.2907
B( 22-C , 28-C ) :   1.2657 B( 22-C , 29-C ) :   1.2226 B( 23-C , 24-C ) :   1.6184
B( 23-C , 65-H ) :   0.9704 B( 24-C , 66-H ) :   0.9695 B( 25-C , 67-H ) :   0.9760
B( 25-C , 68-H ) :   0.9828 B( 25-C , 69-H ) :   0.9823 B( 26-C , 27-C ) :   1.2481
B( 26-C , 70-H ) :   0.9689 B( 27-C , 29-C ) :   1.2095 B( 28-C , 71-H ) :   0.9719
B( 29-C , 30-C ) :   1.2460 B( 30-C , 32-C ) :   1.2789 B( 31-C , 39-C ) :   1.5896
B( 31-C , 72-H ) :   0.9681 B( 32-C , 37-C ) :   1.5803 B( 32-C , 73-H ) :   0.9785
B( 33-C , 34-C ) :   1.3070 B( 33-C , 39-C ) :   1.3019 B( 33-C , 40-C ) :   1.1776
B( 34-C , 35-C ) :   1.5865 B( 34-C , 74-H ) :   0.9696 B( 35-C , 75-H ) :   0.9682
B( 36-C , 76-H ) :   0.9767 B( 36-C , 77-H ) :   0.9816 B( 36-C , 78-H ) :   0.9824
B( 37-C , 38-C ) :   1.2840 B( 37-C , 79-H ) :   0.9766 B( 38-C , 40-C ) :   1.2343
B( 39-C , 80-H ) :   0.9706 B( 40-C , 41-C ) :   1.2494 B( 41-C , 43-C ) :   1.1870
B( 42-C , 50-C ) :   1.6351 B( 42-C , 81-H ) :   0.9697 B( 43-C , 48-C ) :   1.6654
B( 43-C , 82-H ) :   0.9721 B( 44-C , 45-C ) :   1.2623 B( 44-C , 50-C ) :   1.2704
B( 44-C , 51-C ) :   1.2642 B( 45-C , 46-C ) :   1.6363 B( 45-C , 83-H ) :   0.9718
B( 46-C , 84-H ) :   0.9701 B( 47-C , 85-H ) :   0.9762 B( 47-C , 86-H ) :   0.9829
B( 47-C , 87-H ) :   0.9825 B( 48-C , 49-C ) :   1.1905 B( 48-C , 88-H ) :   0.9749
B( 49-C , 51-C ) :   1.2408 B( 50-C , 89-H ) :   0.9709

MP2 TOTAL ENERGY:    -2130.861134351 Eh
FINAL SINGLE POINT ENERGY     -2130.861134350600

DIPOLE MOMENT
-------------
                                X             Y             Z
Electronic contribution:      2.54467      -4.30757      -0.06806
Nuclear contribution   :     -0.01794       0.17622       0.07837
                        -----------------------------------------
Total Dipole Moment    :      2.52673      -4.13135       0.01031
                        -----------------------------------------
Magnitude (a.u.)       :      4.84278
Magnitude (Debye)      :     12.30938

Rotational constants in cm-1:     0.001503     0.001477     0.000760
Rotational constants in MHz :    45.052930    44.274610    22.792709

                             ****ORCA TERMINATED NORMALLY****
TOTAL RUN TIME: 0 days 1 hours 6 minutes 27 seconds 71 msec
