                         Program Version 5.0.4 -  RELEASE  -
|  1> ! PAL2
|  2> ! mp2 cc-pvdz TightSCF  NoKeepInts
|  3>
|  4> %scf
|  5>   MaxCore 2000
|  6> end
|  7> %mp2
|  8>   MaxCore 2000
|  9> end
| 10> * xyz 0 1
| 11>    C       -4.70900         5.33400         0.85300
| 12>    C        1.47400         4.04100         0.05700
| 13>    C       -2.80200         4.09300         0.04900
| 14>    C       -2.47900         5.20400        -0.74600
| 15>    C       -3.27200         6.33300        -0.71400
| 16>    C       -5.17800         7.62600         0.11400
| 17>    C        0.13200         4.30700         0.06100
| 18>    C       -0.56900         3.05600         0.04700
| 19>    C        1.64900         2.61800         0.02300
| 20>    C       -3.94400         4.18400         0.85900
| 21>    N       -4.37100         6.38700         0.07400
| 22>    N        0.38800         2.06700         0.02500
| 23>    N       -2.01000         0.39500        -0.07500
| 24>    N       -0.38800        -2.07400        -0.02700
| 25>    N        2.01000        -0.40100         0.06500
| 26>    C       -1.96000         2.86100         0.02400
| 27>    C       -2.62300         1.61500        -0.01800
| 28>    C       -5.57300        -4.32900         1.06600
| 29>    C       -4.07300         1.47100         0.05600
| 30>    C       -4.10600        -2.75600        -0.02600
| 31>    C       -4.99500        -2.75700        -1.11100
| 32>    C       -6.13200        -3.54200        -1.07600
| 33>    C       -7.65100        -5.11300         0.04000
| 34>    C       -4.32400         0.14100         0.03700
| 35>    C       -3.02500        -0.52000        -0.04800
| 36>    C       -4.42200        -3.56600         1.07500
| 37>    N       -6.40700        -4.31300         0.00100
| 38>    C       -2.86700        -1.92200        -0.04000
| 39>    C       -1.65000        -2.62400        -0.02700
| 40>    C        3.56800        -6.14200        -1.04000
| 41>    C       -1.47600        -4.04900        -0.03400
| 42>    C        2.80300        -4.09900        -0.00800
| 43>    C        3.65700        -4.38400         1.06900
| 44>    C        4.42700        -5.53000         1.05900
| 45>    C        5.24500        -7.58800         0.01400
| 46>    C       -0.13400        -4.31500        -0.02200
| 47>    C        0.56800        -3.06400        -0.02700
| 48>    C        2.77500        -5.01200        -1.07400
| 49>    N        4.37600        -6.39100         0.01700
| 50>    C        1.95900        -2.86900        -0.00900
| 51>    C        2.62100        -1.62200         0.00900
| 52>    C        5.54300         4.33900        -1.13000
| 53>    C        4.07000        -1.47900        -0.09400
| 54>    C        4.10400         2.75100        -0.02100
| 55>    C        5.02700         2.72900         1.03600
| 56>    C        6.16600         3.50900         0.97800
| 57>    C        7.61900         5.15300        -0.11500
| 58>    C        4.32100        -0.14800        -0.09200
| 59>    C        3.02500         0.51400         0.01500
| 60>    C        4.38700         3.58200        -1.11500
| 61>    C        2.86600         1.91600         0.01300
| 62>    N        6.41300         4.29600        -0.09500
| 63>    H       -5.60500         5.44400         1.45200
| 64>    H        2.27400         4.76600         0.08100
| 65>    H       -1.60400         5.19800        -1.38500
| 66>    H       -3.05800         7.21600        -1.30200
| 67>    H       -4.74600         8.30900         0.84900
| 68>    H       -5.16700         8.08400        -0.87500
| 69>    H       -6.19900         7.37000         0.39600
| 70>    H       -0.33200         5.28200         0.06900
| 71>    H       -4.25400         3.35500         1.48500
| 72>    H        0.18200         1.07200         0.00500
| 73>    H       -0.18300        -1.08000        -0.02100
| 74>    H       -5.86400        -4.96200         1.89500
| 75>    H       -4.79400         2.27200         0.13900
| 76>    H       -4.80000        -2.16000        -1.99400
| 77>    H       -6.84100        -3.58200        -1.89300
| 78>    H       -8.42800        -4.53600         0.54600
| 79>    H       -7.95600        -5.33700        -0.98100
| 80>    H       -7.45600        -6.03700         0.58400
| 81>    H       -5.28700        -0.34400         0.10000
| 82>    H       -3.78000        -3.60100         1.94700
| 83>    H        3.58700        -6.86800        -1.84300
| 84>    H       -2.27600        -4.77400        -0.05000
| 85>    H        3.71400        -3.72400         1.92600
| 86>    H        5.09200        -5.79500         1.87100
| 87>    H        6.20500        -7.32900        -0.43900
| 88>    H        5.39300        -7.91700         1.04200
| 89>    H        4.75900        -8.37300        -0.56400
| 90>    H        0.32900        -5.29000        -0.00800
| 91>    H        2.14600        -4.84200        -1.94000
| 92>    H        5.80800         4.98600        -1.95600
| 93>    H        4.78800        -2.28100        -0.18500
| 94>    H        4.86000         2.11400         1.91200
| 95>    H        6.90100         3.53100         1.77200
| 96>    H        7.38300         6.10900         0.35600
| 97>    H        8.41400         4.65200         0.43500
| 98>    H        7.92100         5.31000        -1.15000
| 99>    H        5.28300         0.33600        -0.17900
|100>    H        3.72000         3.63200        -1.96700
|101> *
|102>
|103>                          ****END OF INPUT****

CARTESIAN COORDINATES (ANGSTROEM)
---------------------------------
  C     -4.709000    5.334000    0.853000
  C      1.474000    4.041000    0.057000
  C     -2.802000    4.093000    0.049000
  C     -2.479000    5.204000   -0.746000
  C     -3.272000    6.333000   -0.714000
  C     -5.178000    7.626000    0.114000
  C      0.132000    4.307000    0.061000
  C     -0.569000    3.056000    0.047000
  C      1.649000    2.618000    0.023000
  C     -3.944000    4.184000    0.859000
  N     -4.371000    6.387000    0.074000
  N      0.388000    2.067000    0.025000
  N     -2.010000    0.395000   -0.075000
  N     -0.388000   -2.074000   -0.027000
  N      2.010000   -0.401000    0.065000
  C     -1.960000    2.861000    0.024000
  C     -2.623000    1.615000   -0.018000
  C     -5.573000   -4.329000    1.066000
  C     -4.073000    1.471000    0.056000
  C     -4.106000   -2.756000   -0.026000
  C     -4.995000   -2.757000   -1.111000
  C     -6.132000   -3.542000   -1.076000
  C     -7.651000   -5.113000    0.040000
  C     -4.324000    0.141000    0.037000
  C     -3.025000   -0.520000   -0.048000
  C     -4.422000   -3.566000    1.075000
  N     -6.407000   -4.313000    0.001000
  C     -2.867000   -1.922000   -0.040000
  C     -1.650000   -2.624000   -0.027000
  C      3.568000   -6.142000   -1.040000
  C     -1.476000   -4.049000   -0.034000
  C      2.803000   -4.099000   -0.008000
  C      3.657000   -4.384000    1.069000
  C      4.427000   -5.530000    1.059000
  C      5.245000   -7.588000    0.014000
  C     -0.134000   -4.315000   -0.022000
  C      0.568000   -3.064000   -0.027000
  C      2.775000   -5.012000   -1.074000
  N      4.376000   -6.391000    0.017000
  C      1.959000   -2.869000   -0.009000
  C      2.621000   -1.622000    0.009000
  C      5.543000    4.339000   -1.130000
  C      4.070000   -1.479000   -0.094000
  C      4.104000    2.751000   -0.021000
  C      5.027000    2.729000    1.036000
  C      6.166000    3.509000    0.978000
  C      7.619000    5.153000   -0.115000
  C      4.321000   -0.148000   -0.092000
  C      3.025000    0.514000    0.015000
  C      4.387000    3.582000   -1.115000
  C      2.866000    1.916000    0.013000
  N      6.413000    4.296000   -0.095000
  H     -5.605000    5.444000    1.452000
  H      2.274000    4.766000    0.081000
  H     -1.604000    5.198000   -1.385000
  H     -3.058000    7.216000   -1.302000
  H     -4.746000    8.309000    0.849000
  H     -5.167000    8.084000   -0.875000
  H     -6.199000    7.370000    0.396000
  H     -0.332000    5.282000    0.069000
  H     -4.254000    3.355000    1.485000
  H      0.182000    1.072000    0.005000
  H     -0.183000   -1.080000   -0.021000
  H     -5.864000   -4.962000    1.895000
  H     -4.794000    2.272000    0.139000
  H     -4.800000   -2.160000   -1.994000
  H     -6.841000   -3.582000   -1.893000
  H     -8.428000   -4.536000    0.546000
  H     -7.956000   -5.337000   -0.981000
  H     -7.456000   -6.037000    0.584000
  H     -5.287000   -0.344000    0.100000
  H     -3.780000   -3.601000    1.947000
  H      3.587000   -6.868000   -1.843000
  H     -2.276000   -4.774000   -0.050000
  H      3.714000   -3.724000    1.926000
  H      5.092000   -5.795000    1.871000
  H      6.205000   -7.329000   -0.439000
  H      5.393000   -7.917000    1.042000
  H      4.759000   -8.373000   -0.564000
  H      0.329000   -5.290000   -0.008000
  H      2.146000   -4.842000   -1.940000
  H      5.808000    4.986000   -1.956000
  H      4.788000   -2.281000   -0.185000
  H      4.860000    2.114000    1.912000
  H      6.901000    3.531000    1.772000
  H      7.383000    6.109000    0.356000
  H      8.414000    4.652000    0.435000
  H      7.921000    5.310000   -1.150000
  H      5.283000    0.336000   -0.179000
  H      3.720000    3.632000   -1.967000

 Total Charge           Charge          ....    0
 Multiplicity           Mult            ....    1
 Number of Electrons    NEL             ....  358
 Basis Dimension        Dim             ....  918

ORBITAL ENERGIES
----------------

  NO   OCC          E(Eh)            E(eV)
   0   2.0000     -15.661645      -426.1750
   1   2.0000     -15.636636      -425.4945
   2   2.0000     -15.629925      -425.3119
   3   2.0000     -15.601036      -424.5258
   4   2.0000     -15.522996      -422.4022
   5   2.0000     -15.516384      -422.2223
   6   2.0000     -15.449682      -420.4072
   7   2.0000     -15.442719      -420.2178
   8   2.0000     -11.316709      -307.9433
   9   2.0000     -11.314625      -307.8866
  10   2.0000     -11.312712      -307.8345
  11   2.0000     -11.300960      -307.5147
  12   2.0000     -11.297019      -307.4075
  13   2.0000     -11.294222      -307.3314
  14   2.0000     -11.289861      -307.2127
  15   2.0000     -11.288419      -307.1735
  16   2.0000     -11.285744      -307.1007
  17   2.0000     -11.279709      -306.9365
  18   2.0000     -11.264971      -306.5354
  19   2.0000     -11.264710      -306.5284
  20   2.0000     -11.263961      -306.5080
  21   2.0000     -11.250568      -306.1435
  22   2.0000     -11.249646      -306.1184
  23   2.0000     -11.240125      -305.8593
  24   2.0000     -11.234610      -305.7093
  25   2.0000     -11.233024      -305.6661
  26   2.0000     -11.232235      -305.6446
  27   2.0000     -11.228156      -305.5337
  28   2.0000     -11.228042      -305.5305
  29   2.0000     -11.210387      -305.0501
  30   2.0000     -11.206705      -304.9500
  31   2.0000     -11.205770      -304.9245
  32   2.0000     -11.205653      -304.9213
  33   2.0000     -11.203762      -304.8699
  34   2.0000     -11.191445      -304.5347
  35   2.0000     -11.190872      -304.5191
  36   2.0000     -11.183181      -304.3098
  37   2.0000     -11.180977      -304.2499
  38   2.0000     -11.180267      -304.2305
  39   2.0000     -11.172802      -304.0274
  40   2.0000     -11.169020      -303.9245
  41   2.0000     -11.168051      -303.8981
  42   2.0000     -11.164708      -303.8071
  43   2.0000     -11.164654      -303.8057
  44   2.0000     -11.163077      -303.7628
  45   2.0000     -11.161388      -303.7168
  46   2.0000     -11.153721      -303.5082
  47   2.0000     -11.150034      -303.4078
  48   2.0000     -11.149979      -303.4063
  49   2.0000     -11.145062      -303.2726
  50   2.0000     -11.136624      -303.0429
  51   2.0000     -11.130283      -302.8704
  52   2.0000      -1.344932       -36.5974
  53   2.0000      -1.323491       -36.0140
  54   2.0000      -1.317865       -35.8609
  55   2.0000      -1.293952       -35.2102
  56   2.0000      -1.222791       -33.2738
  57   2.0000      -1.211459       -32.9655
  58   2.0000      -1.167652       -31.7734
  59   2.0000      -1.154600       -31.4183
  60   2.0000      -1.130588       -30.7649
  61   2.0000      -1.111970       -30.2582
  62   2.0000      -1.107362       -30.1328
  63   2.0000      -1.088235       -29.6124
  64   2.0000      -1.067714       -29.0540
  65   2.0000      -1.047517       -28.5044
  66   2.0000      -1.042577       -28.3699
  67   2.0000      -1.032902       -28.1067
  68   2.0000      -1.021337       -27.7920
  69   2.0000      -1.013222       -27.5712
  70   2.0000      -1.009774       -27.4774
  71   2.0000      -0.993156       -27.0251
  72   2.0000      -0.986918       -26.8554
  73   2.0000      -0.976016       -26.5587
  74   2.0000      -0.973240       -26.4832
  75   2.0000      -0.959550       -26.1107
  76   2.0000      -0.950838       -25.8736
  77   2.0000      -0.948174       -25.8011
  78   2.0000      -0.936770       -25.4908
  79   2.0000      -0.921776       -25.0828
  80   2.0000      -0.899023       -24.4637
  81   2.0000      -0.889920       -24.2160
  82   2.0000      -0.874859       -23.8061
  83   2.0000      -0.870377       -23.6842
  84   2.0000      -0.864876       -23.5345
  85   2.0000      -0.855579       -23.2815
  86   2.0000      -0.845738       -23.0137
  87   2.0000      -0.838673       -22.8214
  88   2.0000      -0.822588       -22.3838
  89   2.0000      -0.798687       -21.7334
  90   2.0000      -0.795180       -21.6380
  91   2.0000      -0.744061       -20.2469
  92   2.0000      -0.737203       -20.0603
  93   2.0000      -0.731305       -19.8998
  94   2.0000      -0.722538       -19.6613
  95   2.0000      -0.720666       -19.6103
  96   2.0000      -0.713706       -19.4209
  97   2.0000      -0.706556       -19.2264
  98   2.0000      -0.702347       -19.1118
  99   2.0000      -0.695687       -18.9306
 100   2.0000      -0.693290       -18.8654
 101   2.0000      -0.681764       -18.5517
 102   2.0000      -0.678775       -18.4704
 103   2.0000      -0.675532       -18.3822
 104   2.0000      -0.672514       -18.3000
 105   2.0000      -0.671513       -18.2728
 106   2.0000      -0.664165       -18.0728
 107   2.0000      -0.662863       -18.0374
 108   2.0000      -0.655537       -17.8381
 109   2.0000      -0.654216       -17.8021
 110   2.0000      -0.650488       -17.7007
 111   2.0000      -0.647654       -17.6236
 112   2.0000      -0.643265       -17.5041
 113   2.0000      -0.637396       -17.3444
 114   2.0000      -0.632910       -17.2224
 115   2.0000      -0.631620       -17.1873
 116   2.0000      -0.625104       -17.0099
 117   2.0000      -0.615356       -16.7447
 118   2.0000      -0.614275       -16.7153
 119   2.0000      -0.611297       -16.6342
 120   2.0000      -0.609800       -16.5935
 121   2.0000      -0.601870       -16.3777
 122   2.0000      -0.599566       -16.3150
 123   2.0000      -0.589823       -16.0499
 124   2.0000      -0.586967       -15.9722
 125   2.0000      -0.582970       -15.8634
 126   2.0000      -0.579323       -15.7642
 127   2.0000      -0.576512       -15.6877
 128   2.0000      -0.563646       -15.3376
 129   2.0000      -0.558522       -15.1982
 130   2.0000      -0.554544       -15.0899
 131   2.0000      -0.549238       -14.9455
 132   2.0000      -0.541479       -14.7344
 133   2.0000      -0.537873       -14.6363
 134   2.0000      -0.535013       -14.5585
 135   2.0000      -0.533694       -14.5226
 136   2.0000      -0.526184       -14.3182
 137   2.0000      -0.524372       -14.2689
 138   2.0000      -0.516662       -14.0591
 139   2.0000      -0.516313       -14.0496
 140   2.0000      -0.510984       -13.9046
 141   2.0000      -0.509548       -13.8655
 142   2.0000      -0.508029       -13.8242
 143   2.0000      -0.502233       -13.6664
 144   2.0000      -0.501236       -13.6393
 145   2.0000      -0.498100       -13.5540
 146   2.0000      -0.494314       -13.4510
 147   2.0000      -0.487119       -13.2552
 148   2.0000      -0.485483       -13.2107
 149   2.0000      -0.468972       -12.7614
 150   2.0000      -0.463554       -12.6140
 151   2.0000      -0.455695       -12.4001
 152   2.0000      -0.448453       -12.2030
 153   2.0000      -0.446543       -12.1511
 154   2.0000      -0.445309       -12.1175
 155   2.0000      -0.440764       -11.9938
 156   2.0000      -0.432545       -11.7701
 157   2.0000      -0.427118       -11.6225
 158   2.0000      -0.399120       -10.8606
 159   2.0000      -0.387166       -10.5353
 160   2.0000      -0.378317       -10.2945
 161   2.0000      -0.375312       -10.2128
 162   2.0000      -0.370551       -10.0832
 163   2.0000      -0.358304        -9.7500
 164   2.0000      -0.354308        -9.6412
 165   2.0000      -0.337774        -9.1913
 166   2.0000      -0.336766        -9.1639
 167   2.0000      -0.333615        -9.0781
 168   2.0000      -0.327763        -8.9189
 169   2.0000      -0.301190        -8.1958
 170   2.0000      -0.299891        -8.1604
 171   2.0000      -0.287463        -7.8223
 172   2.0000      -0.285020        -7.7558
 173   2.0000      -0.259782        -7.0690
 174   2.0000      -0.245774        -6.6878
 175   2.0000      -0.189362        -5.1528
 176   2.0000      -0.179533        -4.8853
 177   2.0000      -0.071596        -1.9482
 178   2.0000      -0.056741        -1.5440
 179   0.0000       0.029303         0.7974
 180   0.0000       0.068426         1.8620
 181   0.0000       0.092199         2.5089
 182   0.0000       0.104121         2.8333
 183   0.0000       0.118357         3.2207

MULLIKEN ATOMIC CHARGES
-----------------------
   0 C :    0.207930
   1 N :   -0.451685
   2 C :   -0.062717
   3 N :   -0.335955
   4 C :   -0.050813
   5 N :   -0.562844
   6 C :   -0.100899
   7 N :   -0.339301
   8 C :    0.204252
   9 N :   -0.562731
  10 C :    0.117821
  11 N :   -0.437833
  12 C :   -0.082556
  13 N :   -0.433734
  14 C :    0.241801
  15 N :   -0.441072
  16 C :    0.228612
  17 C :   -0.103203
  18 C :   -0.209493
  19 C :    0.235818
  20 C :    0.211775
  21 C :   -0.094826
  22 C :   -0.089772
  23 C :   -0.042814
  24 C :    0.198290
  25 C :    0.114229
  26 C :   -0.073960
  27 C :    0.214967
  28 C :   -0.058292
  29 C :   -0.181066
  30 C :    0.241860
  31 C :    0.222681
  32 C :   -0.063119
  33 C :   -0.068960
  34 C :   -0.050408
  35 C :    0.218251
  36 C :    0.110624
  37 C :   -0.065413
  38 C :    0.233793
  39 C :   -0.059349
  40 C :   -0.184382
  41 C :    0.223881
  42 C :    0.199297
  43 C :   -0.072740
  44 C :   -0.089706
  45 C :   -0.057930
  46 C :    0.208121
  47 C :    0.115536
  48 C :   -0.069875
  49 C :    0.233990
  50 C :   -0.049033
  51 C :   -0.190453
  52 H :    0.044813
  53 H :   -0.015447
  54 H :    0.048302
  55 H :    0.042498
  56 H :    0.051874
  57 H :    0.050395
  58 H :    0.050219
  59 H :   -0.001796
  60 H :    0.051445
  61 H :    0.171707
  62 H :    0.174484
  63 H :    0.056007
  64 H :   -0.009643
  65 H :    0.047634
  66 H :    0.056783
  67 H :    0.062677
  68 H :    0.057815
  69 H :    0.057456
  70 H :   -0.027390
  71 H :    0.046053
  72 H :    0.065382
  73 H :   -0.010323
  74 H :    0.054918
  75 H :    0.064609
  76 H :    0.069709
  77 H :    0.064027
  78 H :    0.063269
  79 H :   -0.015377
  80 H :    0.055584
  81 H :    0.053631
  82 H :   -0.024276
  83 H :    0.042281
  84 H :    0.053672
  85 H :    0.060054
  86 H :    0.055732
  87 H :    0.056779
  88 H :   -0.017135
  89 H :    0.044985
Sum of atomic charges:    0.0000000

LOEWDIN ATOMIC CHARGES
----------------------
   0 C :   -0.015883
   1 N :    0.121093
   2 C :   -0.100941
   3 N :    0.182336
   4 C :    0.005826
   5 N :   -0.134076
   6 C :   -0.034833
   7 N :    0.176583
   8 C :   -0.019228
   9 N :   -0.140057
  10 C :    0.025122
  11 N :    0.143378
  12 C :   -0.107831
  13 N :    0.156261
  14 C :   -0.035268
  15 N :    0.138306
  16 C :   -0.055035
  17 C :   -0.036366
  18 C :   -0.103311
  19 C :   -0.083841
  20 C :    0.003477
  21 C :   -0.114161
  22 C :    0.039031
  23 C :   -0.016299
  24 C :   -0.008086
  25 C :    0.030137
  26 C :   -0.105127
  27 C :   -0.109065
  28 C :   -0.025106
  29 C :   -0.102352
  30 C :   -0.036196
  31 C :    0.015360
  32 C :   -0.096266
  33 C :    0.065009
  34 C :   -0.016771
  35 C :    0.011699
  36 C :    0.032995
  37 C :   -0.097117
  38 C :   -0.047591
  39 C :   -0.020726
  40 C :   -0.108383
  41 C :   -0.092481
  42 C :   -0.009033
  43 C :   -0.101259
  44 C :    0.032790
  45 C :   -0.025920
  46 C :   -0.001204
  47 C :    0.029343
  48 C :   -0.098474
  49 C :   -0.077163
  50 C :   -0.020856
  51 C :   -0.108651
  52 H :    0.025770
  53 H :    0.003634
  54 H :    0.040801
  55 H :    0.024862
  56 H :    0.022893
  57 H :    0.027604
  58 H :    0.028347
  59 H :    0.007969
  60 H :    0.042644
  61 H :    0.060203
  62 H :    0.061351
  63 H :    0.030957
  64 H :    0.003112
  65 H :    0.045923
  66 H :    0.029899
  67 H :    0.028388
  68 H :    0.031889
  69 H :    0.030772
  70 H :   -0.003395
  71 H :    0.044176
  72 H :    0.034938
  73 H :    0.005997
  74 H :    0.048390
  75 H :    0.034405
  76 H :    0.032095
  77 H :    0.034315
  78 H :    0.033983
  79 H :    0.003563
  80 H :    0.048218
  81 H :    0.028836
  82 H :   -0.002380
  83 H :    0.042858
  84 H :    0.029538
  85 H :    0.026992
  86 H :    0.030239
  87 H :    0.031200
  88 H :    0.001121
  89 H :    0.044102

  Mayer bond orders larger than 0.100000
B(  0-C ,  1-N ) :   1.0967 B(  0-C , 17-C ) :   1.6848 B(  0-C , 52-H ) :   0.9683
B(  1-N ,  8-C ) :   1.0932 B(  1-N , 10-C ) :   0.9736 B(  2-C , 12-C ) :   1.5188
B(  2-C , 16-C ) :   1.3451 B(  2-C , 53-H ) :   0.9764 B(  3-N , 14-C ) :   1.2141
B(  3-N , 16-C ) :   1.1930 B(  3-N , 61-H ) :   0.8989 B(  4-C ,  6-C ) :   1.2254
B(  4-C , 17-C ) :   1.2258 B(  4-C , 18-C ) :   1.3855 B(  5-N , 19-C ) :   1.4431
B(  5-N , 27-C ) :   1.3864 B(  6-C ,  8-C ) :   1.6845 B(  6-C , 54-H ) :   0.9662
B(  7-N , 30-C ) :   1.1951 B(  7-N , 38-C ) :   1.1950 B(  7-N , 62-H ) :   0.8973
B(  8-C , 55-H ) :   0.9690 B(  9-N , 41-C ) :   1.3987 B(  9-N , 49-C ) :   1.4224
B( 10-C , 56-H ) :   0.9766 B( 10-C , 57-H ) :   0.9820 B( 10-C , 58-H ) :   0.9841
B( 11-N , 20-C ) :   1.1294 B( 11-N , 24-C ) :   1.1132 B( 11-N , 25-C ) :   0.9592
B( 12-C , 14-C ) :   1.3463 B( 12-C , 59-H ) :   0.9744 B( 13-N , 31-C ) :   1.1462
B( 13-N , 35-C ) :   1.1417 B( 13-N , 36-C ) :   0.9488 B( 14-C , 18-C ) :   1.1510
B( 15-N , 42-C ) :   1.1101 B( 15-N , 46-C ) :   1.1197 B( 15-N , 47-C ) :   0.9619
B( 16-C , 51-C ) :   1.1803 B( 17-C , 60-H ) :   0.9656 B( 18-C , 19-C ) :   1.1598
B( 19-C , 21-C ) :   1.2319 B( 20-C , 28-C ) :   1.6258 B( 20-C , 63-H ) :   0.9702
B( 21-C , 26-C ) :   1.6251 B( 21-C , 64-H ) :   0.9700 B( 22-C , 23-C ) :   1.2885
B( 22-C , 28-C ) :   1.2684 B( 22-C , 29-C ) :   1.2228 B( 23-C , 24-C ) :   1.6183
B( 23-C , 65-H ) :   0.9705 B( 24-C , 66-H ) :   0.9693 B( 25-C , 67-H ) :   0.9761
B( 25-C , 68-H ) :   0.9828 B( 25-C , 69-H ) :   0.9822 B( 26-C , 27-C ) :   1.2282
B( 26-C , 70-H ) :   0.9719 B( 27-C , 29-C ) :   1.2224 B( 28-C , 71-H ) :   0.9717
B( 29-C , 30-C ) :   1.2296 B( 30-C , 32-C ) :   1.2939 B( 31-C , 39-C ) :   1.6054
B( 31-C , 72-H ) :   0.9687 B( 32-C , 37-C ) :   1.5648 B( 32-C , 73-H ) :   0.9783
B( 33-C , 34-C ) :   1.2946 B( 33-C , 39-C ) :   1.2890 B( 33-C , 40-C ) :   1.2050
B( 34-C , 35-C ) :   1.6023 B( 34-C , 74-H ) :   0.9700 B( 35-C , 75-H ) :   0.9688
B( 36-C , 76-H ) :   0.9766 B( 36-C , 77-H ) :   0.9818 B( 36-C , 78-H ) :   0.9826
B( 37-C , 38-C ) :   1.2972 B( 37-C , 79-H ) :   0.9770 B( 38-C , 40-C ) :   1.2223
B( 39-C , 80-H ) :   0.9709 B( 40-C , 41-C ) :   1.2386 B( 41-C , 43-C ) :   1.1960
B( 42-C , 50-C ) :   1.6339 B( 42-C , 81-H ) :   0.9697 B( 43-C , 48-C ) :   1.6561
B( 43-C , 82-H ) :   0.9728 B( 44-C , 45-C ) :   1.2658 B( 44-C , 50-C ) :   1.2697
B( 44-C , 51-C ) :   1.2596 B( 45-C , 46-C ) :   1.6347 B( 45-C , 83-H ) :   0.9716
B( 46-C , 84-H ) :   0.9701 B( 47-C , 85-H ) :   0.9761 B( 47-C , 86-H ) :   0.9829
B( 47-C , 87-H ) :   0.9825 B( 48-C , 49-C ) :   1.1984 B( 48-C , 88-H ) :   0.9745
B( 49-C , 51-C ) :   1.2332 B( 50-C , 89-H ) :   0.9711

MP2 TOTAL ENERGY:    -2130.907703643 Eh
FINAL SINGLE POINT ENERGY     -2130.907703642565

DIPOLE MOMENT
-------------
                                X             Y             Z
Electronic contribution:      1.46148      -3.01802      -0.14147
Nuclear contribution   :      0.07962       0.24067       0.14688
                        -----------------------------------------
Total Dipole Moment    :      1.54110      -2.77735       0.00541
                        -----------------------------------------
Magnitude (a.u.)       :      3.17627
Magnitude (Debye)      :      8.07344

Rotational constants in cm-1:     0.001500     0.001477     0.000761
Rotational constants in MHz :    44.954150    44.270991    22.818919

                             ****ORCA TERMINATED NORMALLY****
TOTAL RUN TIME: 0 days 1 hours 12 minutes 57 seconds 561 msec
