                         Program Version 5.0.4 -  RELEASE  -
|  1> ! PAL2
|  2> ! mp2 cc-pvdz TightSCF  NoKeepInts
|  3>
|  4> %scf
|  5>   MaxCore 2000
|  6> end
|  7> %mp2
|  8>   MaxCore 2000
|  9> end
| 10> * xyz 0 1
| 11>    C       -3.06500         6.48000        -0.19600
| 12>    C        1.47400         4.04100         0.05700
| 13>    C       -2.80200         4.09300         0.04900
| 14>    C       -4.16700         4.02700         0.36800
| 15>    C       -4.93000         5.17700         0.39100
| 16>    C       -5.23000         7.59000         0.11200
| 17>    C        0.13200         4.30700         0.06100
| 18>    C       -0.56900         3.05600         0.04700
| 19>    C        1.64900         2.61800         0.02300
| 20>    C       -2.26200         5.35600        -0.23800
| 21>    N       -4.37700         6.38100         0.11500
| 22>    N        0.38800         2.06700         0.02500
| 23>    N       -2.01000         0.39500        -0.07500
| 24>    N       -0.38800        -2.07400        -0.02700
| 25>    N        2.01000        -0.40100         0.06500
| 26>    C       -1.96000         2.86100         0.02400
| 27>    C       -2.62300         1.61500        -0.01800
| 28>    C       -5.57300        -4.32900         1.06600
| 29>    C       -4.07300         1.47100         0.05600
| 30>    C       -4.10600        -2.75600        -0.02600
| 31>    C       -4.99500        -2.75700        -1.11100
| 32>    C       -6.13200        -3.54200        -1.07600
| 33>    C       -7.65100        -5.11300         0.04000
| 34>    C       -4.32400         0.14100         0.03700
| 35>    C       -3.02500        -0.52000        -0.04800
| 36>    C       -4.42200        -3.56600         1.07500
| 37>    N       -6.40700        -4.31300         0.00100
| 38>    C       -2.86700        -1.92200        -0.04000
| 39>    C       -1.65000        -2.62400        -0.02700
| 40>    C        3.56800        -6.14200        -1.04000
| 41>    C       -1.47600        -4.04900        -0.03400
| 42>    C        2.80300        -4.09900        -0.00800
| 43>    C        3.65700        -4.38400         1.06900
| 44>    C        4.42700        -5.53000         1.05900
| 45>    C        5.24500        -7.58800         0.01400
| 46>    C       -0.13400        -4.31500        -0.02200
| 47>    C        0.56800        -3.06400        -0.02700
| 48>    C        2.77500        -5.01200        -1.07400
| 49>    N        4.37600        -6.39100         0.01700
| 50>    C        1.95900        -2.86900        -0.00900
| 51>    C        2.62100        -1.62200         0.00900
| 52>    C        5.54300         4.33900        -1.13000
| 53>    C        4.07000        -1.47900        -0.09400
| 54>    C        4.10400         2.75100        -0.02100
| 55>    C        5.02700         2.72900         1.03600
| 56>    C        6.16600         3.50900         0.97800
| 57>    C        7.61900         5.15300        -0.11500
| 58>    C        4.32100        -0.14800        -0.09200
| 59>    C        3.02500         0.51400         0.01500
| 60>    C        4.38700         3.58200        -1.11500
| 61>    C        2.86600         1.91600         0.01300
| 62>    N        6.41300         4.29600        -0.09500
| 63>    H       -2.68800         7.47500        -0.39800
| 64>    H        2.27400         4.76600         0.08100
| 65>    H       -4.64400         3.08000         0.58900
| 66>    H       -5.98800         5.17500         0.62200
| 67>    H       -5.69400         7.69500        -0.87200
| 68>    H       -5.99700         7.48100         0.87900
| 69>    H       -4.60800         8.45900         0.32600
| 70>    H       -0.33200         5.28200         0.06900
| 71>    H       -1.21100         5.47500        -0.47700
| 72>    H        0.18200         1.07200         0.00500
| 73>    H       -0.18300        -1.08000        -0.02100
| 74>    H       -5.86400        -4.96200         1.89500
| 75>    H       -4.79400         2.27200         0.13900
| 76>    H       -4.80000        -2.16000        -1.99400
| 77>    H       -6.84100        -3.58200        -1.89300
| 78>    H       -8.42800        -4.53600         0.54600
| 79>    H       -7.95600        -5.33700        -0.98100
| 80>    H       -7.45600        -6.03700         0.58400
| 81>    H       -5.28700        -0.34400         0.10000
| 82>    H       -3.78000        -3.60100         1.94700
| 83>    H        3.58700        -6.86800        -1.84300
| 84>    H       -2.27600        -4.77400        -0.05000
| 85>    H        3.71400        -3.72400         1.92600
| 86>    H        5.09200        -5.79500         1.87100
| 87>    H        6.20500        -7.32900        -0.43900
| 88>    H        5.39300        -7.91700         1.04200
| 89>    H        4.75900        -8.37300        -0.56400
| 90>    H        0.32900        -5.29000        -0.00800
| 91>    H        2.14600        -4.84200        -1.94000
| 92>    H        5.80800         4.98600        -1.95600
| 93>    H        4.78800        -2.28100        -0.18500
| 94>    H        4.86000         2.11400         1.91200
| 95>    H        6.90100         3.53100         1.77200
| 96>    H        7.38300         6.10900         0.35600
| 97>    H        8.41400         4.65200         0.43500
| 98>    H        7.92100         5.31000        -1.15000
| 99>    H        5.28300         0.33600        -0.17900
|100>    H        3.72000         3.63200        -1.96700
|101> *
|102>
|103>                          ****END OF INPUT****

CARTESIAN COORDINATES (ANGSTROEM)
---------------------------------
  C     -3.065000    6.480000   -0.196000
  C      1.474000    4.041000    0.057000
  C     -2.802000    4.093000    0.049000
  C     -4.167000    4.027000    0.368000
  C     -4.930000    5.177000    0.391000
  C     -5.230000    7.590000    0.112000
  C      0.132000    4.307000    0.061000
  C     -0.569000    3.056000    0.047000
  C      1.649000    2.618000    0.023000
  C     -2.262000    5.356000   -0.238000
  N     -4.377000    6.381000    0.115000
  N      0.388000    2.067000    0.025000
  N     -2.010000    0.395000   -0.075000
  N     -0.388000   -2.074000   -0.027000
  N      2.010000   -0.401000    0.065000
  C     -1.960000    2.861000    0.024000
  C     -2.623000    1.615000   -0.018000
  C     -5.573000   -4.329000    1.066000
  C     -4.073000    1.471000    0.056000
  C     -4.106000   -2.756000   -0.026000
  C     -4.995000   -2.757000   -1.111000
  C     -6.132000   -3.542000   -1.076000
  C     -7.651000   -5.113000    0.040000
  C     -4.324000    0.141000    0.037000
  C     -3.025000   -0.520000   -0.048000
  C     -4.422000   -3.566000    1.075000
  N     -6.407000   -4.313000    0.001000
  C     -2.867000   -1.922000   -0.040000
  C     -1.650000   -2.624000   -0.027000
  C      3.568000   -6.142000   -1.040000
  C     -1.476000   -4.049000   -0.034000
  C      2.803000   -4.099000   -0.008000
  C      3.657000   -4.384000    1.069000
  C      4.427000   -5.530000    1.059000
  C      5.245000   -7.588000    0.014000
  C     -0.134000   -4.315000   -0.022000
  C      0.568000   -3.064000   -0.027000
  C      2.775000   -5.012000   -1.074000
  N      4.376000   -6.391000    0.017000
  C      1.959000   -2.869000   -0.009000
  C      2.621000   -1.622000    0.009000
  C      5.543000    4.339000   -1.130000
  C      4.070000   -1.479000   -0.094000
  C      4.104000    2.751000   -0.021000
  C      5.027000    2.729000    1.036000
  C      6.166000    3.509000    0.978000
  C      7.619000    5.153000   -0.115000
  C      4.321000   -0.148000   -0.092000
  C      3.025000    0.514000    0.015000
  C      4.387000    3.582000   -1.115000
  C      2.866000    1.916000    0.013000
  N      6.413000    4.296000   -0.095000
  H     -2.688000    7.475000   -0.398000
  H      2.274000    4.766000    0.081000
  H     -4.644000    3.080000    0.589000
  H     -5.988000    5.175000    0.622000
  H     -5.694000    7.695000   -0.872000
  H     -5.997000    7.481000    0.879000
  H     -4.608000    8.459000    0.326000
  H     -0.332000    5.282000    0.069000
  H     -1.211000    5.475000   -0.477000
  H      0.182000    1.072000    0.005000
  H     -0.183000   -1.080000   -0.021000
  H     -5.864000   -4.962000    1.895000
  H     -4.794000    2.272000    0.139000
  H     -4.800000   -2.160000   -1.994000
  H     -6.841000   -3.582000   -1.893000
  H     -8.428000   -4.536000    0.546000
  H     -7.956000   -5.337000   -0.981000
  H     -7.456000   -6.037000    0.584000
  H     -5.287000   -0.344000    0.100000
  H     -3.780000   -3.601000    1.947000
  H      3.587000   -6.868000   -1.843000
  H     -2.276000   -4.774000   -0.050000
  H      3.714000   -3.724000    1.926000
  H      5.092000   -5.795000    1.871000
  H      6.205000   -7.329000   -0.439000
  H      5.393000   -7.917000    1.042000
  H      4.759000   -8.373000   -0.564000
  H      0.329000   -5.290000   -0.008000
  H      2.146000   -4.842000   -1.940000
  H      5.808000    4.986000   -1.956000
  H      4.788000   -2.281000   -0.185000
  H      4.860000    2.114000    1.912000
  H      6.901000    3.531000    1.772000
  H      7.383000    6.109000    0.356000
  H      8.414000    4.652000    0.435000
  H      7.921000    5.310000   -1.150000
  H      5.283000    0.336000   -0.179000
  H      3.720000    3.632000   -1.967000

 Total Charge           Charge          ....    0
 Multiplicity           Mult            ....    1
 Number of Electrons    NEL             ....  358
 Basis Dimension        Dim             ....  918

ORBITAL ENERGIES
----------------

  NO   OCC          E(Eh)            E(eV)
   0   2.0000     -15.679392      -426.6579
   1   2.0000     -15.632895      -425.3927
   2   2.0000     -15.632807      -425.3903
   3   2.0000     -15.588532      -424.1855
   4   2.0000     -15.524855      -422.4528
   5   2.0000     -15.515675      -422.2030
   6   2.0000     -15.454023      -420.5254
   7   2.0000     -15.439551      -420.1315
   8   2.0000     -11.328972      -308.2770
   9   2.0000     -11.328157      -308.2548
  10   2.0000     -11.327687      -308.2420
  11   2.0000     -11.298969      -307.4606
  12   2.0000     -11.298653      -307.4520
  13   2.0000     -11.292091      -307.2734
  14   2.0000     -11.292018      -307.2714
  15   2.0000     -11.287386      -307.1454
  16   2.0000     -11.285629      -307.0976
  17   2.0000     -11.281664      -306.9897
  18   2.0000     -11.270352      -306.6819
  19   2.0000     -11.263095      -306.4844
  20   2.0000     -11.262095      -306.4572
  21   2.0000     -11.252601      -306.1988
  22   2.0000     -11.249210      -306.1066
  23   2.0000     -11.237534      -305.7888
  24   2.0000     -11.236695      -305.7660
  25   2.0000     -11.230466      -305.5965
  26   2.0000     -11.230330      -305.5928
  27   2.0000     -11.230317      -305.5925
  28   2.0000     -11.229551      -305.5716
  29   2.0000     -11.210579      -305.0554
  30   2.0000     -11.209301      -305.0206
  31   2.0000     -11.194707      -304.6235
  32   2.0000     -11.191361      -304.5324
  33   2.0000     -11.191309      -304.5310
  34   2.0000     -11.188727      -304.4607
  35   2.0000     -11.188441      -304.4530
  36   2.0000     -11.187331      -304.4228
  37   2.0000     -11.178817      -304.1911
  38   2.0000     -11.174319      -304.0687
  39   2.0000     -11.173442      -304.0448
  40   2.0000     -11.171457      -303.9908
  41   2.0000     -11.171340      -303.9876
  42   2.0000     -11.167799      -303.8913
  43   2.0000     -11.162130      -303.7370
  44   2.0000     -11.160252      -303.6859
  45   2.0000     -11.157068      -303.5992
  46   2.0000     -11.156390      -303.5808
  47   2.0000     -11.152790      -303.4828
  48   2.0000     -11.147283      -303.3330
  49   2.0000     -11.135568      -303.0142
  50   2.0000     -11.129199      -302.8409
  51   2.0000     -11.116970      -302.5081
  52   2.0000      -1.360043       -37.0087
  53   2.0000      -1.320452       -35.9313
  54   2.0000      -1.320293       -35.9270
  55   2.0000      -1.281271       -34.8652
  56   2.0000      -1.225863       -33.3574
  57   2.0000      -1.210390       -32.9364
  58   2.0000      -1.173686       -31.9376
  59   2.0000      -1.150497       -31.3066
  60   2.0000      -1.143395       -31.1134
  61   2.0000      -1.110327       -30.2135
  62   2.0000      -1.108808       -30.1722
  63   2.0000      -1.081762       -29.4362
  64   2.0000      -1.077660       -29.3246
  65   2.0000      -1.045063       -28.4376
  66   2.0000      -1.044520       -28.4228
  67   2.0000      -1.040943       -28.3255
  68   2.0000      -1.014908       -27.6170
  69   2.0000      -1.013389       -27.5757
  70   2.0000      -1.009088       -27.4587
  71   2.0000      -0.993241       -27.0275
  72   2.0000      -0.985784       -26.8245
  73   2.0000      -0.981511       -26.7083
  74   2.0000      -0.972959       -26.4755
  75   2.0000      -0.962277       -26.1849
  76   2.0000      -0.954767       -25.9805
  77   2.0000      -0.945824       -25.7372
  78   2.0000      -0.937517       -25.5111
  79   2.0000      -0.917223       -24.9589
  80   2.0000      -0.910230       -24.7686
  81   2.0000      -0.896668       -24.3996
  82   2.0000      -0.876519       -23.8513
  83   2.0000      -0.871605       -23.7176
  84   2.0000      -0.870920       -23.6989
  85   2.0000      -0.859714       -23.3940
  86   2.0000      -0.843575       -22.9548
  87   2.0000      -0.835702       -22.7406
  88   2.0000      -0.827423       -22.5153
  89   2.0000      -0.796730       -21.6801
  90   2.0000      -0.789330       -21.4788
  91   2.0000      -0.762343       -20.7444
  92   2.0000      -0.752558       -20.4781
  93   2.0000      -0.733436       -19.9578
  94   2.0000      -0.726819       -19.7778
  95   2.0000      -0.723578       -19.6895
  96   2.0000      -0.718932       -19.5631
  97   2.0000      -0.716563       -19.4987
  98   2.0000      -0.712750       -19.3949
  99   2.0000      -0.698111       -18.9966
 100   2.0000      -0.697446       -18.9785
 101   2.0000      -0.692760       -18.8510
 102   2.0000      -0.685074       -18.6418
 103   2.0000      -0.684082       -18.6148
 104   2.0000      -0.678576       -18.4650
 105   2.0000      -0.674502       -18.3541
 106   2.0000      -0.672428       -18.2977
 107   2.0000      -0.660521       -17.9737
 108   2.0000      -0.658077       -17.9072
 109   2.0000      -0.652714       -17.7612
 110   2.0000      -0.652056       -17.7433
 111   2.0000      -0.645874       -17.5751
 112   2.0000      -0.645275       -17.5588
 113   2.0000      -0.637494       -17.3471
 114   2.0000      -0.636526       -17.3208
 115   2.0000      -0.628401       -17.0996
 116   2.0000      -0.622968       -16.9518
 117   2.0000      -0.621137       -16.9020
 118   2.0000      -0.612900       -16.6779
 119   2.0000      -0.612219       -16.6593
 120   2.0000      -0.611558       -16.6413
 121   2.0000      -0.610996       -16.6261
 122   2.0000      -0.601379       -16.3643
 123   2.0000      -0.587970       -15.9995
 124   2.0000      -0.581366       -15.8198
 125   2.0000      -0.580880       -15.8065
 126   2.0000      -0.579959       -15.7815
 127   2.0000      -0.571165       -15.5422
 128   2.0000      -0.568162       -15.4605
 129   2.0000      -0.559914       -15.2360
 130   2.0000      -0.553861       -15.0713
 131   2.0000      -0.547828       -14.9071
 132   2.0000      -0.542591       -14.7646
 133   2.0000      -0.540972       -14.7206
 134   2.0000      -0.538212       -14.6455
 135   2.0000      -0.536410       -14.5965
 136   2.0000      -0.531076       -14.4513
 137   2.0000      -0.519228       -14.1289
 138   2.0000      -0.516492       -14.0545
 139   2.0000      -0.514895       -14.0110
 140   2.0000      -0.512443       -13.9443
 141   2.0000      -0.510363       -13.8877
 142   2.0000      -0.508226       -13.8295
 143   2.0000      -0.504952       -13.7404
 144   2.0000      -0.502520       -13.6743
 145   2.0000      -0.495917       -13.4946
 146   2.0000      -0.488985       -13.3060
 147   2.0000      -0.481637       -13.1060
 148   2.0000      -0.477855       -13.0031
 149   2.0000      -0.467633       -12.7249
 150   2.0000      -0.466395       -12.6913
 151   2.0000      -0.456949       -12.4342
 152   2.0000      -0.451764       -12.2931
 153   2.0000      -0.444748       -12.1022
 154   2.0000      -0.438675       -11.9370
 155   2.0000      -0.427491       -11.6326
 156   2.0000      -0.410120       -11.1599
 157   2.0000      -0.403283       -10.9739
 158   2.0000      -0.390669       -10.6306
 159   2.0000      -0.387415       -10.5421
 160   2.0000      -0.379405       -10.3241
 161   2.0000      -0.377957       -10.2847
 162   2.0000      -0.368942       -10.0394
 163   2.0000      -0.356655        -9.7051
 164   2.0000      -0.355790        -9.6815
 165   2.0000      -0.342070        -9.3082
 166   2.0000      -0.337657        -9.1881
 167   2.0000      -0.324539        -8.8311
 168   2.0000      -0.321468        -8.7476
 169   2.0000      -0.305002        -8.2995
 170   2.0000      -0.299518        -8.1503
 171   2.0000      -0.285514        -7.7692
 172   2.0000      -0.279091        -7.5944
 173   2.0000      -0.263883        -7.1806
 174   2.0000      -0.241484        -6.5711
 175   2.0000      -0.189946        -5.1687
 176   2.0000      -0.180925        -4.9232
 177   2.0000      -0.079067        -2.1515
 178   2.0000      -0.059596        -1.6217
 179   0.0000       0.028336         0.7711
 180   0.0000       0.065387         1.7793
 181   0.0000       0.090284         2.4568
 182   0.0000       0.106510         2.8983
 183   0.0000       0.114886         3.1262

MULLIKEN ATOMIC CHARGES
-----------------------
   0 C :    0.216915
   1 N :   -0.455063
   2 C :   -0.072010
   3 N :   -0.340682
   4 C :   -0.061234
   5 N :   -0.567793
   6 C :   -0.104787
   7 N :   -0.340877
   8 C :    0.210159
   9 N :   -0.562105
  10 C :    0.118661
  11 N :   -0.438686
  12 C :   -0.062434
  13 N :   -0.429459
  14 C :    0.222887
  15 N :   -0.440713
  16 C :    0.230481
  17 C :   -0.121235
  18 C :   -0.183411
  19 C :    0.216125
  20 C :    0.213163
  21 C :   -0.063602
  22 C :   -0.091238
  23 C :   -0.039563
  24 C :    0.193188
  25 C :    0.114740
  26 C :   -0.090400
  27 C :    0.215676
  28 C :   -0.061840
  29 C :   -0.181851
  30 C :    0.246200
  31 C :    0.229740
  32 C :   -0.061911
  33 C :   -0.060297
  34 C :   -0.051607
  35 C :    0.228818
  36 C :    0.108258
  37 C :   -0.064236
  38 C :    0.230650
  39 C :   -0.057303
  40 C :   -0.181529
  41 C :    0.226409
  42 C :    0.197705
  43 C :   -0.072274
  44 C :   -0.088983
  45 C :   -0.061502
  46 C :    0.212267
  47 C :    0.115211
  48 C :   -0.066640
  49 C :    0.238912
  50 C :   -0.046189
  51 C :   -0.192634
  52 H :    0.036287
  53 H :   -0.017902
  54 H :    0.045095
  55 H :    0.035059
  56 H :    0.049517
  57 H :    0.047816
  58 H :    0.046842
  59 H :   -0.007890
  60 H :    0.043740
  61 H :    0.171218
  62 H :    0.175400
  63 H :    0.054839
  64 H :   -0.026927
  65 H :    0.046916
  66 H :    0.055261
  67 H :    0.062073
  68 H :    0.056995
  69 H :    0.056076
  70 H :   -0.030491
  71 H :    0.044324
  72 H :    0.071313
  73 H :   -0.007968
  74 H :    0.060384
  75 H :    0.070798
  76 H :    0.074933
  77 H :    0.068011
  78 H :    0.067359
  79 H :   -0.016790
  80 H :    0.061391
  81 H :    0.054727
  82 H :   -0.024701
  83 H :    0.042347
  84 H :    0.054645
  85 H :    0.061272
  86 H :    0.055810
  87 H :    0.057470
  88 H :   -0.014390
  89 H :    0.047061
Sum of atomic charges:   -0.0000000

LOEWDIN ATOMIC CHARGES
----------------------
   0 C :   -0.018114
   1 N :    0.120732
   2 C :   -0.100863
   3 N :    0.182718
   4 C :   -0.011711
   5 N :   -0.134241
   6 C :   -0.022269
   7 N :    0.175097
   8 C :   -0.022883
   9 N :   -0.140541
  10 C :    0.023011
  11 N :    0.141292
  12 C :   -0.110335
  13 N :    0.166218
  14 C :   -0.018357
  15 N :    0.139445
  16 C :   -0.060871
  17 C :   -0.039576
  18 C :   -0.110169
  19 C :   -0.075595
  20 C :    0.004152
  21 C :   -0.109202
  22 C :    0.036253
  23 C :   -0.014632
  24 C :   -0.013239
  25 C :    0.029661
  26 C :   -0.108633
  27 C :   -0.116728
  28 C :   -0.027929
  29 C :   -0.100217
  30 C :   -0.029289
  31 C :    0.023933
  32 C :   -0.094772
  33 C :    0.081897
  34 C :   -0.015418
  35 C :    0.023461
  36 C :    0.035238
  37 C :   -0.093980
  38 C :   -0.052975
  39 C :   -0.017352
  40 C :   -0.108606
  41 C :   -0.090498
  42 C :   -0.009935
  43 C :   -0.099031
  44 C :    0.034650
  45 C :   -0.028024
  46 C :    0.002718
  47 C :    0.029657
  48 C :   -0.094470
  49 C :   -0.069368
  50 C :   -0.018505
  51 C :   -0.108291
  52 H :    0.022636
  53 H :    0.002536
  54 H :    0.004337
  55 H :    0.022383
  56 H :    0.021999
  57 H :    0.026370
  58 H :    0.026753
  59 H :    0.007364
  60 H :    0.017249
  61 H :    0.060166
  62 H :    0.061832
  63 H :    0.030528
  64 H :   -0.000434
  65 H :    0.045819
  66 H :    0.029064
  67 H :    0.028043
  68 H :    0.031516
  69 H :    0.030156
  70 H :   -0.004932
  71 H :    0.043265
  72 H :    0.037696
  73 H :    0.007151
  74 H :    0.050649
  75 H :    0.037433
  76 H :    0.034813
  77 H :    0.036193
  78 H :    0.035897
  79 H :    0.002875
  80 H :    0.050805
  81 H :    0.029240
  82 H :   -0.002659
  83 H :    0.042682
  84 H :    0.030104
  85 H :    0.027585
  86 H :    0.030309
  87 H :    0.031525
  88 H :    0.002433
  89 H :    0.045106

  Mayer bond orders larger than 0.100000
B(  0-C ,  1-N ) :   1.1005 B(  0-C , 17-C ) :   1.7093 B(  0-C , 52-H ) :   0.9637
B(  1-N ,  8-C ) :   1.0888 B(  1-N , 10-C ) :   0.9774 B(  2-C , 12-C ) :   1.4931
B(  2-C , 16-C ) :   1.3686 B(  2-C , 53-H ) :   0.9729 B(  3-N , 14-C ) :   1.2216
B(  3-N , 16-C ) :   1.1818 B(  3-N , 61-H ) :   0.8987 B(  4-C ,  6-C ) :   1.2149
B(  4-C , 17-C ) :   1.2167 B(  4-C , 18-C ) :   1.4683 B(  5-N , 19-C ) :   1.4579
B(  5-N , 27-C ) :   1.3721 B(  6-C ,  8-C ) :   1.7213 B(  6-C , 54-H ) :   0.8891
B(  7-N , 30-C ) :   1.1960 B(  7-N , 38-C ) :   1.1890 B(  7-N , 62-H ) :   0.8968
B(  8-C , 55-H ) :   0.9632 B(  9-N , 41-C ) :   1.3950 B(  9-N , 49-C ) :   1.4244
B( 10-C , 56-H ) :   0.9775 B( 10-C , 57-H ) :   0.9822 B( 10-C , 58-H ) :   0.9842
B( 11-N , 20-C ) :   1.1303 B( 11-N , 24-C ) :   1.1060 B( 11-N , 25-C ) :   0.9606
B( 12-C , 14-C ) :   1.3568 B( 12-C , 59-H ) :   0.9450 B( 13-N , 31-C ) :   1.1608
B( 13-N , 35-C ) :   1.1607 B( 13-N , 36-C ) :   0.9414 B( 14-C , 18-C ) :   1.1211
B( 15-N , 42-C ) :   1.1085 B( 15-N , 46-C ) :   1.1254 B( 15-N , 47-C ) :   0.9608
B( 16-C , 51-C ) :   1.1686 B( 17-C , 60-H ) :   0.9133 B( 18-C , 19-C ) :   1.1198
B( 19-C , 21-C ) :   1.2533 B( 20-C , 28-C ) :   1.6297 B( 20-C , 63-H ) :   0.9703
B( 21-C , 26-C ) :   1.5808 B( 21-C , 64-H ) :   0.9221 B( 22-C , 23-C ) :   1.2883
B( 22-C , 28-C ) :   1.2628 B( 22-C , 29-C ) :   1.2276 B( 23-C , 24-C ) :   1.6214
B( 23-C , 65-H ) :   0.9703 B( 24-C , 66-H ) :   0.9695 B( 25-C , 67-H ) :   0.9761
B( 25-C , 68-H ) :   0.9828 B( 25-C , 69-H ) :   0.9824 B( 26-C , 27-C ) :   1.2610
B( 26-C , 70-H ) :   0.9679 B( 27-C , 29-C ) :   1.2051 B( 28-C , 71-H ) :   0.9720
B( 29-C , 30-C ) :   1.2462 B( 30-C , 32-C ) :   1.2795 B( 31-C , 39-C ) :   1.5878
B( 31-C , 72-H ) :   0.9681 B( 32-C , 37-C ) :   1.5790 B( 32-C , 73-H ) :   0.9786
B( 33-C , 34-C ) :   1.3064 B( 33-C , 39-C ) :   1.3044 B( 33-C , 40-C ) :   1.1767
B( 34-C , 35-C ) :   1.5857 B( 34-C , 74-H ) :   0.9697 B( 35-C , 75-H ) :   0.9681
B( 36-C , 76-H ) :   0.9768 B( 36-C , 77-H ) :   0.9816 B( 36-C , 78-H ) :   0.9823
B( 37-C , 38-C ) :   1.2858 B( 37-C , 79-H ) :   0.9764 B( 38-C , 40-C ) :   1.2334
B( 39-C , 80-H ) :   0.9705 B( 40-C , 41-C ) :   1.2508 B( 41-C , 43-C ) :   1.1836
B( 42-C , 50-C ) :   1.6319 B( 42-C , 81-H ) :   0.9696 B( 43-C , 48-C ) :   1.6694
B( 43-C , 82-H ) :   0.9722 B( 44-C , 45-C ) :   1.2644 B( 44-C , 50-C ) :   1.2735
B( 44-C , 51-C ) :   1.2585 B( 45-C , 46-C ) :   1.6335 B( 45-C , 83-H ) :   0.9718
B( 46-C , 84-H ) :   0.9700 B( 47-C , 85-H ) :   0.9762 B( 47-C , 86-H ) :   0.9829
B( 47-C , 87-H ) :   0.9824 B( 48-C , 49-C ) :   1.1870 B( 48-C , 88-H ) :   0.9748
B( 49-C , 51-C ) :   1.2456 B( 50-C , 89-H ) :   0.9708

MP2 TOTAL ENERGY:    -2130.801151752 Eh
FINAL SINGLE POINT ENERGY     -2130.801151752212

DIPOLE MOMENT
-------------
                                X             Y             Z
Electronic contribution:      2.92730      -4.19777      -0.09960
Nuclear contribution   :     -0.04490       0.15688       0.11544
                        -----------------------------------------
Total Dipole Moment    :      2.88240      -4.04089       0.01584
                        -----------------------------------------
Magnitude (a.u.)       :      4.96359
Magnitude (Debye)      :     12.61644

Rotational constants in cm-1:     0.001503     0.001478     0.000760
Rotational constants in MHz :    45.060728    44.294912    22.785897

                             ****ORCA TERMINATED NORMALLY****
TOTAL RUN TIME: 0 days 1 hours 10 minutes 54 seconds 376 msec
