                         Program Version 5.0.4 -  RELEASE  -
|  1> ! PAL2
|  2> ! mp2 cc-pvdz TightSCF  NoKeepInts
|  3>
|  4> %scf
|  5>   MaxCore 2000
|  6> end
|  7> %mp2
|  8>   MaxCore 2000
|  9> end
| 10> * xyz 0 1
| 11>    C       -3.30000         6.29700         0.89800
| 12>    C        1.47400         4.04100         0.05700
| 13>    C       -2.80200         4.09300         0.04900
| 14>    C       -3.93700         4.20700        -0.76800
| 15>    C       -4.70800         5.35200        -0.72900
| 16>    C       -5.21200         7.60300         0.08900
| 17>    C        0.13200         4.30700         0.06100
| 18>    C       -0.56900         3.05600         0.04700
| 19>    C        1.64900         2.61800         0.02300
| 20>    C       -2.49400         5.17400         0.88900
| 21>    N       -4.38700         6.37500         0.09800
| 22>    N        0.38800         2.06700         0.02500
| 23>    N       -2.01000         0.39500        -0.07500
| 24>    N       -0.38800        -2.07400        -0.02700
| 25>    N        2.01000        -0.40100         0.06500
| 26>    C       -1.96000         2.86100         0.02400
| 27>    C       -2.62300         1.61500        -0.01800
| 28>    C       -5.57300        -4.32900         1.06600
| 29>    C       -4.07300         1.47100         0.05600
| 30>    C       -4.10600        -2.75600        -0.02600
| 31>    C       -4.99500        -2.75700        -1.11100
| 32>    C       -6.13200        -3.54200        -1.07600
| 33>    C       -7.65100        -5.11300         0.04000
| 34>    C       -4.32400         0.14100         0.03700
| 35>    C       -3.02500        -0.52000        -0.04800
| 36>    C       -4.42200        -3.56600         1.07500
| 37>    N       -6.40700        -4.31300         0.00100
| 38>    C       -2.86700        -1.92200        -0.04000
| 39>    C       -1.65000        -2.62400        -0.02700
| 40>    C        3.56800        -6.14200        -1.04000
| 41>    C       -1.47600        -4.04900        -0.03400
| 42>    C        2.80300        -4.09900        -0.00800
| 43>    C        3.65700        -4.38400         1.06900
| 44>    C        4.42700        -5.53000         1.05900
| 45>    C        5.24500        -7.58800         0.01400
| 46>    C       -0.13400        -4.31500        -0.02200
| 47>    C        0.56800        -3.06400        -0.02700
| 48>    C        2.77500        -5.01200        -1.07400
| 49>    N        4.37600        -6.39100         0.01700
| 50>    C        1.95900        -2.86900        -0.00900
| 51>    C        2.62100        -1.62200         0.00900
| 52>    C        5.54300         4.33900        -1.13000
| 53>    C        4.07000        -1.47900        -0.09400
| 54>    C        4.10400         2.75100        -0.02100
| 55>    C        5.02700         2.72900         1.03600
| 56>    C        6.16600         3.50900         0.97800
| 57>    C        7.61900         5.15300        -0.11500
| 58>    C        4.32100        -0.14800        -0.09200
| 59>    C        3.02500         0.51400         0.01500
| 60>    C        4.38700         3.58200        -1.11500
| 61>    C        2.86600         1.91600         0.01300
| 62>    N        6.41300         4.29600        -0.09500
| 63>    H       -3.10800         7.14900         1.53800
| 64>    H        2.27400         4.76600         0.08100
| 65>    H       -4.22100         3.41100        -1.44500
| 66>    H       -5.58600         5.48900        -1.34600
| 67>    H       -4.85300         8.26700        -0.70100
| 68>    H       -6.25000         7.32800        -0.09500
| 69>    H       -5.12200         8.09300         1.05900
| 70>    H       -0.33200         5.28200         0.06900
| 71>    H       -1.63900         5.14100         1.55400
| 72>    H        0.18200         1.07200         0.00500
| 73>    H       -0.18300        -1.08000        -0.02100
| 74>    H       -5.86400        -4.96200         1.89500
| 75>    H       -4.79400         2.27200         0.13900
| 76>    H       -4.80000        -2.16000        -1.99400
| 77>    H       -6.84100        -3.58200        -1.89300
| 78>    H       -8.42800        -4.53600         0.54600
| 79>    H       -7.95600        -5.33700        -0.98100
| 80>    H       -7.45600        -6.03700         0.58400
| 81>    H       -5.28700        -0.34400         0.10000
| 82>    H       -3.78000        -3.60100         1.94700
| 83>    H        3.58700        -6.86800        -1.84300
| 84>    H       -2.27600        -4.77400        -0.05000
| 85>    H        3.71400        -3.72400         1.92600
| 86>    H        5.09200        -5.79500         1.87100
| 87>    H        6.20500        -7.32900        -0.43900
| 88>    H        5.39300        -7.91700         1.04200
| 89>    H        4.75900        -8.37300        -0.56400
| 90>    H        0.32900        -5.29000        -0.00800
| 91>    H        2.14600        -4.84200        -1.94000
| 92>    H        5.80800         4.98600        -1.95600
| 93>    H        4.78800        -2.28100        -0.18500
| 94>    H        4.86000         2.11400         1.91200
| 95>    H        6.90100         3.53100         1.77200
| 96>    H        7.38300         6.10900         0.35600
| 97>    H        8.41400         4.65200         0.43500
| 98>    H        7.92100         5.31000        -1.15000
| 99>    H        5.28300         0.33600        -0.17900
|100>    H        3.72000         3.63200        -1.96700
|101> *
|102>
|103>                          ****END OF INPUT****

CARTESIAN COORDINATES (ANGSTROEM)
---------------------------------
  C     -3.300000    6.297000    0.898000
  C      1.474000    4.041000    0.057000
  C     -2.802000    4.093000    0.049000
  C     -3.937000    4.207000   -0.768000
  C     -4.708000    5.352000   -0.729000
  C     -5.212000    7.603000    0.089000
  C      0.132000    4.307000    0.061000
  C     -0.569000    3.056000    0.047000
  C      1.649000    2.618000    0.023000
  C     -2.494000    5.174000    0.889000
  N     -4.387000    6.375000    0.098000
  N      0.388000    2.067000    0.025000
  N     -2.010000    0.395000   -0.075000
  N     -0.388000   -2.074000   -0.027000
  N      2.010000   -0.401000    0.065000
  C     -1.960000    2.861000    0.024000
  C     -2.623000    1.615000   -0.018000
  C     -5.573000   -4.329000    1.066000
  C     -4.073000    1.471000    0.056000
  C     -4.106000   -2.756000   -0.026000
  C     -4.995000   -2.757000   -1.111000
  C     -6.132000   -3.542000   -1.076000
  C     -7.651000   -5.113000    0.040000
  C     -4.324000    0.141000    0.037000
  C     -3.025000   -0.520000   -0.048000
  C     -4.422000   -3.566000    1.075000
  N     -6.407000   -4.313000    0.001000
  C     -2.867000   -1.922000   -0.040000
  C     -1.650000   -2.624000   -0.027000
  C      3.568000   -6.142000   -1.040000
  C     -1.476000   -4.049000   -0.034000
  C      2.803000   -4.099000   -0.008000
  C      3.657000   -4.384000    1.069000
  C      4.427000   -5.530000    1.059000
  C      5.245000   -7.588000    0.014000
  C     -0.134000   -4.315000   -0.022000
  C      0.568000   -3.064000   -0.027000
  C      2.775000   -5.012000   -1.074000
  N      4.376000   -6.391000    0.017000
  C      1.959000   -2.869000   -0.009000
  C      2.621000   -1.622000    0.009000
  C      5.543000    4.339000   -1.130000
  C      4.070000   -1.479000   -0.094000
  C      4.104000    2.751000   -0.021000
  C      5.027000    2.729000    1.036000
  C      6.166000    3.509000    0.978000
  C      7.619000    5.153000   -0.115000
  C      4.321000   -0.148000   -0.092000
  C      3.025000    0.514000    0.015000
  C      4.387000    3.582000   -1.115000
  C      2.866000    1.916000    0.013000
  N      6.413000    4.296000   -0.095000
  H     -3.108000    7.149000    1.538000
  H      2.274000    4.766000    0.081000
  H     -4.221000    3.411000   -1.445000
  H     -5.586000    5.489000   -1.346000
  H     -4.853000    8.267000   -0.701000
  H     -6.250000    7.328000   -0.095000
  H     -5.122000    8.093000    1.059000
  H     -0.332000    5.282000    0.069000
  H     -1.639000    5.141000    1.554000
  H      0.182000    1.072000    0.005000
  H     -0.183000   -1.080000   -0.021000
  H     -5.864000   -4.962000    1.895000
  H     -4.794000    2.272000    0.139000
  H     -4.800000   -2.160000   -1.994000
  H     -6.841000   -3.582000   -1.893000
  H     -8.428000   -4.536000    0.546000
  H     -7.956000   -5.337000   -0.981000
  H     -7.456000   -6.037000    0.584000
  H     -5.287000   -0.344000    0.100000
  H     -3.780000   -3.601000    1.947000
  H      3.587000   -6.868000   -1.843000
  H     -2.276000   -4.774000   -0.050000
  H      3.714000   -3.724000    1.926000
  H      5.092000   -5.795000    1.871000
  H      6.205000   -7.329000   -0.439000
  H      5.393000   -7.917000    1.042000
  H      4.759000   -8.373000   -0.564000
  H      0.329000   -5.290000   -0.008000
  H      2.146000   -4.842000   -1.940000
  H      5.808000    4.986000   -1.956000
  H      4.788000   -2.281000   -0.185000
  H      4.860000    2.114000    1.912000
  H      6.901000    3.531000    1.772000
  H      7.383000    6.109000    0.356000
  H      8.414000    4.652000    0.435000
  H      7.921000    5.310000   -1.150000
  H      5.283000    0.336000   -0.179000
  H      3.720000    3.632000   -1.967000

 Total Charge           Charge          ....    0
 Multiplicity           Mult            ....    1
 Number of Electrons    NEL             ....  358
 Basis Dimension        Dim             ....  918

ORBITAL ENERGIES
----------------

  NO   OCC          E(Eh)            E(eV)
   0   2.0000     -15.662929      -426.2100
   1   2.0000     -15.638428      -425.5433
   2   2.0000     -15.628581      -425.2753
   3   2.0000     -15.598624      -424.4602
   4   2.0000     -15.523582      -422.4181
   5   2.0000     -15.515767      -422.2055
   6   2.0000     -15.449533      -420.4032
   7   2.0000     -15.443550      -420.2404
   8   2.0000     -11.317500      -307.9648
   9   2.0000     -11.315898      -307.9213
  10   2.0000     -11.313557      -307.8575
  11   2.0000     -11.302074      -307.5451
  12   2.0000     -11.296158      -307.3841
  13   2.0000     -11.295732      -307.3725
  14   2.0000     -11.291529      -307.2581
  15   2.0000     -11.287408      -307.1460
  16   2.0000     -11.284396      -307.0640
  17   2.0000     -11.278357      -306.8997
  18   2.0000     -11.266175      -306.5682
  19   2.0000     -11.263666      -306.4999
  20   2.0000     -11.261327      -306.4363
  21   2.0000     -11.251488      -306.1685
  22   2.0000     -11.250569      -306.1436
  23   2.0000     -11.241984      -305.9099
  24   2.0000     -11.234367      -305.7027
  25   2.0000     -11.233804      -305.6873
  26   2.0000     -11.233256      -305.6724
  27   2.0000     -11.227070      -305.5041
  28   2.0000     -11.226829      -305.4975
  29   2.0000     -11.208459      -304.9977
  30   2.0000     -11.207915      -304.9829
  31   2.0000     -11.206731      -304.9507
  32   2.0000     -11.203573      -304.8647
  33   2.0000     -11.203331      -304.8581
  34   2.0000     -11.190440      -304.5074
  35   2.0000     -11.190124      -304.4987
  36   2.0000     -11.183804      -304.3268
  37   2.0000     -11.180530      -304.2377
  38   2.0000     -11.179860      -304.2195
  39   2.0000     -11.174224      -304.0661
  40   2.0000     -11.169297      -303.9320
  41   2.0000     -11.167973      -303.8960
  42   2.0000     -11.166121      -303.8456
  43   2.0000     -11.164389      -303.7985
  44   2.0000     -11.163314      -303.7692
  45   2.0000     -11.161097      -303.7089
  46   2.0000     -11.153414      -303.4998
  47   2.0000     -11.149346      -303.3891
  48   2.0000     -11.149044      -303.3809
  49   2.0000     -11.144381      -303.2540
  50   2.0000     -11.136628      -303.0431
  51   2.0000     -11.130861      -302.8861
  52   2.0000      -1.346018       -36.6270
  53   2.0000      -1.325051       -36.0565
  54   2.0000      -1.316690       -35.8290
  55   2.0000      -1.291945       -35.1556
  56   2.0000      -1.223666       -33.2976
  57   2.0000      -1.210764       -32.9466
  58   2.0000      -1.167390       -31.7663
  59   2.0000      -1.154876       -31.4258
  60   2.0000      -1.131484       -30.7892
  61   2.0000      -1.113360       -30.2961
  62   2.0000      -1.106292       -30.1037
  63   2.0000      -1.086558       -29.5668
  64   2.0000      -1.068727       -29.0815
  65   2.0000      -1.049038       -28.5458
  66   2.0000      -1.041418       -28.3384
  67   2.0000      -1.033511       -28.1233
  68   2.0000      -1.019246       -27.7351
  69   2.0000      -1.013890       -27.5894
  70   2.0000      -1.009413       -27.4675
  71   2.0000      -0.992789       -27.0152
  72   2.0000      -0.987427       -26.8693
  73   2.0000      -0.976586       -26.5742
  74   2.0000      -0.972700       -26.4685
  75   2.0000      -0.959053       -26.0972
  76   2.0000      -0.950794       -25.8724
  77   2.0000      -0.947568       -25.7846
  78   2.0000      -0.936630       -25.4870
  79   2.0000      -0.921333       -25.0707
  80   2.0000      -0.899627       -24.4801
  81   2.0000      -0.890318       -24.2268
  82   2.0000      -0.876051       -23.8386
  83   2.0000      -0.869903       -23.6713
  84   2.0000      -0.865072       -23.5398
  85   2.0000      -0.854938       -23.2640
  86   2.0000      -0.844194       -22.9717
  87   2.0000      -0.838578       -22.8189
  88   2.0000      -0.822258       -22.3748
  89   2.0000      -0.798693       -21.7335
  90   2.0000      -0.794637       -21.6232
  91   2.0000      -0.744557       -20.2604
  92   2.0000      -0.737189       -20.0599
  93   2.0000      -0.731896       -19.9159
  94   2.0000      -0.723293       -19.6818
  95   2.0000      -0.719669       -19.5832
  96   2.0000      -0.713671       -19.4200
  97   2.0000      -0.705676       -19.2024
  98   2.0000      -0.702122       -19.1057
  99   2.0000      -0.696232       -18.9454
 100   2.0000      -0.693762       -18.8782
 101   2.0000      -0.681760       -18.5516
 102   2.0000      -0.679146       -18.4805
 103   2.0000      -0.674554       -18.3556
 104   2.0000      -0.673242       -18.3199
 105   2.0000      -0.670805       -18.2535
 106   2.0000      -0.664462       -18.0809
 107   2.0000      -0.662861       -18.0374
 108   2.0000      -0.656532       -17.8651
 109   2.0000      -0.653787       -17.7904
 110   2.0000      -0.649768       -17.6811
 111   2.0000      -0.646353       -17.5882
 112   2.0000      -0.642989       -17.4966
 113   2.0000      -0.636607       -17.3230
 114   2.0000      -0.633836       -17.2476
 115   2.0000      -0.630136       -17.1469
 116   2.0000      -0.623619       -16.9695
 117   2.0000      -0.615877       -16.7589
 118   2.0000      -0.614353       -16.7174
 119   2.0000      -0.612141       -16.6572
 120   2.0000      -0.608752       -16.5650
 121   2.0000      -0.601527       -16.3684
 122   2.0000      -0.600102       -16.3296
 123   2.0000      -0.588508       -16.0141
 124   2.0000      -0.587563       -15.9884
 125   2.0000      -0.584164       -15.8959
 126   2.0000      -0.578460       -15.7407
 127   2.0000      -0.577225       -15.7071
 128   2.0000      -0.563033       -15.3209
 129   2.0000      -0.558353       -15.1936
 130   2.0000      -0.553934       -15.0733
 131   2.0000      -0.549234       -14.9454
 132   2.0000      -0.542373       -14.7587
 133   2.0000      -0.538800       -14.6615
 134   2.0000      -0.534771       -14.5519
 135   2.0000      -0.533967       -14.5300
 136   2.0000      -0.525122       -14.2893
 137   2.0000      -0.524025       -14.2595
 138   2.0000      -0.517750       -14.0887
 139   2.0000      -0.515067       -14.0157
 140   2.0000      -0.510209       -13.8835
 141   2.0000      -0.509837       -13.8734
 142   2.0000      -0.508906       -13.8480
 143   2.0000      -0.502406       -13.6712
 144   2.0000      -0.500597       -13.6219
 145   2.0000      -0.497136       -13.5278
 146   2.0000      -0.494083       -13.4447
 147   2.0000      -0.486407       -13.2358
 148   2.0000      -0.484929       -13.1956
 149   2.0000      -0.468726       -12.7547
 150   2.0000      -0.463793       -12.6204
 151   2.0000      -0.455872       -12.4049
 152   2.0000      -0.448479       -12.2037
 153   2.0000      -0.446896       -12.1607
 154   2.0000      -0.445489       -12.1224
 155   2.0000      -0.440316       -11.9816
 156   2.0000      -0.432630       -11.7725
 157   2.0000      -0.428327       -11.6554
 158   2.0000      -0.399983       -10.8841
 159   2.0000      -0.385422       -10.4879
 160   2.0000      -0.379081       -10.3153
 161   2.0000      -0.376252       -10.2383
 162   2.0000      -0.370851       -10.0914
 163   2.0000      -0.359610        -9.7855
 164   2.0000      -0.353300        -9.6138
 165   2.0000      -0.337541        -9.1849
 166   2.0000      -0.337004        -9.1703
 167   2.0000      -0.332254        -9.0411
 168   2.0000      -0.328335        -8.9344
 169   2.0000      -0.302208        -8.2235
 170   2.0000      -0.299726        -8.1560
 171   2.0000      -0.287098        -7.8123
 172   2.0000      -0.284510        -7.7419
 173   2.0000      -0.259372        -7.0579
 174   2.0000      -0.245721        -6.6864
 175   2.0000      -0.189386        -5.1535
 176   2.0000      -0.179587        -4.8868
 177   2.0000      -0.071843        -1.9549
 178   2.0000      -0.057054        -1.5525
 179   0.0000       0.029150         0.7932
 180   0.0000       0.068047         1.8516
 181   0.0000       0.092298         2.5116
 182   0.0000       0.104836         2.8527
 183   0.0000       0.117468         3.1965

MULLIKEN ATOMIC CHARGES
-----------------------
   0 C :    0.206920
   1 N :   -0.451936
   2 C :   -0.064196
   3 N :   -0.336101
   4 C :   -0.054657
   5 N :   -0.560580
   6 C :   -0.098538
   7 N :   -0.339641
   8 C :    0.202113
   9 N :   -0.562712
  10 C :    0.117758
  11 N :   -0.437551
  12 C :   -0.079042
  13 N :   -0.433394
  14 C :    0.231089
  15 N :   -0.441326
  16 C :    0.230067
  17 C :   -0.106975
  18 C :   -0.182198
  19 C :    0.217433
  20 C :    0.212871
  21 C :   -0.089992
  22 C :   -0.088034
  23 C :   -0.042949
  24 C :    0.199088
  25 C :    0.113983
  26 C :   -0.073842
  27 C :    0.213888
  28 C :   -0.057986
  29 C :   -0.181197
  30 C :    0.241974
  31 C :    0.223933
  32 C :   -0.062456
  33 C :   -0.068505
  34 C :   -0.049603
  35 C :    0.218157
  36 C :    0.110463
  37 C :   -0.065161
  38 C :    0.234352
  39 C :   -0.059965
  40 C :   -0.183421
  41 C :    0.222759
  42 C :    0.198652
  43 C :   -0.073090
  44 C :   -0.090700
  45 C :   -0.058621
  46 C :    0.207661
  47 C :    0.115704
  48 C :   -0.070207
  49 C :    0.233841
  50 C :   -0.048646
  51 C :   -0.192206
  52 H :    0.043916
  53 H :   -0.015763
  54 H :    0.048915
  55 H :    0.041894
  56 H :    0.050941
  57 H :    0.050314
  58 H :    0.049409
  59 H :   -0.002179
  60 H :    0.048391
  61 H :    0.171391
  62 H :    0.174772
  63 H :    0.056831
  64 H :   -0.007824
  65 H :    0.046896
  66 H :    0.057050
  67 H :    0.063457
  68 H :    0.058011
  69 H :    0.057877
  70 H :   -0.027144
  71 H :    0.046964
  72 H :    0.065833
  73 H :   -0.010073
  74 H :    0.055374
  75 H :    0.064998
  76 H :    0.070145
  77 H :    0.064317
  78 H :    0.063470
  79 H :   -0.015055
  80 H :    0.055859
  81 H :    0.053596
  82 H :   -0.024814
  83 H :    0.041464
  84 H :    0.053048
  85 H :    0.059595
  86 H :    0.055334
  87 H :    0.056676
  88 H :   -0.017153
  89 H :    0.045988
Sum of atomic charges:   -0.0000000

LOEWDIN ATOMIC CHARGES
----------------------
   0 C :   -0.016813
   1 N :    0.119352
   2 C :   -0.101168
   3 N :    0.182129
   4 C :    0.002666
   5 N :   -0.131914
   6 C :   -0.031782
   7 N :    0.176249
   8 C :   -0.020977
   9 N :   -0.139889
  10 C :    0.024716
  11 N :    0.144284
  12 C :   -0.106119
  13 N :    0.157004
  14 C :   -0.036666
  15 N :    0.137631
  16 C :   -0.055122
  17 C :   -0.038828
  18 C :   -0.101755
  19 C :   -0.085970
  20 C :    0.004730
  21 C :   -0.110731
  22 C :    0.040856
  23 C :   -0.016471
  24 C :   -0.007303
  25 C :    0.030366
  26 C :   -0.106516
  27 C :   -0.110206
  28 C :   -0.024540
  29 C :   -0.100942
  30 C :   -0.036647
  31 C :    0.016619
  32 C :   -0.095072
  33 C :    0.066236
  34 C :   -0.016109
  35 C :    0.011777
  36 C :    0.033155
  37 C :   -0.096631
  38 C :   -0.046522
  39 C :   -0.020956
  40 C :   -0.108108
  41 C :   -0.094189
  42 C :   -0.009568
  43 C :   -0.101732
  44 C :    0.031593
  45 C :   -0.026626
  46 C :   -0.001837
  47 C :    0.029179
  48 C :   -0.099262
  49 C :   -0.076528
  50 C :   -0.020479
  51 C :   -0.109541
  52 H :    0.025092
  53 H :    0.003499
  54 H :    0.041350
  55 H :    0.024649
  56 H :    0.022459
  57 H :    0.027358
  58 H :    0.028120
  59 H :    0.008033
  60 H :    0.040537
  61 H :    0.060053
  62 H :    0.061481
  63 H :    0.031355
  64 H :    0.003557
  65 H :    0.045658
  66 H :    0.030036
  67 H :    0.028766
  68 H :    0.031984
  69 H :    0.030979
  70 H :   -0.003413
  71 H :    0.044590
  72 H :    0.035175
  73 H :    0.006118
  74 H :    0.048631
  75 H :    0.034562
  76 H :    0.032313
  77 H :    0.034451
  78 H :    0.034083
  79 H :    0.003717
  80 H :    0.048302
  81 H :    0.028805
  82 H :   -0.002641
  83 H :    0.042472
  84 H :    0.029256
  85 H :    0.026770
  86 H :    0.030051
  87 H :    0.031151
  88 H :    0.001116
  89 H :    0.044498

  Mayer bond orders larger than 0.100000
B(  0-C ,  1-N ) :   1.0978 B(  0-C , 17-C ) :   1.6877 B(  0-C , 52-H ) :   0.9681
B(  1-N ,  8-C ) :   1.0879 B(  1-N , 10-C ) :   0.9747 B(  2-C , 12-C ) :   1.5197
B(  2-C , 16-C ) :   1.3440 B(  2-C , 53-H ) :   0.9768 B(  3-N , 14-C ) :   1.2145
B(  3-N , 16-C ) :   1.1931 B(  3-N , 61-H ) :   0.8993 B(  4-C ,  6-C ) :   1.2219
B(  4-C , 17-C ) :   1.2209 B(  4-C , 18-C ) :   1.3885 B(  5-N , 19-C ) :   1.4445
B(  5-N , 27-C ) :   1.3864 B(  6-C ,  8-C ) :   1.6912 B(  6-C , 54-H ) :   0.9659
B(  7-N , 30-C ) :   1.1936 B(  7-N , 38-C ) :   1.1953 B(  7-N , 62-H ) :   0.8972
B(  8-C , 55-H ) :   0.9695 B(  9-N , 41-C ) :   1.3965 B(  9-N , 49-C ) :   1.4252
B( 10-C , 56-H ) :   0.9765 B( 10-C , 57-H ) :   0.9829 B( 10-C , 58-H ) :   0.9834
B( 11-N , 20-C ) :   1.1307 B( 11-N , 24-C ) :   1.1146 B( 11-N , 25-C ) :   0.9584
B( 12-C , 14-C ) :   1.3466 B( 12-C , 59-H ) :   0.9748 B( 13-N , 31-C ) :   1.1482
B( 13-N , 35-C ) :   1.1420 B( 13-N , 36-C ) :   0.9483 B( 14-C , 18-C ) :   1.1515
B( 15-N , 42-C ) :   1.1089 B( 15-N , 46-C ) :   1.1192 B( 15-N , 47-C ) :   0.9624
B( 16-C , 51-C ) :   1.1808 B( 17-C , 60-H ) :   0.9663 B( 18-C , 19-C ) :   1.1574
B( 19-C , 21-C ) :   1.2331 B( 20-C , 28-C ) :   1.6243 B( 20-C , 63-H ) :   0.9702
B( 21-C , 26-C ) :   1.6255 B( 21-C , 64-H ) :   0.9714 B( 22-C , 23-C ) :   1.2897
B( 22-C , 28-C ) :   1.2699 B( 22-C , 29-C ) :   1.2209 B( 23-C , 24-C ) :   1.6167
B( 23-C , 65-H ) :   0.9706 B( 24-C , 66-H ) :   0.9693 B( 25-C , 67-H ) :   0.9761
B( 25-C , 68-H ) :   0.9828 B( 25-C , 69-H ) :   0.9822 B( 26-C , 27-C ) :   1.2280
B( 26-C , 70-H ) :   0.9716 B( 27-C , 29-C ) :   1.2198 B( 28-C , 71-H ) :   0.9717
B( 29-C , 30-C ) :   1.2336 B( 30-C , 32-C ) :   1.2903 B( 31-C , 39-C ) :   1.6042
B( 31-C , 72-H ) :   0.9687 B( 32-C , 37-C ) :   1.5688 B( 32-C , 73-H ) :   0.9782
B( 33-C , 34-C ) :   1.2964 B( 33-C , 39-C ) :   1.2895 B( 33-C , 40-C ) :   1.2016
B( 34-C , 35-C ) :   1.6007 B( 34-C , 74-H ) :   0.9699 B( 35-C , 75-H ) :   0.9687
B( 36-C , 76-H ) :   0.9766 B( 36-C , 77-H ) :   0.9817 B( 36-C , 78-H ) :   0.9826
B( 37-C , 38-C ) :   1.2935 B( 37-C , 79-H ) :   0.9771 B( 38-C , 40-C ) :   1.2255
B( 39-C , 80-H ) :   0.9710 B( 40-C , 41-C ) :   1.2386 B( 41-C , 43-C ) :   1.1974
B( 42-C , 50-C ) :   1.6354 B( 42-C , 81-H ) :   0.9696 B( 43-C , 48-C ) :   1.6542
B( 43-C , 82-H ) :   0.9726 B( 44-C , 45-C ) :   1.2642 B( 44-C , 50-C ) :   1.2687
B( 44-C , 51-C ) :   1.2629 B( 45-C , 46-C ) :   1.6361 B( 45-C , 83-H ) :   0.9716
B( 46-C , 84-H ) :   0.9702 B( 47-C , 85-H ) :   0.9762 B( 47-C , 86-H ) :   0.9829
B( 47-C , 87-H ) :   0.9825 B( 48-C , 49-C ) :   1.2001 B( 48-C , 88-H ) :   0.9746
B( 49-C , 51-C ) :   1.2301 B( 50-C , 89-H ) :   0.9711

MP2 TOTAL ENERGY:    -2130.912448597 Eh
FINAL SINGLE POINT ENERGY     -2130.912448596939

DIPOLE MOMENT
-------------
                                X             Y             Z
Electronic contribution:      1.48201      -3.20935      -0.06150
Nuclear contribution   :      0.00566       0.19301       0.07156
                        -----------------------------------------
Total Dipole Moment    :      1.48767      -3.01634       0.01006
                        -----------------------------------------
Magnitude (a.u.)       :      3.36326
Magnitude (Debye)      :      8.54873

Rotational constants in cm-1:     0.001501     0.001475     0.000761
Rotational constants in MHz :    44.998824    44.216489    22.822218

                             ****ORCA TERMINATED NORMALLY****
TOTAL RUN TIME: 0 days 1 hours 0 minutes 58 seconds 82 msec
