                         Program Version 5.0.4 -  RELEASE  -
|  1> ! PAL2
|  2> ! mp2 cc-pvdz TightSCF  NoKeepInts
|  3>
|  4> %scf
|  5>   MaxCore 2000
|  6> end
|  7> %mp2
|  8>   MaxCore 2000
|  9> end
| 10> * xyz 0 1
| 11>    C       -4.91600         5.21500        -0.25800
| 12>    C        1.47400         4.04100         0.05700
| 13>    C       -2.80200         4.09300         0.04900
| 14>    C       -2.25200         5.33600         0.39900
| 15>    C       -3.04400         6.46600         0.41200
| 16>    C       -5.18600         7.62000         0.14400
| 17>    C        0.13200         4.30700         0.06100
| 18>    C       -0.56900         3.05600         0.04700
| 19>    C        1.64900         2.61800         0.02300
| 20>    C       -4.16600         4.05600        -0.28000
| 21>    N       -4.35500         6.39700         0.08400
| 22>    N        0.38800         2.06700         0.02500
| 23>    N       -2.01000         0.39500        -0.07500
| 24>    N       -0.38800        -2.07400        -0.02700
| 25>    N        2.01000        -0.40100         0.06500
| 26>    C       -1.96000         2.86100         0.02400
| 27>    C       -2.62300         1.61500        -0.01800
| 28>    C       -5.57300        -4.32900         1.06600
| 29>    C       -4.07300         1.47100         0.05600
| 30>    C       -4.10600        -2.75600        -0.02600
| 31>    C       -4.99500        -2.75700        -1.11100
| 32>    C       -6.13200        -3.54200        -1.07600
| 33>    C       -7.65100        -5.11300         0.04000
| 34>    C       -4.32400         0.14100         0.03700
| 35>    C       -3.02500        -0.52000        -0.04800
| 36>    C       -4.42200        -3.56600         1.07500
| 37>    N       -6.40700        -4.31300         0.00100
| 38>    C       -2.86700        -1.92200        -0.04000
| 39>    C       -1.65000        -2.62400        -0.02700
| 40>    C        3.56800        -6.14200        -1.04000
| 41>    C       -1.47600        -4.04900        -0.03400
| 42>    C        2.80300        -4.09900        -0.00800
| 43>    C        3.65700        -4.38400         1.06900
| 44>    C        4.42700        -5.53000         1.05900
| 45>    C        5.24500        -7.58800         0.01400
| 46>    C       -0.13400        -4.31500        -0.02200
| 47>    C        0.56800        -3.06400        -0.02700
| 48>    C        2.77500        -5.01200        -1.07400
| 49>    N        4.37600        -6.39100         0.01700
| 50>    C        1.95900        -2.86900        -0.00900
| 51>    C        2.62100        -1.62200         0.00900
| 52>    C        5.54300         4.33900        -1.13000
| 53>    C        4.07000        -1.47900        -0.09400
| 54>    C        4.10400         2.75100        -0.02100
| 55>    C        5.02700         2.72900         1.03600
| 56>    C        6.16600         3.50900         0.97800
| 57>    C        7.61900         5.15300        -0.11500
| 58>    C        4.32100        -0.14800        -0.09200
| 59>    C        3.02500         0.51400         0.01500
| 60>    C        4.38700         3.58200        -1.11500
| 61>    C        2.86600         1.91600         0.01300
| 62>    N        6.41300         4.29600        -0.09500
| 63>    H       -5.96800         5.23500        -0.51600
| 64>    H        2.27400         4.76600         0.08100
| 65>    H       -1.20700         5.42700         0.67200
| 66>    H       -2.66700         7.44400         0.68400
| 67>    H       -5.55500         7.74900         1.16400
| 68>    H       -4.57400         8.47500        -0.14400
| 69>    H       -6.02200         7.51000        -0.54600
| 70>    H       -0.33200         5.28200         0.06900
| 71>    H       -4.64600         3.12900        -0.57200
| 72>    H        0.18200         1.07200         0.00500
| 73>    H       -0.18300        -1.08000        -0.02100
| 74>    H       -5.86400        -4.96200         1.89500
| 75>    H       -4.79400         2.27200         0.13900
| 76>    H       -4.80000        -2.16000        -1.99400
| 77>    H       -6.84100        -3.58200        -1.89300
| 78>    H       -8.42800        -4.53600         0.54600
| 79>    H       -7.95600        -5.33700        -0.98100
| 80>    H       -7.45600        -6.03700         0.58400
| 81>    H       -5.28700        -0.34400         0.10000
| 82>    H       -3.78000        -3.60100         1.94700
| 83>    H        3.58700        -6.86800        -1.84300
| 84>    H       -2.27600        -4.77400        -0.05000
| 85>    H        3.71400        -3.72400         1.92600
| 86>    H        5.09200        -5.79500         1.87100
| 87>    H        6.20500        -7.32900        -0.43900
| 88>    H        5.39300        -7.91700         1.04200
| 89>    H        4.75900        -8.37300        -0.56400
| 90>    H        0.32900        -5.29000        -0.00800
| 91>    H        2.14600        -4.84200        -1.94000
| 92>    H        5.80800         4.98600        -1.95600
| 93>    H        4.78800        -2.28100        -0.18500
| 94>    H        4.86000         2.11400         1.91200
| 95>    H        6.90100         3.53100         1.77200
| 96>    H        7.38300         6.10900         0.35600
| 97>    H        8.41400         4.65200         0.43500
| 98>    H        7.92100         5.31000        -1.15000
| 99>    H        5.28300         0.33600        -0.17900
|100>    H        3.72000         3.63200        -1.96700
|101> *
|102>
|103>                          ****END OF INPUT****

CARTESIAN COORDINATES (ANGSTROEM)
---------------------------------
  C     -4.916000    5.215000   -0.258000
  C      1.474000    4.041000    0.057000
  C     -2.802000    4.093000    0.049000
  C     -2.252000    5.336000    0.399000
  C     -3.044000    6.466000    0.412000
  C     -5.186000    7.620000    0.144000
  C      0.132000    4.307000    0.061000
  C     -0.569000    3.056000    0.047000
  C      1.649000    2.618000    0.023000
  C     -4.166000    4.056000   -0.280000
  N     -4.355000    6.397000    0.084000
  N      0.388000    2.067000    0.025000
  N     -2.010000    0.395000   -0.075000
  N     -0.388000   -2.074000   -0.027000
  N      2.010000   -0.401000    0.065000
  C     -1.960000    2.861000    0.024000
  C     -2.623000    1.615000   -0.018000
  C     -5.573000   -4.329000    1.066000
  C     -4.073000    1.471000    0.056000
  C     -4.106000   -2.756000   -0.026000
  C     -4.995000   -2.757000   -1.111000
  C     -6.132000   -3.542000   -1.076000
  C     -7.651000   -5.113000    0.040000
  C     -4.324000    0.141000    0.037000
  C     -3.025000   -0.520000   -0.048000
  C     -4.422000   -3.566000    1.075000
  N     -6.407000   -4.313000    0.001000
  C     -2.867000   -1.922000   -0.040000
  C     -1.650000   -2.624000   -0.027000
  C      3.568000   -6.142000   -1.040000
  C     -1.476000   -4.049000   -0.034000
  C      2.803000   -4.099000   -0.008000
  C      3.657000   -4.384000    1.069000
  C      4.427000   -5.530000    1.059000
  C      5.245000   -7.588000    0.014000
  C     -0.134000   -4.315000   -0.022000
  C      0.568000   -3.064000   -0.027000
  C      2.775000   -5.012000   -1.074000
  N      4.376000   -6.391000    0.017000
  C      1.959000   -2.869000   -0.009000
  C      2.621000   -1.622000    0.009000
  C      5.543000    4.339000   -1.130000
  C      4.070000   -1.479000   -0.094000
  C      4.104000    2.751000   -0.021000
  C      5.027000    2.729000    1.036000
  C      6.166000    3.509000    0.978000
  C      7.619000    5.153000   -0.115000
  C      4.321000   -0.148000   -0.092000
  C      3.025000    0.514000    0.015000
  C      4.387000    3.582000   -1.115000
  C      2.866000    1.916000    0.013000
  N      6.413000    4.296000   -0.095000
  H     -5.968000    5.235000   -0.516000
  H      2.274000    4.766000    0.081000
  H     -1.207000    5.427000    0.672000
  H     -2.667000    7.444000    0.684000
  H     -5.555000    7.749000    1.164000
  H     -4.574000    8.475000   -0.144000
  H     -6.022000    7.510000   -0.546000
  H     -0.332000    5.282000    0.069000
  H     -4.646000    3.129000   -0.572000
  H      0.182000    1.072000    0.005000
  H     -0.183000   -1.080000   -0.021000
  H     -5.864000   -4.962000    1.895000
  H     -4.794000    2.272000    0.139000
  H     -4.800000   -2.160000   -1.994000
  H     -6.841000   -3.582000   -1.893000
  H     -8.428000   -4.536000    0.546000
  H     -7.956000   -5.337000   -0.981000
  H     -7.456000   -6.037000    0.584000
  H     -5.287000   -0.344000    0.100000
  H     -3.780000   -3.601000    1.947000
  H      3.587000   -6.868000   -1.843000
  H     -2.276000   -4.774000   -0.050000
  H      3.714000   -3.724000    1.926000
  H      5.092000   -5.795000    1.871000
  H      6.205000   -7.329000   -0.439000
  H      5.393000   -7.917000    1.042000
  H      4.759000   -8.373000   -0.564000
  H      0.329000   -5.290000   -0.008000
  H      2.146000   -4.842000   -1.940000
  H      5.808000    4.986000   -1.956000
  H      4.788000   -2.281000   -0.185000
  H      4.860000    2.114000    1.912000
  H      6.901000    3.531000    1.772000
  H      7.383000    6.109000    0.356000
  H      8.414000    4.652000    0.435000
  H      7.921000    5.310000   -1.150000
  H      5.283000    0.336000   -0.179000
  H      3.720000    3.632000   -1.967000

 Total Charge           Charge          ....    0
 Multiplicity           Mult            ....    1
 Number of Electrons    NEL             ....  358
 Basis Dimension        Dim             ....  918

ORBITAL ENERGIES
----------------

  NO   OCC          E(Eh)            E(eV)
   0   2.0000     -15.679545      -426.6621
   1   2.0000     -15.635816      -425.4722
   2   2.0000     -15.630160      -425.3183
   3   2.0000     -15.587270      -424.1512
   4   2.0000     -15.525653      -422.4745
   5   2.0000     -15.515461      -422.1971
   6   2.0000     -15.453353      -420.5071
   7   2.0000     -15.440708      -420.1630
   8   2.0000     -11.329448      -308.2900
   9   2.0000     -11.327893      -308.2476
  10   2.0000     -11.327772      -308.2443
  11   2.0000     -11.300464      -307.5012
  12   2.0000     -11.297320      -307.4157
  13   2.0000     -11.294517      -307.3394
  14   2.0000     -11.289770      -307.2103
  15   2.0000     -11.288228      -307.1683
  16   2.0000     -11.285143      -307.0843
  17   2.0000     -11.281832      -306.9942
  18   2.0000     -11.269863      -306.6686
  19   2.0000     -11.263212      -306.4876
  20   2.0000     -11.262234      -306.4610
  21   2.0000     -11.251251      -306.1621
  22   2.0000     -11.249518      -306.1149
  23   2.0000     -11.239532      -305.8432
  24   2.0000     -11.235011      -305.7202
  25   2.0000     -11.232540      -305.6530
  26   2.0000     -11.231900      -305.6355
  27   2.0000     -11.228505      -305.5432
  28   2.0000     -11.228193      -305.5347
  29   2.0000     -11.211853      -305.0900
  30   2.0000     -11.210350      -305.0491
  31   2.0000     -11.194087      -304.6066
  32   2.0000     -11.191483      -304.5357
  33   2.0000     -11.190459      -304.5079
  34   2.0000     -11.187997      -304.4409
  35   2.0000     -11.187543      -304.4285
  36   2.0000     -11.186214      -304.3924
  37   2.0000     -11.178098      -304.1715
  38   2.0000     -11.177294      -304.1496
  39   2.0000     -11.175288      -304.0951
  40   2.0000     -11.173596      -304.0490
  41   2.0000     -11.169472      -303.9368
  42   2.0000     -11.169435      -303.9358
  43   2.0000     -11.161155      -303.7105
  44   2.0000     -11.160397      -303.6898
  45   2.0000     -11.157523      -303.6116
  46   2.0000     -11.155628      -303.5601
  47   2.0000     -11.153762      -303.5093
  48   2.0000     -11.145925      -303.2960
  49   2.0000     -11.134931      -302.9969
  50   2.0000     -11.130504      -302.8764
  51   2.0000     -11.118281      -302.5438
  52   2.0000      -1.360165       -37.0120
  53   2.0000      -1.322809       -35.9955
  54   2.0000      -1.318183       -35.8696
  55   2.0000      -1.280555       -34.8457
  56   2.0000      -1.226818       -33.3834
  57   2.0000      -1.209943       -32.9242
  58   2.0000      -1.172858       -31.9151
  59   2.0000      -1.151283       -31.3280
  60   2.0000      -1.143456       -31.1150
  61   2.0000      -1.111476       -30.2448
  62   2.0000      -1.107860       -30.1464
  63   2.0000      -1.081878       -29.4394
  64   2.0000      -1.077126       -29.3101
  65   2.0000      -1.046928       -28.4884
  66   2.0000      -1.042905       -28.3789
  67   2.0000      -1.041087       -28.3294
  68   2.0000      -1.015311       -27.6280
  69   2.0000      -1.012321       -27.5467
  70   2.0000      -1.008679       -27.4476
  71   2.0000      -0.994199       -27.0535
  72   2.0000      -0.985539       -26.8179
  73   2.0000      -0.981875       -26.7182
  74   2.0000      -0.972511       -26.4634
  75   2.0000      -0.961458       -26.1626
  76   2.0000      -0.954143       -25.9636
  77   2.0000      -0.945612       -25.7314
  78   2.0000      -0.935873       -25.4664
  79   2.0000      -0.917252       -24.9597
  80   2.0000      -0.910341       -24.7716
  81   2.0000      -0.896352       -24.3910
  82   2.0000      -0.876504       -23.8509
  83   2.0000      -0.873550       -23.7705
  84   2.0000      -0.869342       -23.6560
  85   2.0000      -0.858689       -23.3661
  86   2.0000      -0.840043       -22.8587
  87   2.0000      -0.836845       -22.7717
  88   2.0000      -0.826373       -22.4867
  89   2.0000      -0.796793       -21.6818
  90   2.0000      -0.789150       -21.4739
  91   2.0000      -0.757415       -20.6103
  92   2.0000      -0.752205       -20.4685
  93   2.0000      -0.734041       -19.9743
  94   2.0000      -0.726385       -19.7659
  95   2.0000      -0.723717       -19.6933
  96   2.0000      -0.718027       -19.5385
  97   2.0000      -0.715927       -19.4814
  98   2.0000      -0.710342       -19.3294
  99   2.0000      -0.698462       -19.0061
 100   2.0000      -0.696617       -18.9559
 101   2.0000      -0.687469       -18.7070
 102   2.0000      -0.684727       -18.6324
 103   2.0000      -0.684031       -18.6134
 104   2.0000      -0.679393       -18.4872
 105   2.0000      -0.673764       -18.3341
 106   2.0000      -0.671811       -18.2809
 107   2.0000      -0.660471       -17.9723
 108   2.0000      -0.656872       -17.8744
 109   2.0000      -0.654053       -17.7977
 110   2.0000      -0.650682       -17.7060
 111   2.0000      -0.645964       -17.5776
 112   2.0000      -0.644982       -17.5509
 113   2.0000      -0.637862       -17.3571
 114   2.0000      -0.636397       -17.3172
 115   2.0000      -0.627319       -17.0702
 116   2.0000      -0.621691       -16.9171
 117   2.0000      -0.620576       -16.8867
 118   2.0000      -0.613936       -16.7061
 119   2.0000      -0.613185       -16.6856
 120   2.0000      -0.611308       -16.6345
 121   2.0000      -0.610165       -16.6034
 122   2.0000      -0.600015       -16.3272
 123   2.0000      -0.587579       -15.9888
 124   2.0000      -0.582721       -15.8566
 125   2.0000      -0.580656       -15.8005
 126   2.0000      -0.579386       -15.7659
 127   2.0000      -0.571692       -15.5565
 128   2.0000      -0.569046       -15.4845
 129   2.0000      -0.559503       -15.2248
 130   2.0000      -0.553323       -15.0567
 131   2.0000      -0.548019       -14.9124
 132   2.0000      -0.543028       -14.7766
 133   2.0000      -0.542043       -14.7498
 134   2.0000      -0.539477       -14.6799
 135   2.0000      -0.535060       -14.5597
 136   2.0000      -0.530278       -14.4296
 137   2.0000      -0.518647       -14.1131
 138   2.0000      -0.518369       -14.1055
 139   2.0000      -0.514233       -13.9930
 140   2.0000      -0.511788       -13.9265
 141   2.0000      -0.510726       -13.8976
 142   2.0000      -0.509661       -13.8686
 143   2.0000      -0.504520       -13.7287
 144   2.0000      -0.500961       -13.6319
 145   2.0000      -0.495571       -13.4852
 146   2.0000      -0.490750       -13.3540
 147   2.0000      -0.481715       -13.1081
 148   2.0000      -0.477139       -12.9836
 149   2.0000      -0.467596       -12.7239
 150   2.0000      -0.466067       -12.6823
 151   2.0000      -0.456674       -12.4267
 152   2.0000      -0.450972       -12.2716
 153   2.0000      -0.445454       -12.1214
 154   2.0000      -0.439388       -11.9564
 155   2.0000      -0.427545       -11.6341
 156   2.0000      -0.409095       -11.1320
 157   2.0000      -0.405498       -11.0342
 158   2.0000      -0.398047       -10.8314
 159   2.0000      -0.387471       -10.5436
 160   2.0000      -0.385989       -10.5033
 161   2.0000      -0.377741       -10.2788
 162   2.0000      -0.371196       -10.1008
 163   2.0000      -0.357916        -9.7394
 164   2.0000      -0.354727        -9.6526
 165   2.0000      -0.341352        -9.2887
 166   2.0000      -0.337878        -9.1941
 167   2.0000      -0.325599        -8.8600
 168   2.0000      -0.320684        -8.7263
 169   2.0000      -0.306064        -8.3284
 170   2.0000      -0.299233        -8.1426
 171   2.0000      -0.285039        -7.7563
 172   2.0000      -0.279035        -7.5929
 173   2.0000      -0.263081        -7.1588
 174   2.0000      -0.241756        -6.5785
 175   2.0000      -0.190135        -5.1738
 176   2.0000      -0.180968        -4.9244
 177   2.0000      -0.079466        -2.1624
 178   2.0000      -0.059496        -1.6190
 179   0.0000       0.028182         0.7669
 180   0.0000       0.065189         1.7739
 181   0.0000       0.090426         2.4606
 182   0.0000       0.106377         2.8947
 183   0.0000       0.114541         3.1168

MULLIKEN ATOMIC CHARGES
-----------------------
   0 C :    0.214055
   1 N :   -0.456803
   2 C :   -0.076769
   3 N :   -0.340528
   4 C :   -0.063563
   5 N :   -0.566418
   6 C :   -0.123053
   7 N :   -0.340906
   8 C :    0.216396
   9 N :   -0.562555
  10 C :    0.119203
  11 N :   -0.438070
  12 C :   -0.059457
  13 N :   -0.429379
  14 C :    0.211673
  15 N :   -0.441308
  16 C :    0.233029
  17 C :   -0.119827
  18 C :   -0.155258
  19 C :    0.202576
  20 C :    0.214562
  21 C :   -0.075294
  22 C :   -0.089196
  23 C :   -0.039710
  24 C :    0.194411
  25 C :    0.114357
  26 C :   -0.089081
  27 C :    0.213945
  28 C :   -0.061515
  29 C :   -0.182638
  30 C :    0.246036
  31 C :    0.230930
  32 C :   -0.061282
  33 C :   -0.060359
  34 C :   -0.050393
  35 C :    0.227644
  36 C :    0.108250
  37 C :   -0.064264
  38 C :    0.231792
  39 C :   -0.058342
  40 C :   -0.180911
  41 C :    0.225022
  42 C :    0.196959
  43 C :   -0.072653
  44 C :   -0.090496
  45 C :   -0.061612
  46 C :    0.210788
  47 C :    0.115550
  48 C :   -0.067060
  49 C :    0.238330
  50 C :   -0.046245
  51 C :   -0.195276
  52 H :    0.036444
  53 H :   -0.017880
  54 H :    0.047073
  55 H :    0.034970
  56 H :    0.049204
  57 H :    0.047462
  58 H :    0.046474
  59 H :   -0.006459
  60 H :    0.050518
  61 H :    0.170990
  62 H :    0.175734
  63 H :    0.055970
  64 H :   -0.011014
  65 H :    0.047154
  66 H :    0.056114
  67 H :    0.063062
  68 H :    0.057524
  69 H :    0.056765
  70 H :   -0.029822
  71 H :    0.045492
  72 H :    0.071415
  73 H :   -0.007888
  74 H :    0.060531
  75 H :    0.070777
  76 H :    0.075056
  77 H :    0.068053
  78 H :    0.067269
  79 H :   -0.016308
  80 H :    0.061294
  81 H :    0.054037
  82 H :   -0.025264
  83 H :    0.041277
  84 H :    0.053614
  85 H :    0.060436
  86 H :    0.055188
  87 H :    0.056972
  88 H :   -0.014445
  89 H :    0.046918
Sum of atomic charges:   -0.0000000

LOEWDIN ATOMIC CHARGES
----------------------
   0 C :   -0.023624
   1 N :    0.118786
   2 C :   -0.102382
   3 N :    0.182998
   4 C :   -0.013606
   5 N :   -0.132622
   6 C :   -0.039075
   7 N :    0.175126
   8 C :   -0.019387
   9 N :   -0.140711
  10 C :    0.023169
  11 N :    0.142864
  12 C :   -0.111217
  13 N :    0.166336
  14 C :   -0.020896
  15 N :    0.138003
  16 C :   -0.059311
  17 C :   -0.039235
  18 C :   -0.107586
  19 C :   -0.077241
  20 C :    0.005787
  21 C :   -0.120387
  22 C :    0.038641
  23 C :   -0.014430
  24 C :   -0.011709
  25 C :    0.030034
  26 C :   -0.109171
  27 C :   -0.117286
  28 C :   -0.027157
  29 C :   -0.098704
  30 C :   -0.030380
  31 C :    0.024995
  32 C :   -0.093583
  33 C :    0.082067
  34 C :   -0.014638
  35 C :    0.022424
  36 C :    0.035255
  37 C :   -0.093978
  38 C :   -0.051016
  39 C :   -0.017982
  40 C :   -0.108350
  41 C :   -0.092727
  42 C :   -0.010948
  43 C :   -0.099496
  44 C :    0.032371
  45 C :   -0.028585
  46 C :    0.001035
  47 C :    0.029325
  48 C :   -0.095410
  49 C :   -0.068989
  50 C :   -0.018822
  51 C :   -0.109942
  52 H :    0.022539
  53 H :    0.002463
  54 H :    0.019959
  55 H :    0.022586
  56 H :    0.021733
  57 H :    0.026236
  58 H :    0.026631
  59 H :    0.009281
  60 H :    0.026510
  61 H :    0.060082
  62 H :    0.061981
  63 H :    0.031058
  64 H :    0.007476
  65 H :    0.045925
  66 H :    0.029465
  67 H :    0.028535
  68 H :    0.031762
  69 H :    0.030488
  70 H :   -0.004737
  71 H :    0.043780
  72 H :    0.037787
  73 H :    0.007185
  74 H :    0.050781
  75 H :    0.037373
  76 H :    0.034866
  77 H :    0.036212
  78 H :    0.035863
  79 H :    0.003096
  80 H :    0.050707
  81 H :    0.028927
  82 H :   -0.002933
  83 H :    0.042222
  84 H :    0.029617
  85 H :    0.027166
  86 H :    0.030012
  87 H :    0.031294
  88 H :    0.002411
  89 H :    0.045024

  Mayer bond orders larger than 0.100000
B(  0-C ,  1-N ) :   1.0900 B(  0-C , 17-C ) :   1.7190 B(  0-C , 52-H ) :   0.9632
B(  1-N ,  8-C ) :   1.0949 B(  1-N , 10-C ) :   0.9781 B(  2-C , 12-C ) :   1.4892
B(  2-C , 16-C ) :   1.3706 B(  2-C , 53-H ) :   0.9738 B(  3-N , 14-C ) :   1.2206
B(  3-N , 16-C ) :   1.1843 B(  3-N , 61-H ) :   0.8990 B(  4-C ,  6-C ) :   1.2143
B(  4-C , 17-C ) :   1.2145 B(  4-C , 18-C ) :   1.4692 B(  5-N , 19-C ) :   1.4570
B(  5-N , 27-C ) :   1.3729 B(  6-C ,  8-C ) :   1.7162 B(  6-C , 54-H ) :   0.9129
B(  7-N , 30-C ) :   1.1945 B(  7-N , 38-C ) :   1.1903 B(  7-N , 62-H ) :   0.8966
B(  8-C , 55-H ) :   0.9642 B(  9-N , 41-C ) :   1.3924 B(  9-N , 49-C ) :   1.4275
B( 10-C , 56-H ) :   0.9774 B( 10-C , 57-H ) :   0.9832 B( 10-C , 58-H ) :   0.9834
B( 11-N , 20-C ) :   1.1325 B( 11-N , 24-C ) :   1.1083 B( 11-N , 25-C ) :   0.9595
B( 12-C , 14-C ) :   1.3593 B( 12-C , 59-H ) :   0.9479 B( 13-N , 31-C ) :   1.1625
B( 13-N , 35-C ) :   1.1593 B( 13-N , 36-C ) :   0.9413 B( 14-C , 18-C ) :   1.1174
B( 15-N , 42-C ) :   1.1067 B( 15-N , 46-C ) :   1.1232 B( 15-N , 47-C ) :   0.9619
B( 16-C , 51-C ) :   1.1668 B( 17-C , 60-H ) :   0.9170 B( 18-C , 19-C ) :   1.1178
B( 19-C , 21-C ) :   1.2509 B( 20-C , 28-C ) :   1.6270 B( 20-C , 63-H ) :   0.9702
B( 21-C , 26-C ) :   1.5909 B( 21-C , 64-H ) :   0.9506 B( 22-C , 23-C ) :   1.2910
B( 22-C , 28-C ) :   1.2654 B( 22-C , 29-C ) :   1.2230 B( 23-C , 24-C ) :   1.6183
B( 23-C , 65-H ) :   0.9703 B( 24-C , 66-H ) :   0.9695 B( 25-C , 67-H ) :   0.9760
B( 25-C , 68-H ) :   0.9828 B( 25-C , 69-H ) :   0.9823 B( 26-C , 27-C ) :   1.2541
B( 26-C , 70-H ) :   0.9679 B( 27-C , 29-C ) :   1.2078 B( 28-C , 71-H ) :   0.9720
B( 29-C , 30-C ) :   1.2477 B( 30-C , 32-C ) :   1.2775 B( 31-C , 39-C ) :   1.5878
B( 31-C , 72-H ) :   0.9681 B( 32-C , 37-C ) :   1.5817 B( 32-C , 73-H ) :   0.9786
B( 33-C , 34-C ) :   1.3081 B( 33-C , 39-C ) :   1.3035 B( 33-C , 40-C ) :   1.1750
B( 34-C , 35-C ) :   1.5849 B( 34-C , 74-H ) :   0.9696 B( 35-C , 75-H ) :   0.9681
B( 36-C , 76-H ) :   0.9767 B( 36-C , 77-H ) :   0.9815 B( 36-C , 78-H ) :   0.9823
B( 37-C , 38-C ) :   1.2830 B( 37-C , 79-H ) :   0.9765 B( 38-C , 40-C ) :   1.2354
B( 39-C , 80-H ) :   0.9705 B( 40-C , 41-C ) :   1.2505 B( 41-C , 43-C ) :   1.1858
B( 42-C , 50-C ) :   1.6349 B( 42-C , 81-H ) :   0.9697 B( 43-C , 48-C ) :   1.6667
B( 43-C , 82-H ) :   0.9720 B( 44-C , 45-C ) :   1.2622 B( 44-C , 50-C ) :   1.2708
B( 44-C , 51-C ) :   1.2643 B( 45-C , 46-C ) :   1.6361 B( 45-C , 83-H ) :   0.9719
B( 46-C , 84-H ) :   0.9701 B( 47-C , 85-H ) :   0.9762 B( 47-C , 86-H ) :   0.9829
B( 47-C , 87-H ) :   0.9825 B( 48-C , 49-C ) :   1.1893 B( 48-C , 88-H ) :   0.9749
B( 49-C , 51-C ) :   1.2427 B( 50-C , 89-H ) :   0.9708

MP2 TOTAL ENERGY:    -2130.828909887 Eh
FINAL SINGLE POINT ENERGY     -2130.828909886672

DIPOLE MOMENT
-------------
                                X             Y             Z
Electronic contribution:      2.61026      -4.45575      -0.21892
Nuclear contribution   :      0.05125       0.21959       0.21535
                        -----------------------------------------
Total Dipole Moment    :      2.66151      -4.23616      -0.00357
                        -----------------------------------------
Magnitude (a.u.)       :      5.00287
Magnitude (Debye)      :     12.71628

Rotational constants in cm-1:     0.001501     0.001479     0.000760
Rotational constants in MHz :    45.001214    44.345614    22.787286

                             ****ORCA TERMINATED NORMALLY****
TOTAL RUN TIME: 0 days 1 hours 14 minutes 33 seconds 438 msec
