                         Program Version 5.0.4 -  RELEASE  -
|  1> ! PAL2
|  2> ! mp2 cc-pvdz TightSCF  NoKeepInts
|  3>
|  4> %scf
|  5>   MaxCore 2000
|  6> end
|  7> %mp2
|  8>   MaxCore 2000
|  9> end
| 10> * xyz 0 1
| 11>    C       -3.83200         5.97300        -1.06000
| 12>    C        1.47400         4.04100         0.05700
| 13>    C       -2.80200         4.09300         0.04900
| 14>    C       -3.36300         4.55800         1.24800
| 15>    C       -4.13600         5.70300         1.25400
| 16>    C       -5.22100         7.59600         0.14500
| 17>    C        0.13200         4.30700         0.06100
| 18>    C       -0.56900         3.05600         0.04700
| 19>    C        1.64900         2.61800         0.02300
| 20>    C       -3.05800         4.83000        -1.11800
| 21>    N       -4.35800         6.39400         0.11200
| 22>    N        0.38800         2.06700         0.02500
| 23>    N       -2.01000         0.39500        -0.07500
| 24>    N       -0.38800        -2.07400        -0.02700
| 25>    N        2.01000        -0.40100         0.06500
| 26>    C       -1.96000         2.86100         0.02400
| 27>    C       -2.62300         1.61500        -0.01800
| 28>    C       -5.57300        -4.32900         1.06600
| 29>    C       -4.07300         1.47100         0.05600
| 30>    C       -4.10600        -2.75600        -0.02600
| 31>    C       -4.99500        -2.75700        -1.11100
| 32>    C       -6.13200        -3.54200        -1.07600
| 33>    C       -7.65100        -5.11300         0.04000
| 34>    C       -4.32400         0.14100         0.03700
| 35>    C       -3.02500        -0.52000        -0.04800
| 36>    C       -4.42200        -3.56600         1.07500
| 37>    N       -6.40700        -4.31300         0.00100
| 38>    C       -2.86700        -1.92200        -0.04000
| 39>    C       -1.65000        -2.62400        -0.02700
| 40>    C        3.56800        -6.14200        -1.04000
| 41>    C       -1.47600        -4.04900        -0.03400
| 42>    C        2.80300        -4.09900        -0.00800
| 43>    C        3.65700        -4.38400         1.06900
| 44>    C        4.42700        -5.53000         1.05900
| 45>    C        5.24500        -7.58800         0.01400
| 46>    C       -0.13400        -4.31500        -0.02200
| 47>    C        0.56800        -3.06400        -0.02700
| 48>    C        2.77500        -5.01200        -1.07400
| 49>    N        4.37600        -6.39100         0.01700
| 50>    C        1.95900        -2.86900        -0.00900
| 51>    C        2.62100        -1.62200         0.00900
| 52>    C        5.54300         4.33900        -1.13000
| 53>    C        4.07000        -1.47900        -0.09400
| 54>    C        4.10400         2.75100        -0.02100
| 55>    C        5.02700         2.72900         1.03600
| 56>    C        6.16600         3.50900         0.97800
| 57>    C        7.61900         5.15300        -0.11500
| 58>    C        4.32100        -0.14800        -0.09200
| 59>    C        3.02500         0.51400         0.01500
| 60>    C        4.38700         3.58200        -1.11500
| 61>    C        2.86600         1.91600         0.01300
| 62>    N        6.41300         4.29600        -0.09500
| 63>    H       -4.04500         6.57900        -1.93200
| 64>    H        2.27400         4.76600         0.08100
| 65>    H       -3.21000         4.02800         2.18000
| 66>    H       -4.59600         6.09500         2.15100
| 67>    H       -6.26400         7.28800         0.03800
| 68>    H       -5.07700         8.10600         1.09700
| 69>    H       -4.93900         8.25300        -0.67700
| 70>    H       -0.33200         5.28200         0.06900
| 71>    H       -2.64100         4.53000        -2.07200
| 72>    H        0.18200         1.07200         0.00500
| 73>    H       -0.18300        -1.08000        -0.02100
| 74>    H       -5.86400        -4.96200         1.89500
| 75>    H       -4.79400         2.27200         0.13900
| 76>    H       -4.80000        -2.16000        -1.99400
| 77>    H       -6.84100        -3.58200        -1.89300
| 78>    H       -8.42800        -4.53600         0.54600
| 79>    H       -7.95600        -5.33700        -0.98100
| 80>    H       -7.45600        -6.03700         0.58400
| 81>    H       -5.28700        -0.34400         0.10000
| 82>    H       -3.78000        -3.60100         1.94700
| 83>    H        3.58700        -6.86800        -1.84300
| 84>    H       -2.27600        -4.77400        -0.05000
| 85>    H        3.71400        -3.72400         1.92600
| 86>    H        5.09200        -5.79500         1.87100
| 87>    H        6.20500        -7.32900        -0.43900
| 88>    H        5.39300        -7.91700         1.04200
| 89>    H        4.75900        -8.37300        -0.56400
| 90>    H        0.32900        -5.29000        -0.00800
| 91>    H        2.14600        -4.84200        -1.94000
| 92>    H        5.80800         4.98600        -1.95600
| 93>    H        4.78800        -2.28100        -0.18500
| 94>    H        4.86000         2.11400         1.91200
| 95>    H        6.90100         3.53100         1.77200
| 96>    H        7.38300         6.10900         0.35600
| 97>    H        8.41400         4.65200         0.43500
| 98>    H        7.92100         5.31000        -1.15000
| 99>    H        5.28300         0.33600        -0.17900
|100>    H        3.72000         3.63200        -1.96700
|101> *
|102>
|103>                          ****END OF INPUT****

CARTESIAN COORDINATES (ANGSTROEM)
---------------------------------
  C     -3.832000    5.973000   -1.060000
  C      1.474000    4.041000    0.057000
  C     -2.802000    4.093000    0.049000
  C     -3.363000    4.558000    1.248000
  C     -4.136000    5.703000    1.254000
  C     -5.221000    7.596000    0.145000
  C      0.132000    4.307000    0.061000
  C     -0.569000    3.056000    0.047000
  C      1.649000    2.618000    0.023000
  C     -3.058000    4.830000   -1.118000
  N     -4.358000    6.394000    0.112000
  N      0.388000    2.067000    0.025000
  N     -2.010000    0.395000   -0.075000
  N     -0.388000   -2.074000   -0.027000
  N      2.010000   -0.401000    0.065000
  C     -1.960000    2.861000    0.024000
  C     -2.623000    1.615000   -0.018000
  C     -5.573000   -4.329000    1.066000
  C     -4.073000    1.471000    0.056000
  C     -4.106000   -2.756000   -0.026000
  C     -4.995000   -2.757000   -1.111000
  C     -6.132000   -3.542000   -1.076000
  C     -7.651000   -5.113000    0.040000
  C     -4.324000    0.141000    0.037000
  C     -3.025000   -0.520000   -0.048000
  C     -4.422000   -3.566000    1.075000
  N     -6.407000   -4.313000    0.001000
  C     -2.867000   -1.922000   -0.040000
  C     -1.650000   -2.624000   -0.027000
  C      3.568000   -6.142000   -1.040000
  C     -1.476000   -4.049000   -0.034000
  C      2.803000   -4.099000   -0.008000
  C      3.657000   -4.384000    1.069000
  C      4.427000   -5.530000    1.059000
  C      5.245000   -7.588000    0.014000
  C     -0.134000   -4.315000   -0.022000
  C      0.568000   -3.064000   -0.027000
  C      2.775000   -5.012000   -1.074000
  N      4.376000   -6.391000    0.017000
  C      1.959000   -2.869000   -0.009000
  C      2.621000   -1.622000    0.009000
  C      5.543000    4.339000   -1.130000
  C      4.070000   -1.479000   -0.094000
  C      4.104000    2.751000   -0.021000
  C      5.027000    2.729000    1.036000
  C      6.166000    3.509000    0.978000
  C      7.619000    5.153000   -0.115000
  C      4.321000   -0.148000   -0.092000
  C      3.025000    0.514000    0.015000
  C      4.387000    3.582000   -1.115000
  C      2.866000    1.916000    0.013000
  N      6.413000    4.296000   -0.095000
  H     -4.045000    6.579000   -1.932000
  H      2.274000    4.766000    0.081000
  H     -3.210000    4.028000    2.180000
  H     -4.596000    6.095000    2.151000
  H     -6.264000    7.288000    0.038000
  H     -5.077000    8.106000    1.097000
  H     -4.939000    8.253000   -0.677000
  H     -0.332000    5.282000    0.069000
  H     -2.641000    4.530000   -2.072000
  H      0.182000    1.072000    0.005000
  H     -0.183000   -1.080000   -0.021000
  H     -5.864000   -4.962000    1.895000
  H     -4.794000    2.272000    0.139000
  H     -4.800000   -2.160000   -1.994000
  H     -6.841000   -3.582000   -1.893000
  H     -8.428000   -4.536000    0.546000
  H     -7.956000   -5.337000   -0.981000
  H     -7.456000   -6.037000    0.584000
  H     -5.287000   -0.344000    0.100000
  H     -3.780000   -3.601000    1.947000
  H      3.587000   -6.868000   -1.843000
  H     -2.276000   -4.774000   -0.050000
  H      3.714000   -3.724000    1.926000
  H      5.092000   -5.795000    1.871000
  H      6.205000   -7.329000   -0.439000
  H      5.393000   -7.917000    1.042000
  H      4.759000   -8.373000   -0.564000
  H      0.329000   -5.290000   -0.008000
  H      2.146000   -4.842000   -1.940000
  H      5.808000    4.986000   -1.956000
  H      4.788000   -2.281000   -0.185000
  H      4.860000    2.114000    1.912000
  H      6.901000    3.531000    1.772000
  H      7.383000    6.109000    0.356000
  H      8.414000    4.652000    0.435000
  H      7.921000    5.310000   -1.150000
  H      5.283000    0.336000   -0.179000
  H      3.720000    3.632000   -1.967000

 Total Charge           Charge          ....    0
 Multiplicity           Mult            ....    1
 Number of Electrons    NEL             ....  358
 Basis Dimension        Dim             ....  918

ORBITAL ENERGIES
----------------

  NO   OCC          E(Eh)            E(eV)
   0   2.0000     -15.710131      -427.4944
   1   2.0000     -15.629917      -425.3117
   2   2.0000     -15.620013      -425.0422
   3   2.0000     -15.581590      -423.9966
   4   2.0000     -15.520531      -422.3351
   5   2.0000     -15.505265      -421.9197
   6   2.0000     -15.450377      -420.4261
   7   2.0000     -15.428408      -419.8283
   8   2.0000     -11.350914      -308.8741
   9   2.0000     -11.349037      -308.8230
  10   2.0000     -11.344688      -308.7046
  11   2.0000     -11.305141      -307.6285
  12   2.0000     -11.297191      -307.4122
  13   2.0000     -11.291270      -307.2511
  14   2.0000     -11.290499      -307.2301
  15   2.0000     -11.282321      -307.0076
  16   2.0000     -11.282124      -307.0022
  17   2.0000     -11.281127      -306.9751
  18   2.0000     -11.280728      -306.9642
  19   2.0000     -11.272995      -306.7538
  20   2.0000     -11.266369      -306.5735
  21   2.0000     -11.247253      -306.0533
  22   2.0000     -11.243898      -305.9620
  23   2.0000     -11.233569      -305.6810
  24   2.0000     -11.227651      -305.5199
  25   2.0000     -11.226748      -305.4953
  26   2.0000     -11.224295      -305.4286
  27   2.0000     -11.220059      -305.3133
  28   2.0000     -11.219752      -305.3050
  29   2.0000     -11.209533      -305.0269
  30   2.0000     -11.208024      -304.9859
  31   2.0000     -11.192767      -304.5707
  32   2.0000     -11.192007      -304.5500
  33   2.0000     -11.191713      -304.5420
  34   2.0000     -11.191236      -304.5290
  35   2.0000     -11.190796      -304.5170
  36   2.0000     -11.187980      -304.4404
  37   2.0000     -11.181245      -304.2571
  38   2.0000     -11.181080      -304.2527
  39   2.0000     -11.175339      -304.0964
  40   2.0000     -11.167288      -303.8774
  41   2.0000     -11.164735      -303.8079
  42   2.0000     -11.164109      -303.7908
  43   2.0000     -11.161594      -303.7224
  44   2.0000     -11.159825      -303.6743
  45   2.0000     -11.147249      -303.3321
  46   2.0000     -11.146857      -303.3214
  47   2.0000     -11.141699      -303.1810
  48   2.0000     -11.140111      -303.1378
  49   2.0000     -11.132811      -302.9392
  50   2.0000     -11.119391      -302.5740
  51   2.0000     -11.114097      -302.4300
  52   2.0000      -1.384060       -37.6622
  53   2.0000      -1.317906       -35.8620
  54   2.0000      -1.308838       -35.6153
  55   2.0000      -1.276186       -34.7268
  56   2.0000      -1.223426       -33.2911
  57   2.0000      -1.201287       -32.6887
  58   2.0000      -1.175535       -31.9879
  59   2.0000      -1.159804       -31.5599
  60   2.0000      -1.139039       -30.9948
  61   2.0000      -1.106896       -30.1202
  62   2.0000      -1.102622       -30.0039
  63   2.0000      -1.098533       -29.8926
  64   2.0000      -1.069810       -29.1110
  65   2.0000      -1.052518       -28.6405
  66   2.0000      -1.042231       -28.3605
  67   2.0000      -1.033732       -28.1293
  68   2.0000      -1.014337       -27.6015
  69   2.0000      -1.004488       -27.3335
  70   2.0000      -1.003063       -27.2947
  71   2.0000      -0.993137       -27.0246
  72   2.0000      -0.984662       -26.7940
  73   2.0000      -0.977882       -26.6095
  74   2.0000      -0.963815       -26.2267
  75   2.0000      -0.961775       -26.1712
  76   2.0000      -0.951136       -25.8817
  77   2.0000      -0.941437       -25.6178
  78   2.0000      -0.928814       -25.2743
  79   2.0000      -0.921653       -25.0794
  80   2.0000      -0.913942       -24.8696
  81   2.0000      -0.889834       -24.2136
  82   2.0000      -0.884215       -24.0607
  83   2.0000      -0.869155       -23.6509
  84   2.0000      -0.861150       -23.4331
  85   2.0000      -0.847587       -23.0640
  86   2.0000      -0.831235       -22.6191
  87   2.0000      -0.828212       -22.5368
  88   2.0000      -0.821177       -22.3454
  89   2.0000      -0.794744       -21.6261
  90   2.0000      -0.787093       -21.4179
  91   2.0000      -0.767761       -20.8918
  92   2.0000      -0.733900       -19.9704
  93   2.0000      -0.733541       -19.9607
  94   2.0000      -0.728248       -19.8166
  95   2.0000      -0.722166       -19.6511
  96   2.0000      -0.716525       -19.4976
  97   2.0000      -0.706877       -19.2351
  98   2.0000      -0.705718       -19.2036
  99   2.0000      -0.701316       -19.0838
 100   2.0000      -0.695582       -18.9277
 101   2.0000      -0.689257       -18.7556
 102   2.0000      -0.684550       -18.6276
 103   2.0000      -0.674431       -18.3522
 104   2.0000      -0.673169       -18.3179
 105   2.0000      -0.668121       -18.1805
 106   2.0000      -0.665072       -18.0975
 107   2.0000      -0.663309       -18.0496
 108   2.0000      -0.652561       -17.7571
 109   2.0000      -0.650209       -17.6931
 110   2.0000      -0.648380       -17.6433
 111   2.0000      -0.643121       -17.5002
 112   2.0000      -0.640500       -17.4289
 113   2.0000      -0.636329       -17.3154
 114   2.0000      -0.630747       -17.1635
 115   2.0000      -0.629139       -17.1197
 116   2.0000      -0.626159       -17.0387
 117   2.0000      -0.617840       -16.8123
 118   2.0000      -0.611887       -16.6503
 119   2.0000      -0.610093       -16.6015
 120   2.0000      -0.609163       -16.5762
 121   2.0000      -0.601810       -16.3761
 122   2.0000      -0.590321       -16.0634
 123   2.0000      -0.587075       -15.9751
 124   2.0000      -0.585439       -15.9306
 125   2.0000      -0.578840       -15.7510
 126   2.0000      -0.575712       -15.6659
 127   2.0000      -0.573560       -15.6074
 128   2.0000      -0.571764       -15.5585
 129   2.0000      -0.565164       -15.3789
 130   2.0000      -0.556540       -15.1442
 131   2.0000      -0.546215       -14.8633
 132   2.0000      -0.541805       -14.7433
 133   2.0000      -0.539513       -14.6809
 134   2.0000      -0.533776       -14.5248
 135   2.0000      -0.530069       -14.4239
 136   2.0000      -0.518737       -14.1156
 137   2.0000      -0.516175       -14.0458
 138   2.0000      -0.513459       -13.9719
 139   2.0000      -0.512760       -13.9529
 140   2.0000      -0.510161       -13.8822
 141   2.0000      -0.503111       -13.6904
 142   2.0000      -0.501471       -13.6457
 143   2.0000      -0.499367       -13.5885
 144   2.0000      -0.495575       -13.4853
 145   2.0000      -0.493622       -13.4321
 146   2.0000      -0.489516       -13.3204
 147   2.0000      -0.475061       -12.9271
 148   2.0000      -0.472880       -12.8677
 149   2.0000      -0.465839       -12.6761
 150   2.0000      -0.461820       -12.5668
 151   2.0000      -0.460162       -12.5216
 152   2.0000      -0.451523       -12.2866
 153   2.0000      -0.440974       -11.9995
 154   2.0000      -0.434631       -11.8269
 155   2.0000      -0.432884       -11.7794
 156   2.0000      -0.419675       -11.4199
 157   2.0000      -0.414636       -11.2828
 158   2.0000      -0.413153       -11.2425
 159   2.0000      -0.404184       -10.9984
 160   2.0000      -0.381593       -10.3837
 161   2.0000      -0.370375       -10.0784
 162   2.0000      -0.354059        -9.6344
 163   2.0000      -0.353100        -9.6083
 164   2.0000      -0.346701        -9.4342
 165   2.0000      -0.340349        -9.2614
 166   2.0000      -0.338762        -9.2182
 167   2.0000      -0.320444        -8.7197
 168   2.0000      -0.313721        -8.5368
 169   2.0000      -0.303498        -8.2586
 170   2.0000      -0.298186        -8.1141
 171   2.0000      -0.283268        -7.7081
 172   2.0000      -0.276515        -7.5244
 173   2.0000      -0.265521        -7.2252
 174   2.0000      -0.231230        -6.2921
 175   2.0000      -0.183506        -4.9935
 176   2.0000      -0.173667        -4.7257
 177   2.0000      -0.062565        -1.7025
 178   2.0000      -0.050801        -1.3824
 179   0.0000       0.035263         0.9596
 180   0.0000       0.056378         1.5341
 181   0.0000       0.079802         2.1715
 182   0.0000       0.098261         2.6738
 183   0.0000       0.101847         2.7714

MULLIKEN ATOMIC CHARGES
-----------------------
   0 C :    0.236099
   1 N :   -0.414065
   2 C :   -0.066060
   3 N :   -0.343086
   4 C :   -0.067347
   5 N :   -0.566100
   6 C :   -0.027209
   7 N :   -0.336731
   8 C :    0.231626
   9 N :   -0.566259
  10 C :    0.103989
  11 N :   -0.439809
  12 C :   -0.059430
  13 N :   -0.450963
  14 C :    0.222421
  15 N :   -0.441609
  16 C :    0.255217
  17 C :   -0.034226
  18 C :   -0.181390
  19 C :    0.232946
  20 C :    0.188413
  21 C :   -0.069721
  22 C :   -0.091026
  23 C :   -0.067099
  24 C :    0.216900
  25 C :    0.114967
  26 C :   -0.065833
  27 C :    0.247545
  28 C :   -0.040022
  29 C :   -0.197380
  30 C :    0.221103
  31 C :    0.187694
  32 C :   -0.065262
  33 C :   -0.102471
  34 C :   -0.050917
  35 C :    0.178967
  36 C :    0.120978
  37 C :   -0.070651
  38 C :    0.243921
  39 C :   -0.064968
  40 C :   -0.204558
  41 C :    0.217035
  42 C :    0.212084
  43 C :   -0.077110
  44 C :   -0.092325
  45 C :   -0.038358
  46 C :    0.184163
  47 C :    0.116732
  48 C :   -0.081459
  49 C :    0.208149
  50 C :   -0.067400
  51 C :   -0.188321
  52 H :    0.081354
  53 H :   -0.006988
  54 H :    0.067108
  55 H :    0.079630
  56 H :    0.084258
  57 H :    0.075807
  58 H :    0.073862
  59 H :   -0.028400
  60 H :    0.066006
  61 H :    0.177234
  62 H :    0.167715
  63 H :    0.052469
  64 H :   -0.034164
  65 H :    0.040739
  66 H :    0.054694
  67 H :    0.057958
  68 H :    0.055863
  69 H :    0.058788
  70 H :   -0.013683
  71 H :    0.046348
  72 H :    0.037479
  73 H :   -0.019583
  74 H :    0.029366
  75 H :    0.036215
  76 H :    0.046199
  77 H :    0.046075
  78 H :    0.045357
  79 H :   -0.011932
  80 H :    0.029234
  81 H :    0.050272
  82 H :   -0.022710
  83 H :    0.042737
  84 H :    0.049315
  85 H :    0.054278
  86 H :    0.056374
  87 H :    0.054409
  88 H :   -0.030147
  89 H :    0.038678
Sum of atomic charges:   -0.0000000

LOEWDIN ATOMIC CHARGES
----------------------
   0 C :    0.038491
   1 N :    0.190677
   2 C :   -0.098494
   3 N :    0.171747
   4 C :    0.114988
   5 N :   -0.148023
   6 C :   -0.008445
   7 N :    0.177633
   8 C :    0.035658
   9 N :   -0.138718
  10 C :    0.039918
  11 N :    0.139034
  12 C :   -0.097079
  13 N :    0.113544
  14 C :   -0.061123
  15 N :    0.134665
  16 C :   -0.017786
  17 C :   -0.011670
  18 C :   -0.120216
  19 C :   -0.089834
  20 C :   -0.018269
  21 C :   -0.099320
  22 C :    0.033108
  23 C :   -0.033806
  24 C :    0.007057
  25 C :    0.029188
  26 C :   -0.092198
  27 C :   -0.054954
  28 C :   -0.015125
  29 C :   -0.118924
  30 C :   -0.064763
  31 C :   -0.026691
  32 C :   -0.101701
  33 C :   -0.006112
  34 C :   -0.027064
  35 C :   -0.034483
  36 C :    0.023128
  37 C :   -0.110344
  38 C :   -0.029865
  39 C :   -0.034260
  40 C :   -0.113732
  41 C :   -0.092538
  42 C :    0.000665
  43 C :   -0.113761
  44 C :    0.026869
  45 C :   -0.014250
  46 C :   -0.023599
  47 C :    0.028188
  48 C :   -0.113872
  49 C :   -0.117330
  50 C :   -0.033645
  51 C :   -0.107577
  52 H :    0.041872
  53 H :    0.007734
  54 H :    0.055553
  55 H :    0.041251
  56 H :    0.039732
  57 H :    0.039531
  58 H :    0.039227
  59 H :   -0.000590
  60 H :    0.055002
  61 H :    0.062707
  62 H :    0.057674
  63 H :    0.028572
  64 H :   -0.005458
  65 H :    0.041711
  66 H :    0.029803
  67 H :    0.026224
  68 H :    0.030960
  69 H :    0.031171
  70 H :    0.003045
  71 H :    0.045310
  72 H :    0.022029
  73 H :    0.001611
  74 H :    0.037698
  75 H :    0.021090
  76 H :    0.020015
  77 H :    0.025914
  78 H :    0.025621
  79 H :    0.005465
  80 H :    0.036876
  81 H :    0.027935
  82 H :   -0.001212
  83 H :    0.044133
  84 H :    0.026761
  85 H :    0.024282
  86 H :    0.030348
  87 H :    0.030060
  88 H :   -0.005093
  89 H :    0.040452

  Mayer bond orders larger than 0.100000
B(  0-C ,  1-N ) :   1.2017 B(  0-C , 17-C ) :   1.5270 B(  0-C , 52-H ) :   0.9670
B(  1-N ,  8-C ) :   1.1947 B(  1-N , 10-C ) :   0.9278 B(  2-C , 12-C ) :   1.5770
B(  2-C , 16-C ) :   1.2774 B(  2-C , 53-H ) :   0.9792 B(  3-N , 14-C ) :   1.1771
B(  3-N , 16-C ) :   1.2022 B(  3-N , 61-H ) :   0.8953 B(  4-C ,  6-C ) :   1.3544
B(  4-C , 17-C ) :   1.3516 B(  4-C , 18-C ) :   1.0679 B(  5-N , 19-C ) :   1.3668
B(  5-N , 27-C ) :   1.4470 B(  6-C ,  8-C ) :   1.5251 B(  6-C , 54-H ) :   0.9705
B(  7-N , 30-C ) :   1.1853 B(  7-N , 38-C ) :   1.2145 B(  7-N , 62-H ) :   0.9013
B(  8-C , 55-H ) :   0.9678 B(  9-N , 41-C ) :   1.4348 B(  9-N , 49-C ) :   1.3924
B( 10-C , 56-H ) :   0.9766 B( 10-C , 57-H ) :   0.9806 B( 10-C , 58-H ) :   0.9818
B( 11-N , 20-C ) :   1.0986 B( 11-N , 24-C ) :   1.1339 B( 11-N , 25-C ) :   0.9621
B( 12-C , 14-C ) :   1.2772 B( 12-C , 59-H ) :   0.9768 B( 13-N , 31-C ) :   1.0836
B( 13-N , 35-C ) :   1.0743 B( 13-N , 36-C ) :   0.9813 B( 14-C , 18-C ) :   1.2562
B( 15-N , 42-C ) :   1.1260 B( 15-N , 46-C ) :   1.0906 B( 15-N , 47-C ) :   0.9661
B( 16-C , 51-C ) :   1.2429 B( 17-C , 60-H ) :   0.9711 B( 18-C , 19-C ) :   1.3070
B( 19-C , 21-C ) :   1.1646 B( 20-C , 28-C ) :   1.6289 B( 20-C , 63-H ) :   0.9709
B( 21-C , 26-C ) :   1.6806 B( 21-C , 64-H ) :   0.9716 B( 22-C , 23-C ) :   1.2571
B( 22-C , 28-C ) :   1.2793 B( 22-C , 29-C ) :   1.2567 B( 23-C , 24-C ) :   1.6340
B( 23-C , 65-H ) :   0.9722 B( 24-C , 66-H ) :   0.9690 B( 25-C , 67-H ) :   0.9763
B( 25-C , 68-H ) :   0.9834 B( 25-C , 69-H ) :   0.9819 B( 26-C , 27-C ) :   1.1740
B( 26-C , 70-H ) :   0.9756 B( 27-C , 29-C ) :   1.2420 B( 28-C , 71-H ) :   0.9709
B( 29-C , 30-C ) :   1.1749 B( 30-C , 32-C ) :   1.3511 B( 31-C , 39-C ) :   1.6822
B( 31-C , 72-H ) :   0.9708 B( 32-C , 37-C ) :   1.5086 B( 32-C , 73-H ) :   0.9771
B( 33-C , 34-C ) :   1.2342 B( 33-C , 39-C ) :   1.2271 B( 33-C , 40-C ) :   1.3531
B( 34-C , 35-C ) :   1.6808 B( 34-C , 74-H ) :   0.9710 B( 35-C , 75-H ) :   0.9708
B( 36-C , 76-H ) :   0.9755 B( 36-C , 77-H ) :   0.9826 B( 36-C , 78-H ) :   0.9838
B( 37-C , 38-C ) :   1.3456 B( 37-C , 79-H ) :   0.9792 B( 38-C , 40-C ) :   1.1782
B( 39-C , 80-H ) :   0.9721 B( 40-C , 41-C ) :   1.1717 B( 41-C , 43-C ) :   1.2524
B( 42-C , 50-C ) :   1.6414 B( 42-C , 81-H ) :   0.9696 B( 43-C , 48-C ) :   1.5988
B( 43-C , 82-H ) :   0.9756 B( 44-C , 45-C ) :   1.2810 B( 44-C , 50-C ) :   1.2500
B( 44-C , 51-C ) :   1.2463 B( 45-C , 46-C ) :   1.6325 B( 45-C , 83-H ) :   0.9703
B( 46-C , 84-H ) :   0.9709 B( 47-C , 85-H ) :   0.9759 B( 47-C , 86-H ) :   0.9826
B( 47-C , 87-H ) :   0.9830 B( 48-C , 49-C ) :   1.2469 B( 48-C , 88-H ) :   0.9727
B( 49-C , 51-C ) :   1.1942 B( 50-C , 89-H ) :   0.9722

MP2 TOTAL ENERGY:    -2130.876107146 Eh
FINAL SINGLE POINT ENERGY     -2130.876107145737

DIPOLE MOMENT
-------------
                                X             Y             Z
Electronic contribution:     -4.24141       4.96405      -0.14748
Nuclear contribution   :     -0.03524       0.16296       0.20010
                        -----------------------------------------
Total Dipole Moment    :     -4.27665       5.12700       0.05262
                        -----------------------------------------
Magnitude (a.u.)       :      6.67672
Magnitude (Debye)      :     16.97088

Rotational constants in cm-1:     0.001498     0.001472     0.000763
Rotational constants in MHz :    44.907318    44.140812    22.866266

                             ****ORCA TERMINATED NORMALLY****
TOTAL RUN TIME: 0 days 1 hours 34 minutes 27 seconds 21 msec
