                         Program Version 5.0.4 -  RELEASE  -
|  1> ! PAL2
|  2> ! mp2 cc-pvdz TightSCF  NoKeepInts
|  3>
|  4> %scf
|  5>   MaxCore 2000
|  6> end
|  7> %mp2
|  8>   MaxCore 2000
|  9> end
| 10> * xyz 0 1
| 11>    C       -4.66800         5.36100         0.90600
| 12>    C        1.47400         4.04100         0.05700
| 13>    C       -2.80200         4.09300         0.04900
| 14>    C       -2.52200         5.17500        -0.80000
| 15>    C       -3.31500         6.30500        -0.76700
| 16>    C       -5.17800         7.62600         0.11200
| 17>    C        0.13200         4.30700         0.06100
| 18>    C       -0.56900         3.05600         0.04700
| 19>    C        1.64900         2.61800         0.02300
| 20>    C       -3.90100         4.21200         0.91400
| 21>    N       -4.37200         6.38600         0.07400
| 22>    N        0.38800         2.06700         0.02500
| 23>    N       -2.01000         0.39500        -0.07500
| 24>    N       -0.38800        -2.07400        -0.02700
| 25>    N        2.01000        -0.40100         0.06500
| 26>    C       -1.96000         2.86100         0.02400
| 27>    C       -2.62300         1.61500        -0.01800
| 28>    C       -5.57300        -4.32900         1.06600
| 29>    C       -4.07300         1.47100         0.05600
| 30>    C       -4.10600        -2.75600        -0.02600
| 31>    C       -4.99500        -2.75700        -1.11100
| 32>    C       -6.13200        -3.54200        -1.07600
| 33>    C       -7.65100        -5.11300         0.04000
| 34>    C       -4.32400         0.14100         0.03700
| 35>    C       -3.02500        -0.52000        -0.04800
| 36>    C       -4.42200        -3.56600         1.07500
| 37>    N       -6.40700        -4.31300         0.00100
| 38>    C       -2.86700        -1.92200        -0.04000
| 39>    C       -1.65000        -2.62400        -0.02700
| 40>    C        3.56800        -6.14200        -1.04000
| 41>    C       -1.47600        -4.04900        -0.03400
| 42>    C        2.80300        -4.09900        -0.00800
| 43>    C        3.65700        -4.38400         1.06900
| 44>    C        4.42700        -5.53000         1.05900
| 45>    C        5.24500        -7.58800         0.01400
| 46>    C       -0.13400        -4.31500        -0.02200
| 47>    C        0.56800        -3.06400        -0.02700
| 48>    C        2.77500        -5.01200        -1.07400
| 49>    N        4.37600        -6.39100         0.01700
| 50>    C        1.95900        -2.86900        -0.00900
| 51>    C        2.62100        -1.62200         0.00900
| 52>    C        5.54300         4.33900        -1.13000
| 53>    C        4.07000        -1.47900        -0.09400
| 54>    C        4.10400         2.75100        -0.02100
| 55>    C        5.02700         2.72900         1.03600
| 56>    C        6.16600         3.50900         0.97800
| 57>    C        7.61900         5.15300        -0.11500
| 58>    C        4.32100        -0.14800        -0.09200
| 59>    C        3.02500         0.51400         0.01500
| 60>    C        4.38700         3.58200        -1.11500
| 61>    C        2.86600         1.91600         0.01300
| 62>    N        6.41300         4.29600        -0.09500
| 63>    H       -5.53200         5.49200         1.54600
| 64>    H        2.27400         4.76600         0.08100
| 65>    H       -1.68200         5.14700        -1.48300
| 66>    H       -3.13300         7.16700        -1.39600
| 67>    H       -4.71000         8.33400         0.79900
| 68>    H       -5.22000         8.04800        -0.89200
| 69>    H       -6.18300         7.38000         0.45500
| 70>    H       -0.33200         5.28200         0.06900
| 71>    H       -4.17700         3.40600         1.58300
| 72>    H        0.18200         1.07200         0.00500
| 73>    H       -0.18300        -1.08000        -0.02100
| 74>    H       -5.86400        -4.96200         1.89500
| 75>    H       -4.79400         2.27200         0.13900
| 76>    H       -4.80000        -2.16000        -1.99400
| 77>    H       -6.84100        -3.58200        -1.89300
| 78>    H       -8.42800        -4.53600         0.54600
| 79>    H       -7.95600        -5.33700        -0.98100
| 80>    H       -7.45600        -6.03700         0.58400
| 81>    H       -5.28700        -0.34400         0.10000
| 82>    H       -3.78000        -3.60100         1.94700
| 83>    H        3.58700        -6.86800        -1.84300
| 84>    H       -2.27600        -4.77400        -0.05000
| 85>    H        3.71400        -3.72400         1.92600
| 86>    H        5.09200        -5.79500         1.87100
| 87>    H        6.20500        -7.32900        -0.43900
| 88>    H        5.39300        -7.91700         1.04200
| 89>    H        4.75900        -8.37300        -0.56400
| 90>    H        0.32900        -5.29000        -0.00800
| 91>    H        2.14600        -4.84200        -1.94000
| 92>    H        5.80800         4.98600        -1.95600
| 93>    H        4.78800        -2.28100        -0.18500
| 94>    H        4.86000         2.11400         1.91200
| 95>    H        6.90100         3.53100         1.77200
| 96>    H        7.38300         6.10900         0.35600
| 97>    H        8.41400         4.65200         0.43500
| 98>    H        7.92100         5.31000        -1.15000
| 99>    H        5.28300         0.33600        -0.17900
|100>    H        3.72000         3.63200        -1.96700
|101> *
|102>
|103>                          ****END OF INPUT****

CARTESIAN COORDINATES (ANGSTROEM)
---------------------------------
  C     -4.668000    5.361000    0.906000
  C      1.474000    4.041000    0.057000
  C     -2.802000    4.093000    0.049000
  C     -2.522000    5.175000   -0.800000
  C     -3.315000    6.305000   -0.767000
  C     -5.178000    7.626000    0.112000
  C      0.132000    4.307000    0.061000
  C     -0.569000    3.056000    0.047000
  C      1.649000    2.618000    0.023000
  C     -3.901000    4.212000    0.914000
  N     -4.372000    6.386000    0.074000
  N      0.388000    2.067000    0.025000
  N     -2.010000    0.395000   -0.075000
  N     -0.388000   -2.074000   -0.027000
  N      2.010000   -0.401000    0.065000
  C     -1.960000    2.861000    0.024000
  C     -2.623000    1.615000   -0.018000
  C     -5.573000   -4.329000    1.066000
  C     -4.073000    1.471000    0.056000
  C     -4.106000   -2.756000   -0.026000
  C     -4.995000   -2.757000   -1.111000
  C     -6.132000   -3.542000   -1.076000
  C     -7.651000   -5.113000    0.040000
  C     -4.324000    0.141000    0.037000
  C     -3.025000   -0.520000   -0.048000
  C     -4.422000   -3.566000    1.075000
  N     -6.407000   -4.313000    0.001000
  C     -2.867000   -1.922000   -0.040000
  C     -1.650000   -2.624000   -0.027000
  C      3.568000   -6.142000   -1.040000
  C     -1.476000   -4.049000   -0.034000
  C      2.803000   -4.099000   -0.008000
  C      3.657000   -4.384000    1.069000
  C      4.427000   -5.530000    1.059000
  C      5.245000   -7.588000    0.014000
  C     -0.134000   -4.315000   -0.022000
  C      0.568000   -3.064000   -0.027000
  C      2.775000   -5.012000   -1.074000
  N      4.376000   -6.391000    0.017000
  C      1.959000   -2.869000   -0.009000
  C      2.621000   -1.622000    0.009000
  C      5.543000    4.339000   -1.130000
  C      4.070000   -1.479000   -0.094000
  C      4.104000    2.751000   -0.021000
  C      5.027000    2.729000    1.036000
  C      6.166000    3.509000    0.978000
  C      7.619000    5.153000   -0.115000
  C      4.321000   -0.148000   -0.092000
  C      3.025000    0.514000    0.015000
  C      4.387000    3.582000   -1.115000
  C      2.866000    1.916000    0.013000
  N      6.413000    4.296000   -0.095000
  H     -5.532000    5.492000    1.546000
  H      2.274000    4.766000    0.081000
  H     -1.682000    5.147000   -1.483000
  H     -3.133000    7.167000   -1.396000
  H     -4.710000    8.334000    0.799000
  H     -5.220000    8.048000   -0.892000
  H     -6.183000    7.380000    0.455000
  H     -0.332000    5.282000    0.069000
  H     -4.177000    3.406000    1.583000
  H      0.182000    1.072000    0.005000
  H     -0.183000   -1.080000   -0.021000
  H     -5.864000   -4.962000    1.895000
  H     -4.794000    2.272000    0.139000
  H     -4.800000   -2.160000   -1.994000
  H     -6.841000   -3.582000   -1.893000
  H     -8.428000   -4.536000    0.546000
  H     -7.956000   -5.337000   -0.981000
  H     -7.456000   -6.037000    0.584000
  H     -5.287000   -0.344000    0.100000
  H     -3.780000   -3.601000    1.947000
  H      3.587000   -6.868000   -1.843000
  H     -2.276000   -4.774000   -0.050000
  H      3.714000   -3.724000    1.926000
  H      5.092000   -5.795000    1.871000
  H      6.205000   -7.329000   -0.439000
  H      5.393000   -7.917000    1.042000
  H      4.759000   -8.373000   -0.564000
  H      0.329000   -5.290000   -0.008000
  H      2.146000   -4.842000   -1.940000
  H      5.808000    4.986000   -1.956000
  H      4.788000   -2.281000   -0.185000
  H      4.860000    2.114000    1.912000
  H      6.901000    3.531000    1.772000
  H      7.383000    6.109000    0.356000
  H      8.414000    4.652000    0.435000
  H      7.921000    5.310000   -1.150000
  H      5.283000    0.336000   -0.179000
  H      3.720000    3.632000   -1.967000

 Total Charge           Charge          ....    0
 Multiplicity           Mult            ....    1
 Number of Electrons    NEL             ....  358
 Basis Dimension        Dim             ....  918

ORBITAL ENERGIES
----------------

  NO   OCC          E(Eh)            E(eV)
   0   2.0000     -15.657057      -426.0502
   1   2.0000     -15.637226      -425.5106
   2   2.0000     -15.629711      -425.3061
   3   2.0000     -15.605508      -424.6475
   4   2.0000     -15.522196      -422.3804
   5   2.0000     -15.516348      -422.2213
   6   2.0000     -15.448551      -420.3764
   7   2.0000     -15.443030      -420.2262
   8   2.0000     -11.313859      -307.8658
   9   2.0000     -11.310813      -307.7829
  10   2.0000     -11.308781      -307.7276
  11   2.0000     -11.301314      -307.5244
  12   2.0000     -11.296840      -307.4026
  13   2.0000     -11.294417      -307.3367
  14   2.0000     -11.290646      -307.2341
  15   2.0000     -11.287923      -307.1600
  16   2.0000     -11.285741      -307.1006
  17   2.0000     -11.282452      -307.0111
  18   2.0000     -11.268476      -306.6308
  19   2.0000     -11.267662      -306.6087
  20   2.0000     -11.260621      -306.4171
  21   2.0000     -11.247283      -306.0541
  22   2.0000     -11.246372      -306.0293
  23   2.0000     -11.240653      -305.8737
  24   2.0000     -11.234346      -305.7021
  25   2.0000     -11.233365      -305.6754
  26   2.0000     -11.232581      -305.6541
  27   2.0000     -11.227912      -305.5270
  28   2.0000     -11.227782      -305.5235
  29   2.0000     -11.214450      -305.1607
  30   2.0000     -11.209642      -305.0299
  31   2.0000     -11.208004      -304.9853
  32   2.0000     -11.205378      -304.9138
  33   2.0000     -11.204585      -304.8923
  34   2.0000     -11.192015      -304.5502
  35   2.0000     -11.191489      -304.5359
  36   2.0000     -11.180936      -304.2487
  37   2.0000     -11.179077      -304.1982
  38   2.0000     -11.178532      -304.1833
  39   2.0000     -11.172646      -304.0232
  40   2.0000     -11.168616      -303.9135
  41   2.0000     -11.166236      -303.8487
  42   2.0000     -11.166016      -303.8428
  43   2.0000     -11.164506      -303.8016
  44   2.0000     -11.163474      -303.7736
  45   2.0000     -11.162528      -303.7478
  46   2.0000     -11.151644      -303.4517
  47   2.0000     -11.150561      -303.4222
  48   2.0000     -11.148364      -303.3624
  49   2.0000     -11.146509      -303.3119
  50   2.0000     -11.137981      -303.0799
  51   2.0000     -11.132499      -302.9307
  52   2.0000      -1.341012       -36.4908
  53   2.0000      -1.323983       -36.0274
  54   2.0000      -1.317638       -35.8548
  55   2.0000      -1.297673       -35.3115
  56   2.0000      -1.221722       -33.2448
  57   2.0000      -1.211750       -32.9734
  58   2.0000      -1.166202       -31.7340
  59   2.0000      -1.155399       -31.4400
  60   2.0000      -1.127246       -30.6739
  61   2.0000      -1.112336       -30.2682
  62   2.0000      -1.107060       -30.1246
  63   2.0000      -1.091070       -29.6895
  64   2.0000      -1.064057       -28.9545
  65   2.0000      -1.047957       -28.5164
  66   2.0000      -1.042331       -28.3633
  67   2.0000      -1.031122       -28.0582
  68   2.0000      -1.024602       -27.8809
  69   2.0000      -1.012576       -27.5536
  70   2.0000      -1.009702       -27.4754
  71   2.0000      -0.994144       -27.0520
  72   2.0000      -0.986018       -26.8309
  73   2.0000      -0.974925       -26.5291
  74   2.0000      -0.973213       -26.4825
  75   2.0000      -0.959360       -26.1055
  76   2.0000      -0.950948       -25.8766
  77   2.0000      -0.947651       -25.7869
  78   2.0000      -0.937656       -25.5149
  79   2.0000      -0.922400       -25.0998
  80   2.0000      -0.897037       -24.4096
  81   2.0000      -0.887851       -24.1597
  82   2.0000      -0.875150       -23.8140
  83   2.0000      -0.869941       -23.6723
  84   2.0000      -0.863473       -23.4963
  85   2.0000      -0.855642       -23.2832
  86   2.0000      -0.847634       -23.0653
  87   2.0000      -0.839785       -22.8517
  88   2.0000      -0.822261       -22.3749
  89   2.0000      -0.798747       -21.7350
  90   2.0000      -0.796105       -21.6631
  91   2.0000      -0.742327       -20.1997
  92   2.0000      -0.735683       -20.0189
  93   2.0000      -0.730724       -19.8840
  94   2.0000      -0.722158       -19.6509
  95   2.0000      -0.720469       -19.6050
  96   2.0000      -0.713254       -19.4086
  97   2.0000      -0.706457       -19.2237
  98   2.0000      -0.701244       -19.0818
  99   2.0000      -0.695105       -18.9148
 100   2.0000      -0.691487       -18.8163
 101   2.0000      -0.681431       -18.5427
 102   2.0000      -0.678814       -18.4715
 103   2.0000      -0.674807       -18.3624
 104   2.0000      -0.671126       -18.2623
 105   2.0000      -0.669427       -18.2160
 106   2.0000      -0.663787       -18.0626
 107   2.0000      -0.662008       -18.0141
 108   2.0000      -0.656054       -17.8521
 109   2.0000      -0.654888       -17.8204
 110   2.0000      -0.651574       -17.7302
 111   2.0000      -0.648573       -17.6486
 112   2.0000      -0.644655       -17.5419
 113   2.0000      -0.637150       -17.3377
 114   2.0000      -0.634331       -17.2610
 115   2.0000      -0.629557       -17.1311
 116   2.0000      -0.624569       -16.9954
 117   2.0000      -0.614954       -16.7337
 118   2.0000      -0.613971       -16.7070
 119   2.0000      -0.610714       -16.6184
 120   2.0000      -0.609524       -16.5860
 121   2.0000      -0.602413       -16.3925
 122   2.0000      -0.596790       -16.2395
 123   2.0000      -0.592129       -16.1126
 124   2.0000      -0.589334       -16.0366
 125   2.0000      -0.583537       -15.8789
 126   2.0000      -0.579180       -15.7603
 127   2.0000      -0.575537       -15.6612
 128   2.0000      -0.564613       -15.3639
 129   2.0000      -0.558807       -15.2059
 130   2.0000      -0.554199       -15.0805
 131   2.0000      -0.549325       -14.9479
 132   2.0000      -0.541262       -14.7285
 133   2.0000      -0.537274       -14.6200
 134   2.0000      -0.534799       -14.5526
 135   2.0000      -0.531099       -14.4519
 136   2.0000      -0.526475       -14.3261
 137   2.0000      -0.523752       -14.2520
 138   2.0000      -0.518230       -14.1018
 139   2.0000      -0.516560       -14.0563
 140   2.0000      -0.510747       -13.8981
 141   2.0000      -0.508218       -13.8293
 142   2.0000      -0.507217       -13.8021
 143   2.0000      -0.501584       -13.6488
 144   2.0000      -0.501172       -13.6376
 145   2.0000      -0.498248       -13.5580
 146   2.0000      -0.494429       -13.4541
 147   2.0000      -0.488496       -13.2927
 148   2.0000      -0.488219       -13.2851
 149   2.0000      -0.469384       -12.7726
 150   2.0000      -0.462669       -12.5899
 151   2.0000      -0.454711       -12.3733
 152   2.0000      -0.447899       -12.1880
 153   2.0000      -0.446970       -12.1627
 154   2.0000      -0.446253       -12.1432
 155   2.0000      -0.440325       -11.9818
 156   2.0000      -0.433823       -11.8049
 157   2.0000      -0.428859       -11.6698
 158   2.0000      -0.397018       -10.8034
 159   2.0000      -0.386583       -10.5195
 160   2.0000      -0.378075       -10.2880
 161   2.0000      -0.372304       -10.1309
 162   2.0000      -0.371019       -10.0959
 163   2.0000      -0.358640        -9.7591
 164   2.0000      -0.354046        -9.6341
 165   2.0000      -0.337439        -9.1822
 166   2.0000      -0.336750        -9.1634
 167   2.0000      -0.335911        -9.1406
 168   2.0000      -0.328294        -8.9333
 169   2.0000      -0.300333        -8.1725
 170   2.0000      -0.299558        -8.1514
 171   2.0000      -0.287876        -7.8335
 172   2.0000      -0.285817        -7.7775
 173   2.0000      -0.258613        -7.0372
 174   2.0000      -0.246676        -6.7124
 175   2.0000      -0.189106        -5.1458
 176   2.0000      -0.179227        -4.8770
 177   2.0000      -0.070331        -1.9138
 178   2.0000      -0.056168        -1.5284
 179   0.0000       0.029661         0.8071
 180   0.0000       0.069156         1.8818
 181   0.0000       0.092443         2.5155
 182   0.0000       0.102271         2.7829
 183   0.0000       0.121552         3.3076

MULLIKEN ATOMIC CHARGES
-----------------------
   0 C :    0.207846
   1 N :   -0.450089
   2 C :   -0.062804
   3 N :   -0.336041
   4 C :   -0.052447
   5 N :   -0.562792
   6 C :   -0.093657
   7 N :   -0.339009
   8 C :    0.203101
   9 N :   -0.562841
  10 C :    0.117315
  11 N :   -0.437695
  12 C :   -0.080644
  13 N :   -0.434799
  14 C :    0.243448
  15 N :   -0.441011
  16 C :    0.229278
  17 C :   -0.097107
  18 C :   -0.213151
  19 C :    0.238230
  20 C :    0.211248
  21 C :   -0.093372
  22 C :   -0.089207
  23 C :   -0.043770
  24 C :    0.199572
  25 C :    0.114136
  26 C :   -0.072972
  27 C :    0.216202
  28 C :   -0.057314
  29 C :   -0.181706
  30 C :    0.240722
  31 C :    0.220625
  32 C :   -0.063550
  33 C :   -0.071113
  34 C :   -0.050376
  35 C :    0.215832
  36 C :    0.111228
  37 C :   -0.065689
  38 C :    0.234328
  39 C :   -0.059678
  40 C :   -0.185291
  41 C :    0.223440
  42 C :    0.199965
  43 C :   -0.072853
  44 C :   -0.089560
  45 C :   -0.056989
  46 C :    0.207315
  47 C :    0.115549
  48 C :   -0.070630
  49 C :    0.232650
  50 C :   -0.049695
  51 C :   -0.190114
  52 H :    0.046507
  53 H :   -0.015157
  54 H :    0.047398
  55 H :    0.044421
  56 H :    0.053117
  57 H :    0.051489
  58 H :    0.051137
  59 H :   -0.003784
  60 H :    0.050446
  61 H :    0.171901
  62 H :    0.174192
  63 H :    0.056185
  64 H :   -0.011258
  65 H :    0.047651
  66 H :    0.057020
  67 H :    0.062738
  68 H :    0.057938
  69 H :    0.057744
  70 H :   -0.026825
  71 H :    0.046416
  72 H :    0.063816
  73 H :   -0.011035
  74 H :    0.053481
  75 H :    0.063012
  76 H :    0.068352
  77 H :    0.062994
  78 H :    0.062232
  79 H :   -0.015128
  80 H :    0.054096
  81 H :    0.053567
  82 H :   -0.024110
  83 H :    0.042451
  84 H :    0.053605
  85 H :    0.059888
  86 H :    0.055837
  87 H :    0.056739
  88 H :   -0.017909
  89 H :    0.044771
Sum of atomic charges:   -0.0000000

LOEWDIN ATOMIC CHARGES
----------------------
   0 C :   -0.013655
   1 N :    0.123435
   2 C :   -0.100840
   3 N :    0.181723
   4 C :    0.011000
   5 N :   -0.134857
   6 C :   -0.032461
   7 N :    0.176828
   8 C :   -0.017335
   9 N :   -0.139921
  10 C :    0.025798
  11 N :    0.143738
  12 C :   -0.106397
  13 N :    0.153732
  14 C :   -0.037007
  15 N :    0.138351
  16 C :   -0.053612
  17 C :   -0.034049
  18 C :   -0.104183
  19 C :   -0.084188
  20 C :    0.003120
  21 C :   -0.112089
  22 C :    0.039853
  23 C :   -0.016861
  24 C :   -0.006859
  25 C :    0.030214
  26 C :   -0.104409
  27 C :   -0.106714
  28 C :   -0.024413
  29 C :   -0.103255
  30 C :   -0.037846
  31 C :    0.012928
  32 C :   -0.096898
  33 C :    0.060746
  34 C :   -0.017305
  35 C :    0.008931
  36 C :    0.032419
  37 C :   -0.097868
  38 C :   -0.046605
  39 C :   -0.021488
  40 C :   -0.108487
  41 C :   -0.092590
  42 C :   -0.008469
  43 C :   -0.101784
  44 C :    0.033005
  45 C :   -0.025297
  46 C :   -0.001899
  47 C :    0.029332
  48 C :   -0.099421
  49 C :   -0.079270
  50 C :   -0.021296
  51 C :   -0.108575
  52 H :    0.026402
  53 H :    0.003773
  54 H :    0.040903
  55 H :    0.025591
  56 H :    0.023414
  57 H :    0.028105
  58 H :    0.028833
  59 H :    0.007088
  60 H :    0.042435
  61 H :    0.060264
  62 H :    0.061203
  63 H :    0.031011
  64 H :    0.002180
  65 H :    0.045881
  66 H :    0.030048
  67 H :    0.028432
  68 H :    0.031945
  69 H :    0.030898
  70 H :   -0.003132
  71 H :    0.044387
  72 H :    0.034203
  73 H :    0.005653
  74 H :    0.047783
  75 H :    0.033638
  76 H :    0.031392
  77 H :    0.033829
  78 H :    0.033497
  79 H :    0.003692
  80 H :    0.047568
  81 H :    0.028835
  82 H :   -0.002279
  83 H :    0.042986
  84 H :    0.029478
  85 H :    0.026919
  86 H :    0.030280
  87 H :    0.031180
  88 H :    0.000752
  89 H :    0.043982

  Mayer bond orders larger than 0.100000
B(  0-C ,  1-N ) :   1.0995 B(  0-C , 17-C ) :   1.6772 B(  0-C , 52-H ) :   0.9687
B(  1-N ,  8-C ) :   1.0960 B(  1-N , 10-C ) :   0.9717 B(  2-C , 12-C ) :   1.5218
B(  2-C , 16-C ) :   1.3416 B(  2-C , 53-H ) :   0.9768 B(  3-N , 14-C ) :   1.2122
B(  3-N , 16-C ) :   1.1936 B(  3-N , 61-H ) :   0.8988 B(  4-C ,  6-C ) :   1.2316
B(  4-C , 17-C ) :   1.2309 B(  4-C , 18-C ) :   1.3675 B(  5-N , 19-C ) :   1.4398
B(  5-N , 27-C ) :   1.3889 B(  6-C ,  8-C ) :   1.6764 B(  6-C , 54-H ) :   0.9677
B(  7-N , 30-C ) :   1.1949 B(  7-N , 38-C ) :   1.1962 B(  7-N , 62-H ) :   0.8975
B(  8-C , 55-H ) :   0.9693 B(  9-N , 41-C ) :   1.4004 B(  9-N , 49-C ) :   1.4212
B( 10-C , 56-H ) :   0.9766 B( 10-C , 57-H ) :   0.9820 B( 10-C , 58-H ) :   0.9841
B( 11-N , 20-C ) :   1.1288 B( 11-N , 24-C ) :   1.1149 B( 11-N , 25-C ) :   0.9589
B( 12-C , 14-C ) :   1.3429 B( 12-C , 59-H ) :   0.9745 B( 13-N , 31-C ) :   1.1422
B( 13-N , 35-C ) :   1.1373 B( 13-N , 36-C ) :   0.9507 B( 14-C , 18-C ) :   1.1583
B( 15-N , 42-C ) :   1.1111 B( 15-N , 46-C ) :   1.1187 B( 15-N , 47-C ) :   0.9620
B( 16-C , 51-C ) :   1.1833 B( 17-C , 60-H ) :   0.9673 B( 18-C , 19-C ) :   1.1685
B( 19-C , 21-C ) :   1.2275 B( 20-C , 28-C ) :   1.6251 B( 20-C , 63-H ) :   0.9702
B( 21-C , 26-C ) :   1.6294 B( 21-C , 64-H ) :   0.9700 B( 22-C , 23-C ) :   1.2881
B( 22-C , 28-C ) :   1.2696 B( 22-C , 29-C ) :   1.2231 B( 23-C , 24-C ) :   1.6180
B( 23-C , 65-H ) :   0.9706 B( 24-C , 66-H ) :   0.9693 B( 25-C , 67-H ) :   0.9761
B( 25-C , 68-H ) :   0.9828 B( 25-C , 69-H ) :   0.9822 B( 26-C , 27-C ) :   1.2244
B( 26-C , 70-H ) :   0.9722 B( 27-C , 29-C ) :   1.2248 B( 28-C , 71-H ) :   0.9717
B( 29-C , 30-C ) :   1.2258 B( 30-C , 32-C ) :   1.2975 B( 31-C , 39-C ) :   1.6098
B( 31-C , 72-H ) :   0.9689 B( 32-C , 37-C ) :   1.5611 B( 32-C , 73-H ) :   0.9782
B( 33-C , 34-C ) :   1.2913 B( 33-C , 39-C ) :   1.2853 B( 33-C , 40-C ) :   1.2126
B( 34-C , 35-C ) :   1.6067 B( 34-C , 74-H ) :   0.9701 B( 35-C , 75-H ) :   0.9689
B( 36-C , 76-H ) :   0.9765 B( 36-C , 77-H ) :   0.9818 B( 36-C , 78-H ) :   0.9827
B( 37-C , 38-C ) :   1.3004 B( 37-C , 79-H ) :   0.9772 B( 38-C , 40-C ) :   1.2195
B( 39-C , 80-H ) :   0.9710 B( 40-C , 41-C ) :   1.2353 B( 41-C , 43-C ) :   1.1989
B( 42-C , 50-C ) :   1.6338 B( 42-C , 81-H ) :   0.9697 B( 43-C , 48-C ) :   1.6531
B( 43-C , 82-H ) :   0.9729 B( 44-C , 45-C ) :   1.2666 B( 44-C , 50-C ) :   1.2693
B( 44-C , 51-C ) :   1.2589 B( 45-C , 46-C ) :   1.6343 B( 45-C , 83-H ) :   0.9715
B( 46-C , 84-H ) :   0.9701 B( 47-C , 85-H ) :   0.9761 B( 47-C , 86-H ) :   0.9829
B( 47-C , 87-H ) :   0.9825 B( 48-C , 49-C ) :   1.2009 B( 48-C , 88-H ) :   0.9744
B( 49-C , 51-C ) :   1.2310 B( 50-C , 89-H ) :   0.9712

MP2 TOTAL ENERGY:    -2130.910810812 Eh
FINAL SINGLE POINT ENERGY     -2130.910810812177

DIPOLE MOMENT
-------------
                                X             Y             Z
Electronic contribution:      1.14806      -2.64565      -0.13331
Nuclear contribution   :      0.07807       0.24090       0.14043
                        -----------------------------------------
Total Dipole Moment    :      1.22613      -2.40476       0.00712
                        -----------------------------------------
Magnitude (a.u.)       :      2.69932
Magnitude (Debye)      :      6.86112

Rotational constants in cm-1:     0.001499     0.001476     0.000761
Rotational constants in MHz :    44.947246    44.257237    22.824515

                             ****ORCA TERMINATED NORMALLY****
TOTAL RUN TIME: 0 days 1 hours 25 minutes 59 seconds 244 msec
