                         Program Version 5.0.4 -  RELEASE  -
|  1> ! PAL2
|  2> ! mp2 cc-pvdz TightSCF  NoKeepInts
|  3>
|  4> %scf
|  5>   MaxCore 2000
|  6> end
|  7> %mp2
|  8>   MaxCore 2000
|  9> end
| 10> * xyz 0 1
| 11>    C       -3.09600         6.44400         0.50900
| 12>    C        1.47400         4.04100         0.05700
| 13>    C       -2.80200         4.09300         0.04900
| 14>    C       -4.14300         4.05800        -0.36200
| 15>    C       -4.90900         5.20600        -0.32800
| 16>    C       -5.22100         7.59700         0.09500
| 17>    C        0.13200         4.30700         0.06100
| 18>    C       -0.56900         3.05600         0.04700
| 19>    C        1.64900         2.61800         0.02300
| 20>    C       -2.28800         5.32300         0.48700
| 21>    N       -4.38500         6.37600         0.10600
| 22>    N        0.38800         2.06700         0.02500
| 23>    N       -2.01000         0.39500        -0.07500
| 24>    N       -0.38800        -2.07400        -0.02700
| 25>    N        2.01000        -0.40100         0.06500
| 26>    C       -1.96000         2.86100         0.02400
| 27>    C       -2.62300         1.61500        -0.01800
| 28>    C       -5.57300        -4.32900         1.06600
| 29>    C       -4.07300         1.47100         0.05600
| 30>    C       -4.10600        -2.75600        -0.02600
| 31>    C       -4.99500        -2.75700        -1.11100
| 32>    C       -6.13200        -3.54200        -1.07600
| 33>    C       -7.65100        -5.11300         0.04000
| 34>    C       -4.32400         0.14100         0.03700
| 35>    C       -3.02500        -0.52000        -0.04800
| 36>    C       -4.42200        -3.56600         1.07500
| 37>    N       -6.40700        -4.31300         0.00100
| 38>    C       -2.86700        -1.92200        -0.04000
| 39>    C       -1.65000        -2.62400        -0.02700
| 40>    C        3.56800        -6.14200        -1.04000
| 41>    C       -1.47600        -4.04900        -0.03400
| 42>    C        2.80300        -4.09900        -0.00800
| 43>    C        3.65700        -4.38400         1.06900
| 44>    C        4.42700        -5.53000         1.05900
| 45>    C        5.24500        -7.58800         0.01400
| 46>    C       -0.13400        -4.31500        -0.02200
| 47>    C        0.56800        -3.06400        -0.02700
| 48>    C        2.77500        -5.01200        -1.07400
| 49>    N        4.37600        -6.39100         0.01700
| 50>    C        1.95900        -2.86900        -0.00900
| 51>    C        2.62100        -1.62200         0.00900
| 52>    C        5.54300         4.33900        -1.13000
| 53>    C        4.07000        -1.47900        -0.09400
| 54>    C        4.10400         2.75100        -0.02100
| 55>    C        5.02700         2.72900         1.03600
| 56>    C        6.16600         3.50900         0.97800
| 57>    C        7.61900         5.15300        -0.11500
| 58>    C        4.32100        -0.14800        -0.09200
| 59>    C        3.02500         0.51400         0.01500
| 60>    C        4.38700         3.58200        -1.11500
| 61>    C        2.86600         1.91600         0.01300
| 62>    N        6.41300         4.29600        -0.09500
| 63>    H       -2.74600         7.41000         0.85000
| 64>    H        2.27400         4.76600         0.08100
| 65>    H       -4.59500         3.14000        -0.72000
| 66>    H       -5.94500         5.23000        -0.64300
| 67>    H       -5.16400         8.05800        -0.89300
| 68>    H       -6.25100         7.31900         0.32000
| 69>    H       -4.84600         8.28500         0.85200
| 70>    H       -0.33200         5.28200         0.06900
| 71>    H       -1.26400         5.41200         0.83100
| 72>    H        0.18200         1.07200         0.00500
| 73>    H       -0.18300        -1.08000        -0.02100
| 74>    H       -5.86400        -4.96200         1.89500
| 75>    H       -4.79400         2.27200         0.13900
| 76>    H       -4.80000        -2.16000        -1.99400
| 77>    H       -6.84100        -3.58200        -1.89300
| 78>    H       -8.42800        -4.53600         0.54600
| 79>    H       -7.95600        -5.33700        -0.98100
| 80>    H       -7.45600        -6.03700         0.58400
| 81>    H       -5.28700        -0.34400         0.10000
| 82>    H       -3.78000        -3.60100         1.94700
| 83>    H        3.58700        -6.86800        -1.84300
| 84>    H       -2.27600        -4.77400        -0.05000
| 85>    H        3.71400        -3.72400         1.92600
| 86>    H        5.09200        -5.79500         1.87100
| 87>    H        6.20500        -7.32900        -0.43900
| 88>    H        5.39300        -7.91700         1.04200
| 89>    H        4.75900        -8.37300        -0.56400
| 90>    H        0.32900        -5.29000        -0.00800
| 91>    H        2.14600        -4.84200        -1.94000
| 92>    H        5.80800         4.98600        -1.95600
| 93>    H        4.78800        -2.28100        -0.18500
| 94>    H        4.86000         2.11400         1.91200
| 95>    H        6.90100         3.53100         1.77200
| 96>    H        7.38300         6.10900         0.35600
| 97>    H        8.41400         4.65200         0.43500
| 98>    H        7.92100         5.31000        -1.15000
| 99>    H        5.28300         0.33600        -0.17900
|100>    H        3.72000         3.63200        -1.96700
|101> *
|102>
|103>                          ****END OF INPUT****

CARTESIAN COORDINATES (ANGSTROEM)
---------------------------------
  C     -3.096000    6.444000    0.509000
  C      1.474000    4.041000    0.057000
  C     -2.802000    4.093000    0.049000
  C     -4.143000    4.058000   -0.362000
  C     -4.909000    5.206000   -0.328000
  C     -5.221000    7.597000    0.095000
  C      0.132000    4.307000    0.061000
  C     -0.569000    3.056000    0.047000
  C      1.649000    2.618000    0.023000
  C     -2.288000    5.323000    0.487000
  N     -4.385000    6.376000    0.106000
  N      0.388000    2.067000    0.025000
  N     -2.010000    0.395000   -0.075000
  N     -0.388000   -2.074000   -0.027000
  N      2.010000   -0.401000    0.065000
  C     -1.960000    2.861000    0.024000
  C     -2.623000    1.615000   -0.018000
  C     -5.573000   -4.329000    1.066000
  C     -4.073000    1.471000    0.056000
  C     -4.106000   -2.756000   -0.026000
  C     -4.995000   -2.757000   -1.111000
  C     -6.132000   -3.542000   -1.076000
  C     -7.651000   -5.113000    0.040000
  C     -4.324000    0.141000    0.037000
  C     -3.025000   -0.520000   -0.048000
  C     -4.422000   -3.566000    1.075000
  N     -6.407000   -4.313000    0.001000
  C     -2.867000   -1.922000   -0.040000
  C     -1.650000   -2.624000   -0.027000
  C      3.568000   -6.142000   -1.040000
  C     -1.476000   -4.049000   -0.034000
  C      2.803000   -4.099000   -0.008000
  C      3.657000   -4.384000    1.069000
  C      4.427000   -5.530000    1.059000
  C      5.245000   -7.588000    0.014000
  C     -0.134000   -4.315000   -0.022000
  C      0.568000   -3.064000   -0.027000
  C      2.775000   -5.012000   -1.074000
  N      4.376000   -6.391000    0.017000
  C      1.959000   -2.869000   -0.009000
  C      2.621000   -1.622000    0.009000
  C      5.543000    4.339000   -1.130000
  C      4.070000   -1.479000   -0.094000
  C      4.104000    2.751000   -0.021000
  C      5.027000    2.729000    1.036000
  C      6.166000    3.509000    0.978000
  C      7.619000    5.153000   -0.115000
  C      4.321000   -0.148000   -0.092000
  C      3.025000    0.514000    0.015000
  C      4.387000    3.582000   -1.115000
  C      2.866000    1.916000    0.013000
  N      6.413000    4.296000   -0.095000
  H     -2.746000    7.410000    0.850000
  H      2.274000    4.766000    0.081000
  H     -4.595000    3.140000   -0.720000
  H     -5.945000    5.230000   -0.643000
  H     -5.164000    8.058000   -0.893000
  H     -6.251000    7.319000    0.320000
  H     -4.846000    8.285000    0.852000
  H     -0.332000    5.282000    0.069000
  H     -1.264000    5.412000    0.831000
  H      0.182000    1.072000    0.005000
  H     -0.183000   -1.080000   -0.021000
  H     -5.864000   -4.962000    1.895000
  H     -4.794000    2.272000    0.139000
  H     -4.800000   -2.160000   -1.994000
  H     -6.841000   -3.582000   -1.893000
  H     -8.428000   -4.536000    0.546000
  H     -7.956000   -5.337000   -0.981000
  H     -7.456000   -6.037000    0.584000
  H     -5.287000   -0.344000    0.100000
  H     -3.780000   -3.601000    1.947000
  H      3.587000   -6.868000   -1.843000
  H     -2.276000   -4.774000   -0.050000
  H      3.714000   -3.724000    1.926000
  H      5.092000   -5.795000    1.871000
  H      6.205000   -7.329000   -0.439000
  H      5.393000   -7.917000    1.042000
  H      4.759000   -8.373000   -0.564000
  H      0.329000   -5.290000   -0.008000
  H      2.146000   -4.842000   -1.940000
  H      5.808000    4.986000   -1.956000
  H      4.788000   -2.281000   -0.185000
  H      4.860000    2.114000    1.912000
  H      6.901000    3.531000    1.772000
  H      7.383000    6.109000    0.356000
  H      8.414000    4.652000    0.435000
  H      7.921000    5.310000   -1.150000
  H      5.283000    0.336000   -0.179000
  H      3.720000    3.632000   -1.967000

 Total Charge           Charge          ....    0
 Multiplicity           Mult            ....    1
 Number of Electrons    NEL             ....  358
 Basis Dimension        Dim             ....  918

ORBITAL ENERGIES
----------------

  NO   OCC          E(Eh)            E(eV)
   0   2.0000     -15.678348      -426.6295
   1   2.0000     -15.635802      -425.4718
   2   2.0000     -15.630060      -425.3156
   3   2.0000     -15.587645      -424.1614
   4   2.0000     -15.525584      -422.4726
   5   2.0000     -15.515468      -422.1974
   6   2.0000     -15.453150      -420.5016
   7   2.0000     -15.441287      -420.1788
   8   2.0000     -11.328483      -308.2637
   9   2.0000     -11.327040      -308.2244
  10   2.0000     -11.326868      -308.2197
  11   2.0000     -11.300474      -307.5015
  12   2.0000     -11.297238      -307.4135
  13   2.0000     -11.294449      -307.3376
  14   2.0000     -11.289613      -307.2060
  15   2.0000     -11.288328      -307.1710
  16   2.0000     -11.285100      -307.0832
  17   2.0000     -11.280717      -306.9639
  18   2.0000     -11.270390      -306.6829
  19   2.0000     -11.262391      -306.4652
  20   2.0000     -11.261418      -306.4388
  21   2.0000     -11.253158      -306.2140
  22   2.0000     -11.249652      -306.1186
  23   2.0000     -11.239532      -305.8432
  24   2.0000     -11.234891      -305.7169
  25   2.0000     -11.232576      -305.6539
  26   2.0000     -11.231957      -305.6371
  27   2.0000     -11.228427      -305.5410
  28   2.0000     -11.228101      -305.5322
  29   2.0000     -11.211617      -305.0836
  30   2.0000     -11.210136      -305.0433
  31   2.0000     -11.195137      -304.6352
  32   2.0000     -11.191013      -304.5230
  33   2.0000     -11.189775      -304.4893
  34   2.0000     -11.188168      -304.4455
  35   2.0000     -11.187105      -304.4166
  36   2.0000     -11.185826      -304.3818
  37   2.0000     -11.182833      -304.3004
  38   2.0000     -11.181518      -304.2646
  39   2.0000     -11.174889      -304.0842
  40   2.0000     -11.173700      -304.0518
  41   2.0000     -11.169423      -303.9355
  42   2.0000     -11.169225      -303.9301
  43   2.0000     -11.160656      -303.6969
  44   2.0000     -11.160542      -303.6938
  45   2.0000     -11.157987      -303.6243
  46   2.0000     -11.155240      -303.5495
  47   2.0000     -11.155038      -303.5440
  48   2.0000     -11.146215      -303.3039
  49   2.0000     -11.136034      -303.0269
  50   2.0000     -11.131102      -302.8927
  51   2.0000     -11.119543      -302.5782
  52   2.0000      -1.359152       -36.9844
  53   2.0000      -1.322815       -35.9956
  54   2.0000      -1.318087       -35.8670
  55   2.0000      -1.281237       -34.8642
  56   2.0000      -1.226649       -33.3788
  57   2.0000      -1.209850       -32.9217
  58   2.0000      -1.172513       -31.9057
  59   2.0000      -1.151680       -31.3388
  60   2.0000      -1.142621       -31.0923
  61   2.0000      -1.111518       -30.2459
  62   2.0000      -1.107762       -30.1437
  63   2.0000      -1.080944       -29.4140
  64   2.0000      -1.077737       -29.3267
  65   2.0000      -1.046952       -28.4890
  66   2.0000      -1.042809       -28.3763
  67   2.0000      -1.040524       -28.3141
  68   2.0000      -1.015224       -27.6256
  69   2.0000      -1.011922       -27.5358
  70   2.0000      -1.008751       -27.4495
  71   2.0000      -0.993991       -27.0479
  72   2.0000      -0.985795       -26.8248
  73   2.0000      -0.981481       -26.7074
  74   2.0000      -0.971961       -26.4484
  75   2.0000      -0.961217       -26.1560
  76   2.0000      -0.953888       -25.9566
  77   2.0000      -0.945675       -25.7331
  78   2.0000      -0.935451       -25.4549
  79   2.0000      -0.917741       -24.9730
  80   2.0000      -0.909478       -24.7481
  81   2.0000      -0.895502       -24.3679
  82   2.0000      -0.875885       -23.8340
  83   2.0000      -0.873399       -23.7664
  84   2.0000      -0.869066       -23.6485
  85   2.0000      -0.857761       -23.3409
  86   2.0000      -0.839508       -22.8442
  87   2.0000      -0.836311       -22.7572
  88   2.0000      -0.825313       -22.4579
  89   2.0000      -0.797088       -21.6899
  90   2.0000      -0.789722       -21.4894
  91   2.0000      -0.753567       -20.5056
  92   2.0000      -0.748659       -20.3721
  93   2.0000      -0.733813       -19.9681
  94   2.0000      -0.725467       -19.7410
  95   2.0000      -0.722842       -19.6695
  96   2.0000      -0.717314       -19.5191
  97   2.0000      -0.714314       -19.4375
  98   2.0000      -0.709107       -19.2958
  99   2.0000      -0.698036       -18.9945
 100   2.0000      -0.696421       -18.9506
 101   2.0000      -0.685826       -18.6623
 102   2.0000      -0.683321       -18.5941
 103   2.0000      -0.682287       -18.5660
 104   2.0000      -0.679264       -18.4837
 105   2.0000      -0.673329       -18.3222
 106   2.0000      -0.671167       -18.2634
 107   2.0000      -0.660546       -17.9744
 108   2.0000      -0.656233       -17.8570
 109   2.0000      -0.654110       -17.7992
 110   2.0000      -0.650412       -17.6986
 111   2.0000      -0.645100       -17.5541
 112   2.0000      -0.644347       -17.5336
 113   2.0000      -0.637931       -17.3590
 114   2.0000      -0.636837       -17.3292
 115   2.0000      -0.627247       -17.0683
 116   2.0000      -0.621745       -16.9185
 117   2.0000      -0.620269       -16.8784
 118   2.0000      -0.613933       -16.7060
 119   2.0000      -0.613236       -16.6870
 120   2.0000      -0.610536       -16.6135
 121   2.0000      -0.609997       -16.5989
 122   2.0000      -0.599685       -16.3183
 123   2.0000      -0.586684       -15.9645
 124   2.0000      -0.582648       -15.8547
 125   2.0000      -0.580485       -15.7958
 126   2.0000      -0.579141       -15.7592
 127   2.0000      -0.572681       -15.5834
 128   2.0000      -0.569199       -15.4887
 129   2.0000      -0.559353       -15.2208
 130   2.0000      -0.551747       -15.0138
 131   2.0000      -0.547785       -14.9060
 132   2.0000      -0.542925       -14.7737
 133   2.0000      -0.542423       -14.7601
 134   2.0000      -0.539349       -14.6764
 135   2.0000      -0.534944       -14.5566
 136   2.0000      -0.529349       -14.4043
 137   2.0000      -0.519957       -14.1488
 138   2.0000      -0.518254       -14.1024
 139   2.0000      -0.514378       -13.9969
 140   2.0000      -0.511901       -13.9295
 141   2.0000      -0.510654       -13.8956
 142   2.0000      -0.509805       -13.8725
 143   2.0000      -0.503924       -13.7125
 144   2.0000      -0.501105       -13.6358
 145   2.0000      -0.495564       -13.4850
 146   2.0000      -0.491864       -13.3843
 147   2.0000      -0.482041       -13.1170
 148   2.0000      -0.477818       -13.0021
 149   2.0000      -0.467349       -12.7172
 150   2.0000      -0.465968       -12.6796
 151   2.0000      -0.457024       -12.4363
 152   2.0000      -0.450843       -12.2681
 153   2.0000      -0.445677       -12.1275
 154   2.0000      -0.440083       -11.9753
 155   2.0000      -0.427783       -11.6406
 156   2.0000      -0.415610       -11.3093
 157   2.0000      -0.408076       -11.1043
 158   2.0000      -0.406188       -11.0529
 159   2.0000      -0.387208       -10.5365
 160   2.0000      -0.386653       -10.5214
 161   2.0000      -0.377859       -10.2821
 162   2.0000      -0.371452       -10.1077
 163   2.0000      -0.357949        -9.7403
 164   2.0000      -0.354635        -9.6501
 165   2.0000      -0.341111        -9.2821
 166   2.0000      -0.337886        -9.1943
 167   2.0000      -0.325981        -8.8704
 168   2.0000      -0.321052        -8.7363
 169   2.0000      -0.305823        -8.3219
 170   2.0000      -0.299295        -8.1442
 171   2.0000      -0.285050        -7.7566
 172   2.0000      -0.279669        -7.6102
 173   2.0000      -0.262950        -7.1552
 174   2.0000      -0.242049        -6.5865
 175   2.0000      -0.190098        -5.1728
 176   2.0000      -0.180758        -4.9187
 177   2.0000      -0.078558        -2.1377
 178   2.0000      -0.059253        -1.6124
 179   0.0000       0.028191         0.7671
 180   0.0000       0.065367         1.7787
 181   0.0000       0.090654         2.4668
 182   0.0000       0.107135         2.9153
 183   0.0000       0.113388         3.0854

MULLIKEN ATOMIC CHARGES
-----------------------
   0 C :    0.217452
   1 N :   -0.456595
   2 C :   -0.074039
   3 N :   -0.339516
   4 C :   -0.057795
   5 N :   -0.565008
   6 C :   -0.116576
   7 N :   -0.340790
   8 C :    0.207632
   9 N :   -0.562489
  10 C :    0.119274
  11 N :   -0.438111
  12 C :   -0.069147
  13 N :   -0.429683
  14 C :    0.215155
  15 N :   -0.441308
  16 C :    0.231899
  17 C :   -0.128467
  18 C :   -0.155722
  19 C :    0.202087
  20 C :    0.214305
  21 C :   -0.082835
  22 C :   -0.089314
  23 C :   -0.039997
  24 C :    0.194631
  25 C :    0.114363
  26 C :   -0.085849
  27 C :    0.212933
  28 C :   -0.061281
  29 C :   -0.182341
  30 C :    0.245851
  31 C :    0.230419
  32 C :   -0.061352
  33 C :   -0.061004
  34 C :   -0.050331
  35 C :    0.226944
  36 C :    0.108412
  37 C :   -0.064290
  38 C :    0.231940
  39 C :   -0.058453
  40 C :   -0.180955
  41 C :    0.224865
  42 C :    0.197107
  43 C :   -0.072621
  44 C :   -0.090614
  45 C :   -0.061414
  46 C :    0.210555
  47 C :    0.115559
  48 C :   -0.067305
  49 C :    0.238138
  50 C :   -0.046389
  51 C :   -0.194820
  52 H :    0.037474
  53 H :   -0.017691
  54 H :    0.053203
  55 H :    0.035779
  56 H :    0.048622
  57 H :    0.048272
  58 H :    0.046300
  59 H :   -0.001994
  60 H :    0.048785
  61 H :    0.170930
  62 H :    0.175665
  63 H :    0.055959
  64 H :   -0.007162
  65 H :    0.046981
  66 H :    0.056081
  67 H :    0.063014
  68 H :    0.057500
  69 H :    0.056795
  70 H :   -0.029443
  71 H :    0.045526
  72 H :    0.071017
  73 H :   -0.007972
  74 H :    0.060155
  75 H :    0.070362
  76 H :    0.074697
  77 H :    0.067783
  78 H :    0.066996
  79 H :   -0.016189
  80 H :    0.060900
  81 H :    0.054046
  82 H :   -0.025195
  83 H :    0.041271
  84 H :    0.053570
  85 H :    0.060391
  86 H :    0.055192
  87 H :    0.056962
  88 H :   -0.014597
  89 H :    0.046899
Sum of atomic charges:   -0.0000000

LOEWDIN ATOMIC CHARGES
----------------------
   0 C :   -0.018041
   1 N :    0.117563
   2 C :   -0.102510
   3 N :    0.183139
   4 C :   -0.013582
   5 N :   -0.131739
   6 C :   -0.038388
   7 N :    0.175237
   8 C :   -0.026020
   9 N :   -0.140599
  10 C :    0.023387
  11 N :    0.142802
  12 C :   -0.115119
  13 N :    0.165645
  14 C :   -0.024110
  15 N :    0.137987
  16 C :   -0.058982
  17 C :   -0.046561
  18 C :   -0.105155
  19 C :   -0.079360
  20 C :    0.005552
  21 C :   -0.122939
  22 C :    0.038389
  23 C :   -0.014666
  24 C :   -0.011550
  25 C :    0.030027
  26 C :   -0.109175
  27 C :   -0.116969
  28 C :   -0.026992
  29 C :   -0.098776
  30 C :   -0.030798
  31 C :    0.024385
  32 C :   -0.093635
  33 C :    0.080860
  34 C :   -0.014738
  35 C :    0.021640
  36 C :    0.035102
  37 C :   -0.094154
  38 C :   -0.050706
  39 C :   -0.018189
  40 C :   -0.108234
  41 C :   -0.092814
  42 C :   -0.010793
  43 C :   -0.099625
  44 C :    0.032206
  45 C :   -0.028453
  46 C :    0.000815
  47 C :    0.029319
  48 C :   -0.095650
  49 C :   -0.069458
  50 C :   -0.018924
  51 C :   -0.109897
  52 H :    0.022897
  53 H :    0.002561
  54 H :    0.034854
  55 H :    0.022619
  56 H :    0.021356
  57 H :    0.026652
  58 H :    0.026559
  59 H :    0.010924
  60 H :    0.031240
  61 H :    0.060001
  62 H :    0.061944
  63 H :    0.031044
  64 H :    0.008909
  65 H :    0.045835
  66 H :    0.029459
  67 H :    0.028511
  68 H :    0.031751
  69 H :    0.030500
  70 H :   -0.004536
  71 H :    0.043804
  72 H :    0.037600
  73 H :    0.007142
  74 H :    0.050623
  75 H :    0.037170
  76 H :    0.034679
  77 H :    0.036084
  78 H :    0.035735
  79 H :    0.003153
  80 H :    0.050532
  81 H :    0.028938
  82 H :   -0.002896
  83 H :    0.042228
  84 H :    0.029589
  85 H :    0.027144
  86 H :    0.030012
  87 H :    0.031289
  88 H :    0.002336
  89 H :    0.045005

  Mayer bond orders larger than 0.100000
B(  0-C ,  1-N ) :   1.0979 B(  0-C , 17-C ) :   1.7119 B(  0-C , 52-H ) :   0.9642
B(  1-N ,  8-C ) :   1.0843 B(  1-N , 10-C ) :   0.9783 B(  2-C , 12-C ) :   1.4959
B(  2-C , 16-C ) :   1.3653 B(  2-C , 53-H ) :   0.9746 B(  3-N , 14-C ) :   1.2194
B(  3-N , 16-C ) :   1.1868 B(  3-N , 61-H ) :   0.8992 B(  4-C ,  6-C ) :   1.2127
B(  4-C , 17-C ) :   1.2118 B(  4-C , 18-C ) :   1.4600 B(  5-N , 19-C ) :   1.4558
B(  5-N , 27-C ) :   1.3750 B(  6-C ,  8-C ) :   1.7177 B(  6-C , 54-H ) :   0.9327
B(  7-N , 30-C ) :   1.1945 B(  7-N , 38-C ) :   1.1907 B(  7-N , 62-H ) :   0.8967
B(  8-C , 55-H ) :   0.9657 B(  9-N , 41-C ) :   1.3926 B(  9-N , 49-C ) :   1.4275
B( 10-C , 56-H ) :   0.9773 B( 10-C , 57-H ) :   0.9832 B( 10-C , 58-H ) :   0.9835
B( 11-N , 20-C ) :   1.1320 B( 11-N , 24-C ) :   1.1085 B( 11-N , 25-C ) :   0.9595
B( 12-C , 14-C ) :   1.3581 B( 12-C , 59-H ) :   0.9619 B( 13-N , 31-C ) :   1.1614
B( 13-N , 35-C ) :   1.1580 B( 13-N , 36-C ) :   0.9418 B( 14-C , 18-C ) :   1.1216
B( 15-N , 42-C ) :   1.1069 B( 15-N , 46-C ) :   1.1229 B( 15-N , 47-C ) :   0.9619
B( 16-C , 51-C ) :   1.1682 B( 17-C , 60-H ) :   0.9328 B( 18-C , 19-C ) :   1.1208
B( 19-C , 21-C ) :   1.2501 B( 20-C , 28-C ) :   1.6271 B( 20-C , 63-H ) :   0.9702
B( 21-C , 26-C ) :   1.5953 B( 21-C , 64-H ) :   0.9610 B( 22-C , 23-C ) :   1.2906
B( 22-C , 28-C ) :   1.2655 B( 22-C , 29-C ) :   1.2231 B( 23-C , 24-C ) :   1.6185
B( 23-C , 65-H ) :   0.9704 B( 24-C , 66-H ) :   0.9695 B( 25-C , 67-H ) :   0.9760
B( 25-C , 68-H ) :   0.9828 B( 25-C , 69-H ) :   0.9823 B( 26-C , 27-C ) :   1.2500
B( 26-C , 70-H ) :   0.9687 B( 27-C , 29-C ) :   1.2088 B( 28-C , 71-H ) :   0.9719
B( 29-C , 30-C ) :   1.2464 B( 30-C , 32-C ) :   1.2786 B( 31-C , 39-C ) :   1.5891
B( 31-C , 72-H ) :   0.9681 B( 32-C , 37-C ) :   1.5806 B( 32-C , 73-H ) :   0.9785
B( 33-C , 34-C ) :   1.3072 B( 33-C , 39-C ) :   1.3024 B( 33-C , 40-C ) :   1.1769
B( 34-C , 35-C ) :   1.5860 B( 34-C , 74-H ) :   0.9696 B( 35-C , 75-H ) :   0.9682
B( 36-C , 76-H ) :   0.9767 B( 36-C , 77-H ) :   0.9816 B( 36-C , 78-H ) :   0.9823
B( 37-C , 38-C ) :   1.2838 B( 37-C , 79-H ) :   0.9766 B( 38-C , 40-C ) :   1.2345
B( 39-C , 80-H ) :   0.9706 B( 40-C , 41-C ) :   1.2498 B( 41-C , 43-C ) :   1.1865
B( 42-C , 50-C ) :   1.6349 B( 42-C , 81-H ) :   0.9697 B( 43-C , 48-C ) :   1.6659
B( 43-C , 82-H ) :   0.9721 B( 44-C , 45-C ) :   1.2624 B( 44-C , 50-C ) :   1.2706
B( 44-C , 51-C ) :   1.2639 B( 45-C , 46-C ) :   1.6361 B( 45-C , 83-H ) :   0.9718
B( 46-C , 84-H ) :   0.9701 B( 47-C , 85-H ) :   0.9762 B( 47-C , 86-H ) :   0.9829
B( 47-C , 87-H ) :   0.9825 B( 48-C , 49-C ) :   1.1900 B( 48-C , 88-H ) :   0.9749
B( 49-C , 51-C ) :   1.2415 B( 50-C , 89-H ) :   0.9709

MP2 TOTAL ENERGY:    -2130.853727201 Eh
FINAL SINGLE POINT ENERGY     -2130.853727201033

DIPOLE MOMENT
-------------
                                X             Y             Z
Electronic contribution:      2.59397      -4.32923      -0.07072
Nuclear contribution   :     -0.02034       0.17420       0.08102
                        -----------------------------------------
Total Dipole Moment    :      2.57363      -4.15503       0.01030
                        -----------------------------------------
Magnitude (a.u.)       :      4.88753
Magnitude (Debye)      :     12.42312

Rotational constants in cm-1:     0.001503     0.001477     0.000760
Rotational constants in MHz :    45.056170    44.278263    22.791411

                             ****ORCA TERMINATED NORMALLY****
TOTAL RUN TIME: 0 days 1 hours 4 minutes 26 seconds 661 msec
