                         Program Version 5.0.4 -  RELEASE  -
|  1> ! PAL2
|  2> ! mp2 cc-pvdz TightSCF  NoKeepInts
|  3>
|  4> %scf
|  5>   MaxCore 2000
|  6> end
|  7> %mp2
|  8>   MaxCore 2000
|  9> end
| 10> * xyz 0 1
| 11>    C       -4.90800         5.20700         0.43400
| 12>    C        1.47400         4.04100         0.05700
| 13>    C       -2.80200         4.09300         0.04900
| 14>    C       -2.26800         5.33900        -0.31700
| 15>    C       -3.06300         6.46700        -0.29300
| 16>    C       -5.17800         7.62600         0.12700
| 17>    C        0.13200         4.30700         0.06100
| 18>    C       -0.56900         3.05600         0.04700
| 19>    C        1.64900         2.61800         0.02300
| 20>    C       -4.15200         4.05100         0.43200
| 21>    N       -4.36300         6.39200         0.07500
| 22>    N        0.38800         2.06700         0.02500
| 23>    N       -2.01000         0.39500        -0.07500
| 24>    N       -0.38800        -2.07400        -0.02700
| 25>    N        2.01000        -0.40100         0.06500
| 26>    C       -1.96000         2.86100         0.02400
| 27>    C       -2.62300         1.61500        -0.01800
| 28>    C       -5.57300        -4.32900         1.06600
| 29>    C       -4.07300         1.47100         0.05600
| 30>    C       -4.10600        -2.75600        -0.02600
| 31>    C       -4.99500        -2.75700        -1.11100
| 32>    C       -6.13200        -3.54200        -1.07600
| 33>    C       -7.65100        -5.11300         0.04000
| 34>    C       -4.32400         0.14100         0.03700
| 35>    C       -3.02500        -0.52000        -0.04800
| 36>    C       -4.42200        -3.56600         1.07500
| 37>    N       -6.40700        -4.31300         0.00100
| 38>    C       -2.86700        -1.92200        -0.04000
| 39>    C       -1.65000        -2.62400        -0.02700
| 40>    C        3.56800        -6.14200        -1.04000
| 41>    C       -1.47600        -4.04900        -0.03400
| 42>    C        2.80300        -4.09900        -0.00800
| 43>    C        3.65700        -4.38400         1.06900
| 44>    C        4.42700        -5.53000         1.05900
| 45>    C        5.24500        -7.58800         0.01400
| 46>    C       -0.13400        -4.31500        -0.02200
| 47>    C        0.56800        -3.06400        -0.02700
| 48>    C        2.77500        -5.01200        -1.07400
| 49>    N        4.37600        -6.39100         0.01700
| 50>    C        1.95900        -2.86900        -0.00900
| 51>    C        2.62100        -1.62200         0.00900
| 52>    C        5.54300         4.33900        -1.13000
| 53>    C        4.07000        -1.47900        -0.09400
| 54>    C        4.10400         2.75100        -0.02100
| 55>    C        5.02700         2.72900         1.03600
| 56>    C        6.16600         3.50900         0.97800
| 57>    C        7.61900         5.15300        -0.11500
| 58>    C        4.32100        -0.14800        -0.09200
| 59>    C        3.02500         0.51400         0.01500
| 60>    C        4.38700         3.58200        -1.11500
| 61>    C        2.86600         1.91600         0.01300
| 62>    N        6.41300         4.29600        -0.09500
| 63>    H       -5.95500         5.21900         0.71000
| 64>    H        2.27400         4.76600         0.08100
| 65>    H       -1.23100         5.43700        -0.61200
| 66>    H       -2.69400         7.45000        -0.55700
| 67>    H       -5.03900         8.10300         1.10000
| 68>    H       -4.85300         8.29500        -0.66900
| 69>    H       -6.22600         7.36000        -0.01300
| 70>    H       -0.33200         5.28200         0.06900
| 71>    H       -4.62600         3.11700         0.71100
| 72>    H        0.18200         1.07200         0.00500
| 73>    H       -0.18300        -1.08000        -0.02100
| 74>    H       -5.86400        -4.96200         1.89500
| 75>    H       -4.79400         2.27200         0.13900
| 76>    H       -4.80000        -2.16000        -1.99400
| 77>    H       -6.84100        -3.58200        -1.89300
| 78>    H       -8.42800        -4.53600         0.54600
| 79>    H       -7.95600        -5.33700        -0.98100
| 80>    H       -7.45600        -6.03700         0.58400
| 81>    H       -5.28700        -0.34400         0.10000
| 82>    H       -3.78000        -3.60100         1.94700
| 83>    H        3.58700        -6.86800        -1.84300
| 84>    H       -2.27600        -4.77400        -0.05000
| 85>    H        3.71400        -3.72400         1.92600
| 86>    H        5.09200        -5.79500         1.87100
| 87>    H        6.20500        -7.32900        -0.43900
| 88>    H        5.39300        -7.91700         1.04200
| 89>    H        4.75900        -8.37300        -0.56400
| 90>    H        0.32900        -5.29000        -0.00800
| 91>    H        2.14600        -4.84200        -1.94000
| 92>    H        5.80800         4.98600        -1.95600
| 93>    H        4.78800        -2.28100        -0.18500
| 94>    H        4.86000         2.11400         1.91200
| 95>    H        6.90100         3.53100         1.77200
| 96>    H        7.38300         6.10900         0.35600
| 97>    H        8.41400         4.65200         0.43500
| 98>    H        7.92100         5.31000        -1.15000
| 99>    H        5.28300         0.33600        -0.17900
|100>    H        3.72000         3.63200        -1.96700
|101> *
|102>
|103>                          ****END OF INPUT****

CARTESIAN COORDINATES (ANGSTROEM)
---------------------------------
  C     -4.908000    5.207000    0.434000
  C      1.474000    4.041000    0.057000
  C     -2.802000    4.093000    0.049000
  C     -2.268000    5.339000   -0.317000
  C     -3.063000    6.467000   -0.293000
  C     -5.178000    7.626000    0.127000
  C      0.132000    4.307000    0.061000
  C     -0.569000    3.056000    0.047000
  C      1.649000    2.618000    0.023000
  C     -4.152000    4.051000    0.432000
  N     -4.363000    6.392000    0.075000
  N      0.388000    2.067000    0.025000
  N     -2.010000    0.395000   -0.075000
  N     -0.388000   -2.074000   -0.027000
  N      2.010000   -0.401000    0.065000
  C     -1.960000    2.861000    0.024000
  C     -2.623000    1.615000   -0.018000
  C     -5.573000   -4.329000    1.066000
  C     -4.073000    1.471000    0.056000
  C     -4.106000   -2.756000   -0.026000
  C     -4.995000   -2.757000   -1.111000
  C     -6.132000   -3.542000   -1.076000
  C     -7.651000   -5.113000    0.040000
  C     -4.324000    0.141000    0.037000
  C     -3.025000   -0.520000   -0.048000
  C     -4.422000   -3.566000    1.075000
  N     -6.407000   -4.313000    0.001000
  C     -2.867000   -1.922000   -0.040000
  C     -1.650000   -2.624000   -0.027000
  C      3.568000   -6.142000   -1.040000
  C     -1.476000   -4.049000   -0.034000
  C      2.803000   -4.099000   -0.008000
  C      3.657000   -4.384000    1.069000
  C      4.427000   -5.530000    1.059000
  C      5.245000   -7.588000    0.014000
  C     -0.134000   -4.315000   -0.022000
  C      0.568000   -3.064000   -0.027000
  C      2.775000   -5.012000   -1.074000
  N      4.376000   -6.391000    0.017000
  C      1.959000   -2.869000   -0.009000
  C      2.621000   -1.622000    0.009000
  C      5.543000    4.339000   -1.130000
  C      4.070000   -1.479000   -0.094000
  C      4.104000    2.751000   -0.021000
  C      5.027000    2.729000    1.036000
  C      6.166000    3.509000    0.978000
  C      7.619000    5.153000   -0.115000
  C      4.321000   -0.148000   -0.092000
  C      3.025000    0.514000    0.015000
  C      4.387000    3.582000   -1.115000
  C      2.866000    1.916000    0.013000
  N      6.413000    4.296000   -0.095000
  H     -5.955000    5.219000    0.710000
  H      2.274000    4.766000    0.081000
  H     -1.231000    5.437000   -0.612000
  H     -2.694000    7.450000   -0.557000
  H     -5.039000    8.103000    1.100000
  H     -4.853000    8.295000   -0.669000
  H     -6.226000    7.360000   -0.013000
  H     -0.332000    5.282000    0.069000
  H     -4.626000    3.117000    0.711000
  H      0.182000    1.072000    0.005000
  H     -0.183000   -1.080000   -0.021000
  H     -5.864000   -4.962000    1.895000
  H     -4.794000    2.272000    0.139000
  H     -4.800000   -2.160000   -1.994000
  H     -6.841000   -3.582000   -1.893000
  H     -8.428000   -4.536000    0.546000
  H     -7.956000   -5.337000   -0.981000
  H     -7.456000   -6.037000    0.584000
  H     -5.287000   -0.344000    0.100000
  H     -3.780000   -3.601000    1.947000
  H      3.587000   -6.868000   -1.843000
  H     -2.276000   -4.774000   -0.050000
  H      3.714000   -3.724000    1.926000
  H      5.092000   -5.795000    1.871000
  H      6.205000   -7.329000   -0.439000
  H      5.393000   -7.917000    1.042000
  H      4.759000   -8.373000   -0.564000
  H      0.329000   -5.290000   -0.008000
  H      2.146000   -4.842000   -1.940000
  H      5.808000    4.986000   -1.956000
  H      4.788000   -2.281000   -0.185000
  H      4.860000    2.114000    1.912000
  H      6.901000    3.531000    1.772000
  H      7.383000    6.109000    0.356000
  H      8.414000    4.652000    0.435000
  H      7.921000    5.310000   -1.150000
  H      5.283000    0.336000   -0.179000
  H      3.720000    3.632000   -1.967000

 Total Charge           Charge          ....    0
 Multiplicity           Mult            ....    1
 Number of Electrons    NEL             ....  358
 Basis Dimension        Dim             ....  918

ORBITAL ENERGIES
----------------

  NO   OCC          E(Eh)            E(eV)
   0   2.0000     -15.678513      -426.6340
   1   2.0000     -15.633798      -425.4173
   2   2.0000     -15.631839      -425.3640
   3   2.0000     -15.588731      -424.1909
   4   2.0000     -15.525019      -422.4572
   5   2.0000     -15.515819      -422.2069
   6   2.0000     -15.453645      -420.5151
   7   2.0000     -15.439990      -420.1435
   8   2.0000     -11.328370      -308.2606
   9   2.0000     -11.327281      -308.2310
  10   2.0000     -11.327142      -308.2272
  11   2.0000     -11.299212      -307.4672
  12   2.0000     -11.298367      -307.4442
  13   2.0000     -11.292806      -307.2929
  14   2.0000     -11.291122      -307.2471
  15   2.0000     -11.286663      -307.1257
  16   2.0000     -11.286436      -307.1195
  17   2.0000     -11.280849      -306.9675
  18   2.0000     -11.270787      -306.6937
  19   2.0000     -11.262487      -306.4678
  20   2.0000     -11.261499      -306.4410
  21   2.0000     -11.252239      -306.1890
  22   2.0000     -11.251175      -306.1600
  23   2.0000     -11.237538      -305.7890
  24   2.0000     -11.236617      -305.7639
  25   2.0000     -11.231021      -305.6116
  26   2.0000     -11.230230      -305.5901
  27   2.0000     -11.229761      -305.5773
  28   2.0000     -11.229622      -305.5736
  29   2.0000     -11.210744      -305.0599
  30   2.0000     -11.209408      -305.0235
  31   2.0000     -11.195680      -304.6499
  32   2.0000     -11.191010      -304.5229
  33   2.0000     -11.190914      -304.5203
  34   2.0000     -11.188527      -304.4553
  35   2.0000     -11.188028      -304.4417
  36   2.0000     -11.186702      -304.4056
  37   2.0000     -11.181928      -304.2757
  38   2.0000     -11.177853      -304.1649
  39   2.0000     -11.174259      -304.0671
  40   2.0000     -11.172081      -304.0078
  41   2.0000     -11.170726      -303.9709
  42   2.0000     -11.168079      -303.8989
  43   2.0000     -11.161454      -303.7186
  44   2.0000     -11.160292      -303.6870
  45   2.0000     -11.157008      -303.5976
  46   2.0000     -11.156333      -303.5792
  47   2.0000     -11.154044      -303.5170
  48   2.0000     -11.147147      -303.3293
  49   2.0000     -11.136057      -303.0275
  50   2.0000     -11.129878      -302.8594
  51   2.0000     -11.117815      -302.5311
  52   2.0000      -1.359295       -36.9883
  53   2.0000      -1.321066       -35.9480
  54   2.0000      -1.319627       -35.9089
  55   2.0000      -1.281694       -34.8767
  56   2.0000      -1.225983       -33.3607
  57   2.0000      -1.210387       -32.9363
  58   2.0000      -1.173166       -31.9235
  59   2.0000      -1.150794       -31.3147
  60   2.0000      -1.142760       -31.0961
  61   2.0000      -1.110217       -30.2105
  62   2.0000      -1.108864       -30.1737
  63   2.0000      -1.081070       -29.4174
  64   2.0000      -1.078072       -29.3358
  65   2.0000      -1.045249       -28.4427
  66   2.0000      -1.044295       -28.4167
  67   2.0000      -1.040535       -28.3144
  68   2.0000      -1.014849       -27.6154
  69   2.0000      -1.013135       -27.5688
  70   2.0000      -1.009190       -27.4615
  71   2.0000      -0.993349       -27.0304
  72   2.0000      -0.985960       -26.8293
  73   2.0000      -0.981313       -26.7029
  74   2.0000      -0.972708       -26.4687
  75   2.0000      -0.961832       -26.1728
  76   2.0000      -0.954336       -25.9688
  77   2.0000      -0.945827       -25.7373
  78   2.0000      -0.936271       -25.4772
  79   2.0000      -0.917621       -24.9697
  80   2.0000      -0.909596       -24.7514
  81   2.0000      -0.895959       -24.3803
  82   2.0000      -0.876014       -23.8376
  83   2.0000      -0.872055       -23.7298
  84   2.0000      -0.870286       -23.6817
  85   2.0000      -0.858780       -23.3686
  86   2.0000      -0.842202       -22.9175
  87   2.0000      -0.835808       -22.7435
  88   2.0000      -0.826389       -22.4872
  89   2.0000      -0.796971       -21.6867
  90   2.0000      -0.789739       -21.4899
  91   2.0000      -0.756851       -20.5949
  92   2.0000      -0.751504       -20.4495
  93   2.0000      -0.733426       -19.9575
  94   2.0000      -0.726188       -19.7606
  95   2.0000      -0.722961       -19.6728
  96   2.0000      -0.718042       -19.5389
  97   2.0000      -0.715471       -19.4689
  98   2.0000      -0.711113       -19.3504
  99   2.0000      -0.697908       -18.9911
 100   2.0000      -0.696746       -18.9594
 101   2.0000      -0.689868       -18.7723
 102   2.0000      -0.684556       -18.6277
 103   2.0000      -0.683477       -18.5984
 104   2.0000      -0.678580       -18.4651
 105   2.0000      -0.674202       -18.3460
 106   2.0000      -0.671841       -18.2817
 107   2.0000      -0.660333       -17.9686
 108   2.0000      -0.657760       -17.8986
 109   2.0000      -0.652871       -17.7655
 110   2.0000      -0.651781       -17.7359
 111   2.0000      -0.645261       -17.5584
 112   2.0000      -0.644826       -17.5466
 113   2.0000      -0.637691       -17.3525
 114   2.0000      -0.637130       -17.3372
 115   2.0000      -0.628095       -17.0913
 116   2.0000      -0.622330       -16.9344
 117   2.0000      -0.621568       -16.9137
 118   2.0000      -0.612998       -16.6805
 119   2.0000      -0.612193       -16.6586
 120   2.0000      -0.611523       -16.6404
 121   2.0000      -0.610481       -16.6120
 122   2.0000      -0.600937       -16.3523
 123   2.0000      -0.587478       -15.9861
 124   2.0000      -0.581536       -15.8244
 125   2.0000      -0.580744       -15.8028
 126   2.0000      -0.579940       -15.7810
 127   2.0000      -0.571182       -15.5426
 128   2.0000      -0.568676       -15.4745
 129   2.0000      -0.559670       -15.2294
 130   2.0000      -0.553228       -15.0541
 131   2.0000      -0.547669       -14.9028
 132   2.0000      -0.542429       -14.7602
 133   2.0000      -0.541555       -14.7365
 134   2.0000      -0.538518       -14.6538
 135   2.0000      -0.536012       -14.5856
 136   2.0000      -0.530645       -14.4396
 137   2.0000      -0.520137       -14.1537
 138   2.0000      -0.516874       -14.0649
 139   2.0000      -0.514752       -14.0071
 140   2.0000      -0.512142       -13.9361
 141   2.0000      -0.510473       -13.8907
 142   2.0000      -0.508923       -13.8485
 143   2.0000      -0.504229       -13.7208
 144   2.0000      -0.502453       -13.6725
 145   2.0000      -0.496290       -13.5047
 146   2.0000      -0.489908       -13.3311
 147   2.0000      -0.482168       -13.1205
 148   2.0000      -0.478123       -13.0104
 149   2.0000      -0.467322       -12.7165
 150   2.0000      -0.466397       -12.6913
 151   2.0000      -0.456950       -12.4342
 152   2.0000      -0.451383       -12.2828
 153   2.0000      -0.444790       -12.1033
 154   2.0000      -0.439385       -11.9563
 155   2.0000      -0.427670       -11.6375
 156   2.0000      -0.412925       -11.2363
 157   2.0000      -0.406992       -11.0748
 158   2.0000      -0.392784       -10.6882
 159   2.0000      -0.386876       -10.5274
 160   2.0000      -0.386184       -10.5086
 161   2.0000      -0.378440       -10.2979
 162   2.0000      -0.369952       -10.0669
 163   2.0000      -0.356552        -9.7023
 164   2.0000      -0.355853        -9.6832
 165   2.0000      -0.341674        -9.2974
 166   2.0000      -0.337665        -9.1883
 167   2.0000      -0.324886        -8.8406
 168   2.0000      -0.321972        -8.7613
 169   2.0000      -0.305093        -8.3020
 170   2.0000      -0.299494        -8.1496
 171   2.0000      -0.285492        -7.7686
 172   2.0000      -0.279606        -7.6085
 173   2.0000      -0.263586        -7.1725
 174   2.0000      -0.241602        -6.5743
 175   2.0000      -0.189987        -5.1698
 176   2.0000      -0.180760        -4.9187
 177   2.0000      -0.078547        -2.1374
 178   2.0000      -0.059336        -1.6146
 179   0.0000       0.028315         0.7705
 180   0.0000       0.065498         1.7823
 181   0.0000       0.090489         2.4623
 182   0.0000       0.107066         2.9134
 183   0.0000       0.113807         3.0968

MULLIKEN ATOMIC CHARGES
-----------------------
   0 C :    0.211527
   1 N :   -0.456158
   2 C :   -0.071696
   3 N :   -0.339887
   4 C :   -0.055881
   5 N :   -0.566896
   6 C :   -0.117311
   7 N :   -0.340719
   8 C :    0.212793
   9 N :   -0.562242
  10 C :    0.119021
  11 N :   -0.438475
  12 C :   -0.068345
  13 N :   -0.429664
  14 C :    0.224964
  15 N :   -0.440944
  16 C :    0.229932
  17 C :   -0.111883
  18 C :   -0.185414
  19 C :    0.218562
  20 C :    0.213404
  21 C :   -0.075109
  22 C :   -0.091046
  23 C :   -0.039604
  24 C :    0.193716
  25 C :    0.114627
  26 C :   -0.088233
  27 C :    0.214614
  28 C :   -0.061640
  29 C :   -0.181114
  30 C :    0.245930
  31 C :    0.229719
  32 C :   -0.061810
  33 C :   -0.060755
  34 C :   -0.051192
  35 C :    0.227915
  36 C :    0.108379
  37 C :   -0.064312
  38 C :    0.231188
  39 C :   -0.057703
  40 C :   -0.181522
  41 C :    0.225932
  42 C :    0.197530
  43 C :   -0.072344
  44 C :   -0.089316
  45 C :   -0.061273
  46 C :    0.211590
  47 C :    0.115333
  48 C :   -0.066965
  49 C :    0.238772
  50 C :   -0.046508
  51 C :   -0.192852
  52 H :    0.037007
  53 H :   -0.017538
  54 H :    0.045371
  55 H :    0.035584
  56 H :    0.049495
  57 H :    0.047007
  58 H :    0.047759
  59 H :   -0.004090
  60 H :    0.047391
  61 H :    0.171214
  62 H :    0.175442
  63 H :    0.055143
  64 H :   -0.018860
  65 H :    0.047237
  66 H :    0.055608
  67 H :    0.062312
  68 H :    0.057193
  69 H :    0.056299
  70 H :   -0.030429
  71 H :    0.044632
  72 H :    0.071042
  73 H :   -0.008036
  74 H :    0.060148
  75 H :    0.070475
  76 H :    0.074694
  77 H :    0.067818
  78 H :    0.067124
  79 H :   -0.016586
  80 H :    0.061073
  81 H :    0.054364
  82 H :   -0.024819
  83 H :    0.042070
  84 H :    0.054303
  85 H :    0.060977
  86 H :    0.055626
  87 H :    0.057236
  88 H :   -0.014508
  89 H :    0.046587
Sum of atomic charges:   -0.0000000

LOEWDIN ATOMIC CHARGES
----------------------
   0 C :   -0.020962
   1 N :    0.119202
   2 C :   -0.101500
   3 N :    0.183039
   4 C :   -0.011316
   5 N :   -0.133813
   6 C :   -0.039891
   7 N :    0.175254
   8 C :   -0.020702
   9 N :   -0.140570
  10 C :    0.023357
  11 N :    0.141789
  12 C :   -0.114310
  13 N :    0.165728
  14 C :   -0.020980
  15 N :    0.138910
  16 C :   -0.060029
  17 C :   -0.032406
  18 C :   -0.107936
  19 C :   -0.076997
  20 C :    0.004483
  21 C :   -0.115757
  22 C :    0.036805
  23 C :   -0.014538
  24 C :   -0.012610
  25 C :    0.029775
  26 C :   -0.108613
  27 C :   -0.116495
  28 C :   -0.027666
  29 C :   -0.099961
  30 C :   -0.029848
  31 C :    0.023801
  32 C :   -0.094530
  33 C :    0.081035
  34 C :   -0.015257
  35 C :    0.022541
  36 C :    0.035126
  37 C :   -0.094156
  38 C :   -0.052160
  39 C :   -0.017698
  40 C :   -0.108458
  41 C :   -0.091220
  42 C :   -0.010245
  43 C :   -0.099240
  44 C :    0.033784
  45 C :   -0.028000
  46 C :    0.001984
  47 C :    0.029537
  48 C :   -0.094892
  49 C :   -0.069639
  50 C :   -0.018874
  51 C :   -0.108754
  52 H :    0.022836
  53 H :    0.002671
  54 H :    0.025625
  55 H :    0.022538
  56 H :    0.021868
  57 H :    0.025927
  58 H :    0.027315
  59 H :    0.010059
  60 H :    0.019135
  61 H :    0.060137
  62 H :    0.061844
  63 H :    0.030663
  64 H :    0.001575
  65 H :    0.045945
  66 H :    0.029229
  67 H :    0.028166
  68 H :    0.031608
  69 H :    0.030261
  70 H :   -0.004868
  71 H :    0.043399
  72 H :    0.037582
  73 H :    0.007115
  74 H :    0.050571
  75 H :    0.037259
  76 H :    0.034685
  77 H :    0.036101
  78 H :    0.035789
  79 H :    0.002969
  80 H :    0.050647
  81 H :    0.029081
  82 H :   -0.002713
  83 H :    0.042580
  84 H :    0.029936
  85 H :    0.027435
  86 H :    0.030220
  87 H :    0.031416
  88 H :    0.002376
  89 H :    0.044891

  Mayer bond orders larger than 0.100000
B(  0-C ,  1-N ) :   1.0915 B(  0-C , 17-C ) :   1.7156 B(  0-C , 52-H ) :   0.9640
B(  1-N ,  8-C ) :   1.0945 B(  1-N , 10-C ) :   0.9774 B(  2-C , 12-C ) :   1.4954
B(  2-C , 16-C ) :   1.3664 B(  2-C , 53-H ) :   0.9735 B(  3-N , 14-C ) :   1.2206
B(  3-N , 16-C ) :   1.1840 B(  3-N , 61-H ) :   0.8989 B(  4-C ,  6-C ) :   1.2143
B(  4-C , 17-C ) :   1.2125 B(  4-C , 18-C ) :   1.4617 B(  5-N , 19-C ) :   1.4565
B(  5-N , 27-C ) :   1.3737 B(  6-C ,  8-C ) :   1.7107 B(  6-C , 54-H ) :   0.9264
B(  7-N , 30-C ) :   1.1957 B(  7-N , 38-C ) :   1.1897 B(  7-N , 62-H ) :   0.8968
B(  8-C , 55-H ) :   0.9651 B(  9-N , 41-C ) :   1.3944 B(  9-N , 49-C ) :   1.4252
B( 10-C , 56-H ) :   0.9774 B( 10-C , 57-H ) :   0.9823 B( 10-C , 58-H ) :   0.9842
B( 11-N , 20-C ) :   1.1308 B( 11-N , 24-C ) :   1.1069 B( 11-N , 25-C ) :   0.9603
B( 12-C , 14-C ) :   1.3572 B( 12-C , 59-H ) :   0.9554 B( 13-N , 31-C ) :   1.1605
B( 13-N , 35-C ) :   1.1593 B( 13-N , 36-C ) :   0.9418 B( 14-C , 18-C ) :   1.1226
B( 15-N , 42-C ) :   1.1080 B( 15-N , 46-C ) :   1.1243 B( 15-N , 47-C ) :   0.9612
B( 16-C , 51-C ) :   1.1686 B( 17-C , 60-H ) :   0.9131 B( 18-C , 19-C ) :   1.1232
B( 19-C , 21-C ) :   1.2510 B( 20-C , 28-C ) :   1.6289 B( 20-C , 63-H ) :   0.9703
B( 21-C , 26-C ) :   1.5887 B( 21-C , 64-H ) :   0.9399 B( 22-C , 23-C ) :   1.2890
B( 22-C , 28-C ) :   1.2637 B( 22-C , 29-C ) :   1.2253 B( 23-C , 24-C ) :   1.6205
B( 23-C , 65-H ) :   0.9703 B( 24-C , 66-H ) :   0.9695 B( 25-C , 67-H ) :   0.9761
B( 25-C , 68-H ) :   0.9828 B( 25-C , 69-H ) :   0.9823 B( 26-C , 27-C ) :   1.2552
B( 26-C , 70-H ) :   0.9688 B( 27-C , 29-C ) :   1.2076 B( 28-C , 71-H ) :   0.9720
B( 29-C , 30-C ) :   1.2455 B( 30-C , 32-C ) :   1.2799 B( 31-C , 39-C ) :   1.5887
B( 31-C , 72-H ) :   0.9681 B( 32-C , 37-C ) :   1.5788 B( 32-C , 73-H ) :   0.9786
B( 33-C , 34-C ) :   1.3063 B( 33-C , 39-C ) :   1.3033 B( 33-C , 40-C ) :   1.1777
B( 34-C , 35-C ) :   1.5863 B( 34-C , 74-H ) :   0.9696 B( 35-C , 75-H ) :   0.9681
B( 36-C , 76-H ) :   0.9768 B( 36-C , 77-H ) :   0.9816 B( 36-C , 78-H ) :   0.9823
B( 37-C , 38-C ) :   1.2857 B( 37-C , 79-H ) :   0.9765 B( 38-C , 40-C ) :   1.2332
B( 39-C , 80-H ) :   0.9705 B( 40-C , 41-C ) :   1.2501 B( 41-C , 43-C ) :   1.1848
B( 42-C , 50-C ) :   1.6329 B( 42-C , 81-H ) :   0.9697 B( 43-C , 48-C ) :   1.6680
B( 43-C , 82-H ) :   0.9722 B( 44-C , 45-C ) :   1.2638 B( 44-C , 50-C ) :   1.2725
B( 44-C , 51-C ) :   1.2604 B( 45-C , 46-C ) :   1.6344 B( 45-C , 83-H ) :   0.9718
B( 46-C , 84-H ) :   0.9700 B( 47-C , 85-H ) :   0.9762 B( 47-C , 86-H ) :   0.9829
B( 47-C , 87-H ) :   0.9824 B( 48-C , 49-C ) :   1.1883 B( 48-C , 88-H ) :   0.9748
B( 49-C , 51-C ) :   1.2438 B( 50-C , 89-H ) :   0.9709

MP2 TOTAL ENERGY:    -2130.826699575 Eh
FINAL SINGLE POINT ENERGY     -2130.826699575010

DIPOLE MOMENT
-------------
                                X             Y             Z
Electronic contribution:      2.67590      -4.26096      -0.18238
Nuclear contribution   :      0.07353       0.23576       0.17967
                        -----------------------------------------
Total Dipole Moment    :      2.74943      -4.02520      -0.00271
                        -----------------------------------------
Magnitude (a.u.)       :      4.87459
Magnitude (Debye)      :     12.39023

Rotational constants in cm-1:     0.001501     0.001479     0.000760
Rotational constants in MHz :    44.999604    44.342401    22.788261

                             ****ORCA TERMINATED NORMALLY****
TOTAL RUN TIME: 0 days 1 hours 30 minutes 38 seconds 560 msec
