                         Program Version 5.0.4 -  RELEASE  -
|  1> ! PAL2
|  2> ! mp2 cc-pvdz TightSCF  NoKeepInts
|  3>
|  4> %scf
|  5>   MaxCore 2000
|  6> end
|  7> %mp2
|  8>   MaxCore 2000
|  9> end
| 10> * xyz 0 1
| 11>    C       -4.35600         5.61300        -0.99900
| 12>    C        1.47400         4.04100         0.05700
| 13>    C       -2.80200         4.09300         0.04900
| 14>    C       -2.82200         4.93000         1.17500
| 15>    C       -3.60300         6.06900         1.17900
| 16>    C       -5.20800         7.60500         0.15200
| 17>    C        0.13200         4.30700         0.06100
| 18>    C       -0.56900         3.05600         0.04700
| 19>    C        1.64900         2.61800         0.02300
| 20>    C       -3.59600         4.46100        -1.04800
| 21>    N       -4.35300         6.39800         0.10200
| 22>    N        0.38800         2.06700         0.02500
| 23>    N       -2.01000         0.39500        -0.07500
| 24>    N       -0.38800        -2.07400        -0.02700
| 25>    N        2.01000        -0.40100         0.06500
| 26>    C       -1.96000         2.86100         0.02400
| 27>    C       -2.62300         1.61500        -0.01800
| 28>    C       -5.57300        -4.32900         1.06600
| 29>    C       -4.07300         1.47100         0.05600
| 30>    C       -4.10600        -2.75600        -0.02600
| 31>    C       -4.99500        -2.75700        -1.11100
| 32>    C       -6.13200        -3.54200        -1.07600
| 33>    C       -7.65100        -5.11300         0.04000
| 34>    C       -4.32400         0.14100         0.03700
| 35>    C       -3.02500        -0.52000        -0.04800
| 36>    C       -4.42200        -3.56600         1.07500
| 37>    N       -6.40700        -4.31300         0.00100
| 38>    C       -2.86700        -1.92200        -0.04000
| 39>    C       -1.65000        -2.62400        -0.02700
| 40>    C        3.56800        -6.14200        -1.04000
| 41>    C       -1.47600        -4.04900        -0.03400
| 42>    C        2.80300        -4.09900        -0.00800
| 43>    C        3.65700        -4.38400         1.06900
| 44>    C        4.42700        -5.53000         1.05900
| 45>    C        5.24500        -7.58800         0.01400
| 46>    C       -0.13400        -4.31500        -0.02200
| 47>    C        0.56800        -3.06400        -0.02700
| 48>    C        2.77500        -5.01200        -1.07400
| 49>    N        4.37600        -6.39100         0.01700
| 50>    C        1.95900        -2.86900        -0.00900
| 51>    C        2.62100        -1.62200         0.00900
| 52>    C        5.54300         4.33900        -1.13000
| 53>    C        4.07000        -1.47900        -0.09400
| 54>    C        4.10400         2.75100        -0.02100
| 55>    C        5.02700         2.72900         1.03600
| 56>    C        6.16600         3.50900         0.97800
| 57>    C        7.61900         5.15300        -0.11500
| 58>    C        4.32100        -0.14800        -0.09200
| 59>    C        3.02500         0.51400         0.01500
| 60>    C        4.38700         3.58200        -1.11500
| 61>    C        2.86600         1.91600         0.01300
| 62>    N        6.41300         4.29600        -0.09500
| 63>    H       -4.97400         5.94200        -1.82600
| 64>    H        2.27400         4.76600         0.08100
| 65>    H       -2.23800         4.69500         2.05700
| 66>    H       -3.65700         6.73900         2.02700
| 67>    H       -6.16500         7.34300         0.60800
| 68>    H       -4.70500         8.36700         0.74700
| 69>    H       -5.36300         7.96700        -0.86400
| 70>    H       -0.33200         5.28200         0.06900
| 71>    H       -3.61300         3.86300        -1.95300
| 72>    H        0.18200         1.07200         0.00500
| 73>    H       -0.18300        -1.08000        -0.02100
| 74>    H       -5.86400        -4.96200         1.89500
| 75>    H       -4.79400         2.27200         0.13900
| 76>    H       -4.80000        -2.16000        -1.99400
| 77>    H       -6.84100        -3.58200        -1.89300
| 78>    H       -8.42800        -4.53600         0.54600
| 79>    H       -7.95600        -5.33700        -0.98100
| 80>    H       -7.45600        -6.03700         0.58400
| 81>    H       -5.28700        -0.34400         0.10000
| 82>    H       -3.78000        -3.60100         1.94700
| 83>    H        3.58700        -6.86800        -1.84300
| 84>    H       -2.27600        -4.77400        -0.05000
| 85>    H        3.71400        -3.72400         1.92600
| 86>    H        5.09200        -5.79500         1.87100
| 87>    H        6.20500        -7.32900        -0.43900
| 88>    H        5.39300        -7.91700         1.04200
| 89>    H        4.75900        -8.37300        -0.56400
| 90>    H        0.32900        -5.29000        -0.00800
| 91>    H        2.14600        -4.84200        -1.94000
| 92>    H        5.80800         4.98600        -1.95600
| 93>    H        4.78800        -2.28100        -0.18500
| 94>    H        4.86000         2.11400         1.91200
| 95>    H        6.90100         3.53100         1.77200
| 96>    H        7.38300         6.10900         0.35600
| 97>    H        8.41400         4.65200         0.43500
| 98>    H        7.92100         5.31000        -1.15000
| 99>    H        5.28300         0.33600        -0.17900
|100>    H        3.72000         3.63200        -1.96700
|101> *
|102>
|103>                          ****END OF INPUT****

CARTESIAN COORDINATES (ANGSTROEM)
---------------------------------
  C     -4.356000    5.613000   -0.999000
  C      1.474000    4.041000    0.057000
  C     -2.802000    4.093000    0.049000
  C     -2.822000    4.930000    1.175000
  C     -3.603000    6.069000    1.179000
  C     -5.208000    7.605000    0.152000
  C      0.132000    4.307000    0.061000
  C     -0.569000    3.056000    0.047000
  C      1.649000    2.618000    0.023000
  C     -3.596000    4.461000   -1.048000
  N     -4.353000    6.398000    0.102000
  N      0.388000    2.067000    0.025000
  N     -2.010000    0.395000   -0.075000
  N     -0.388000   -2.074000   -0.027000
  N      2.010000   -0.401000    0.065000
  C     -1.960000    2.861000    0.024000
  C     -2.623000    1.615000   -0.018000
  C     -5.573000   -4.329000    1.066000
  C     -4.073000    1.471000    0.056000
  C     -4.106000   -2.756000   -0.026000
  C     -4.995000   -2.757000   -1.111000
  C     -6.132000   -3.542000   -1.076000
  C     -7.651000   -5.113000    0.040000
  C     -4.324000    0.141000    0.037000
  C     -3.025000   -0.520000   -0.048000
  C     -4.422000   -3.566000    1.075000
  N     -6.407000   -4.313000    0.001000
  C     -2.867000   -1.922000   -0.040000
  C     -1.650000   -2.624000   -0.027000
  C      3.568000   -6.142000   -1.040000
  C     -1.476000   -4.049000   -0.034000
  C      2.803000   -4.099000   -0.008000
  C      3.657000   -4.384000    1.069000
  C      4.427000   -5.530000    1.059000
  C      5.245000   -7.588000    0.014000
  C     -0.134000   -4.315000   -0.022000
  C      0.568000   -3.064000   -0.027000
  C      2.775000   -5.012000   -1.074000
  N      4.376000   -6.391000    0.017000
  C      1.959000   -2.869000   -0.009000
  C      2.621000   -1.622000    0.009000
  C      5.543000    4.339000   -1.130000
  C      4.070000   -1.479000   -0.094000
  C      4.104000    2.751000   -0.021000
  C      5.027000    2.729000    1.036000
  C      6.166000    3.509000    0.978000
  C      7.619000    5.153000   -0.115000
  C      4.321000   -0.148000   -0.092000
  C      3.025000    0.514000    0.015000
  C      4.387000    3.582000   -1.115000
  C      2.866000    1.916000    0.013000
  N      6.413000    4.296000   -0.095000
  H     -4.974000    5.942000   -1.826000
  H      2.274000    4.766000    0.081000
  H     -2.238000    4.695000    2.057000
  H     -3.657000    6.739000    2.027000
  H     -6.165000    7.343000    0.608000
  H     -4.705000    8.367000    0.747000
  H     -5.363000    7.967000   -0.864000
  H     -0.332000    5.282000    0.069000
  H     -3.613000    3.863000   -1.953000
  H      0.182000    1.072000    0.005000
  H     -0.183000   -1.080000   -0.021000
  H     -5.864000   -4.962000    1.895000
  H     -4.794000    2.272000    0.139000
  H     -4.800000   -2.160000   -1.994000
  H     -6.841000   -3.582000   -1.893000
  H     -8.428000   -4.536000    0.546000
  H     -7.956000   -5.337000   -0.981000
  H     -7.456000   -6.037000    0.584000
  H     -5.287000   -0.344000    0.100000
  H     -3.780000   -3.601000    1.947000
  H      3.587000   -6.868000   -1.843000
  H     -2.276000   -4.774000   -0.050000
  H      3.714000   -3.724000    1.926000
  H      5.092000   -5.795000    1.871000
  H      6.205000   -7.329000   -0.439000
  H      5.393000   -7.917000    1.042000
  H      4.759000   -8.373000   -0.564000
  H      0.329000   -5.290000   -0.008000
  H      2.146000   -4.842000   -1.940000
  H      5.808000    4.986000   -1.956000
  H      4.788000   -2.281000   -0.185000
  H      4.860000    2.114000    1.912000
  H      6.901000    3.531000    1.772000
  H      7.383000    6.109000    0.356000
  H      8.414000    4.652000    0.435000
  H      7.921000    5.310000   -1.150000
  H      5.283000    0.336000   -0.179000
  H      3.720000    3.632000   -1.967000

 Total Charge           Charge          ....    0
 Multiplicity           Mult            ....    1
 Number of Electrons    NEL             ....  358
 Basis Dimension        Dim             ....  918

ORBITAL ENERGIES
----------------

  NO   OCC          E(Eh)            E(eV)
   0   2.0000     -15.646605      -425.7658
   1   2.0000     -15.639723      -425.5785
   2   2.0000     -15.627185      -425.2373
   3   2.0000     -15.621395      -425.0798
   4   2.0000     -15.516078      -422.2139
   5   2.0000     -15.515004      -422.1847
   6   2.0000     -15.445626      -420.2969
   7   2.0000     -15.439006      -420.1167
   8   2.0000     -11.307124      -307.6825
   9   2.0000     -11.302840      -307.5659
  10   2.0000     -11.300730      -307.5085
  11   2.0000     -11.299799      -307.4832
  12   2.0000     -11.295771      -307.3736
  13   2.0000     -11.294906      -307.3500
  14   2.0000     -11.293679      -307.3166
  15   2.0000     -11.291547      -307.2586
  16   2.0000     -11.285188      -307.0856
  17   2.0000     -11.282982      -307.0256
  18   2.0000     -11.281062      -306.9733
  19   2.0000     -11.277981      -306.8895
  20   2.0000     -11.249196      -306.1062
  21   2.0000     -11.243004      -305.9377
  22   2.0000     -11.239165      -305.8332
  23   2.0000     -11.238812      -305.8236
  24   2.0000     -11.234584      -305.7086
  25   2.0000     -11.233858      -305.6888
  26   2.0000     -11.231382      -305.6215
  27   2.0000     -11.226566      -305.4904
  28   2.0000     -11.225119      -305.4510
  29   2.0000     -11.225017      -305.4482
  30   2.0000     -11.221367      -305.3489
  31   2.0000     -11.220528      -305.3261
  32   2.0000     -11.197467      -304.6986
  33   2.0000     -11.197281      -304.6935
  34   2.0000     -11.195038      -304.6325
  35   2.0000     -11.194840      -304.6271
  36   2.0000     -11.176228      -304.1206
  37   2.0000     -11.176204      -304.1200
  38   2.0000     -11.172623      -304.0225
  39   2.0000     -11.170759      -303.9718
  40   2.0000     -11.164835      -303.8106
  41   2.0000     -11.163491      -303.7740
  42   2.0000     -11.163410      -303.7718
  43   2.0000     -11.162098      -303.7361
  44   2.0000     -11.157895      -303.6218
  45   2.0000     -11.155074      -303.5450
  46   2.0000     -11.154804      -303.5376
  47   2.0000     -11.151618      -303.4509
  48   2.0000     -11.148072      -303.3545
  49   2.0000     -11.146434      -303.3099
  50   2.0000     -11.134716      -302.9910
  51   2.0000     -11.133190      -302.9495
  52   2.0000      -1.331879       -36.2423
  53   2.0000      -1.326092       -36.0848
  54   2.0000      -1.315105       -35.7858
  55   2.0000      -1.310435       -35.6588
  56   2.0000      -1.215310       -33.0703
  57   2.0000      -1.212438       -32.9921
  58   2.0000      -1.163502       -31.6605
  59   2.0000      -1.152368       -31.3575
  60   2.0000      -1.119162       -30.4540
  61   2.0000      -1.113060       -30.2879
  62   2.0000      -1.104849       -30.0645
  63   2.0000      -1.099263       -29.9125
  64   2.0000      -1.055189       -28.7132
  65   2.0000      -1.049826       -28.5672
  66   2.0000      -1.039636       -28.2899
  67   2.0000      -1.035424       -28.1753
  68   2.0000      -1.026751       -27.9393
  69   2.0000      -1.011624       -27.5277
  70   2.0000      -1.006856       -27.3980
  71   2.0000      -0.997227       -27.1359
  72   2.0000      -0.979336       -26.6491
  73   2.0000      -0.976547       -26.5732
  74   2.0000      -0.968549       -26.3556
  75   2.0000      -0.961713       -26.1695
  76   2.0000      -0.950414       -25.8621
  77   2.0000      -0.945954       -25.7407
  78   2.0000      -0.934913       -25.4403
  79   2.0000      -0.922714       -25.1083
  80   2.0000      -0.891585       -24.2613
  81   2.0000      -0.881282       -23.9809
  82   2.0000      -0.876313       -23.8457
  83   2.0000      -0.867037       -23.5933
  84   2.0000      -0.862831       -23.4788
  85   2.0000      -0.856874       -23.3167
  86   2.0000      -0.852010       -23.1844
  87   2.0000      -0.839906       -22.8550
  88   2.0000      -0.822092       -22.3703
  89   2.0000      -0.797432       -21.6992
  90   2.0000      -0.797111       -21.6905
  91   2.0000      -0.739227       -20.1154
  92   2.0000      -0.728977       -19.8365
  93   2.0000      -0.727325       -19.7915
  94   2.0000      -0.723213       -19.6796
  95   2.0000      -0.716756       -19.5039
  96   2.0000      -0.710518       -19.3342
  97   2.0000      -0.709684       -19.3115
  98   2.0000      -0.697600       -18.9827
  99   2.0000      -0.690501       -18.7895
 100   2.0000      -0.685854       -18.6630
 101   2.0000      -0.682286       -18.5659
 102   2.0000      -0.680257       -18.5107
 103   2.0000      -0.671734       -18.2788
 104   2.0000      -0.668841       -18.2001
 105   2.0000      -0.666419       -18.1342
 106   2.0000      -0.662727       -18.0337
 107   2.0000      -0.659835       -17.9550
 108   2.0000      -0.658773       -17.9261
 109   2.0000      -0.656164       -17.8551
 110   2.0000      -0.650849       -17.7105
 111   2.0000      -0.648873       -17.6567
 112   2.0000      -0.647342       -17.6151
 113   2.0000      -0.643613       -17.5136
 114   2.0000      -0.633387       -17.2353
 115   2.0000      -0.623225       -16.9588
 116   2.0000      -0.621401       -16.9092
 117   2.0000      -0.616679       -16.7807
 118   2.0000      -0.611350       -16.6357
 119   2.0000      -0.607772       -16.5383
 120   2.0000      -0.606900       -16.5146
 121   2.0000      -0.603349       -16.4179
 122   2.0000      -0.600745       -16.3471
 123   2.0000      -0.594158       -16.1679
 124   2.0000      -0.589484       -16.0407
 125   2.0000      -0.585261       -15.9258
 126   2.0000      -0.577109       -15.7039
 127   2.0000      -0.573551       -15.6071
 128   2.0000      -0.568398       -15.4669
 129   2.0000      -0.564500       -15.3608
 130   2.0000      -0.553175       -15.0527
 131   2.0000      -0.544747       -14.8233
 132   2.0000      -0.541074       -14.7234
 133   2.0000      -0.534333       -14.5400
 134   2.0000      -0.532183       -14.4814
 135   2.0000      -0.528618       -14.3844
 136   2.0000      -0.523954       -14.2575
 137   2.0000      -0.523223       -14.2376
 138   2.0000      -0.519933       -14.1481
 139   2.0000      -0.515213       -14.0197
 140   2.0000      -0.509143       -13.8545
 141   2.0000      -0.504949       -13.7404
 142   2.0000      -0.503785       -13.7087
 143   2.0000      -0.501244       -13.6395
 144   2.0000      -0.497899       -13.5485
 145   2.0000      -0.496671       -13.5151
 146   2.0000      -0.495664       -13.4877
 147   2.0000      -0.493776       -13.4363
 148   2.0000      -0.489562       -13.3217
 149   2.0000      -0.467202       -12.7132
 150   2.0000      -0.459944       -12.5157
 151   2.0000      -0.451616       -12.2891
 152   2.0000      -0.446687       -12.1550
 153   2.0000      -0.444833       -12.1045
 154   2.0000      -0.443265       -12.0619
 155   2.0000      -0.439624       -11.9628
 156   2.0000      -0.434311       -11.8182
 157   2.0000      -0.427989       -11.6462
 158   2.0000      -0.389359       -10.5950
 159   2.0000      -0.384501       -10.4628
 160   2.0000      -0.374263       -10.1842
 161   2.0000      -0.372126       -10.1261
 162   2.0000      -0.364695        -9.9239
 163   2.0000      -0.360079        -9.7983
 164   2.0000      -0.351400        -9.5621
 165   2.0000      -0.347992        -9.4693
 166   2.0000      -0.337808        -9.1922
 167   2.0000      -0.333430        -9.0731
 168   2.0000      -0.325092        -8.8462
 169   2.0000      -0.300092        -8.1659
 170   2.0000      -0.292446        -7.9578
 171   2.0000      -0.289920        -7.8891
 172   2.0000      -0.286670        -7.8007
 173   2.0000      -0.256393        -6.9768
 174   2.0000      -0.244272        -6.6470
 175   2.0000      -0.186786        -5.0827
 176   2.0000      -0.176452        -4.8015
 177   2.0000      -0.063747        -1.7347
 178   2.0000      -0.053190        -1.4474
 179   0.0000       0.032377         0.8810
 180   0.0000       0.069336         1.8867
 181   0.0000       0.092500         2.5170
 182   0.0000       0.095560         2.6003
 183   0.0000       0.129324         3.5191

MULLIKEN ATOMIC CHARGES
-----------------------
   0 C :    0.211358
   1 N :   -0.435548
   2 C :   -0.066455
   3 N :   -0.339670
   4 C :   -0.082868
   5 N :   -0.563215
   6 C :   -0.047892
   7 N :   -0.337782
   8 C :    0.209403
   9 N :   -0.563695
  10 C :    0.112453
  11 N :   -0.437304
  12 C :   -0.064428
  13 N :   -0.442670
  14 C :    0.230831
  15 N :   -0.440698
  16 C :    0.240900
  17 C :   -0.050532
  18 C :   -0.189036
  19 C :    0.226013
  20 C :    0.204558
  21 C :   -0.070722
  22 C :   -0.085296
  23 C :   -0.053424
  24 C :    0.210657
  25 C :    0.113660
  26 C :   -0.072627
  27 C :    0.229199
  28 C :   -0.048578
  29 C :   -0.188085
  30 C :    0.231685
  31 C :    0.205176
  32 C :   -0.065190
  33 C :   -0.087011
  34 C :   -0.049777
  35 C :    0.197150
  36 C :    0.115903
  37 C :   -0.067441
  38 C :    0.239330
  39 C :   -0.062770
  40 C :   -0.192711
  41 C :    0.218846
  42 C :    0.205846
  43 C :   -0.074654
  44 C :   -0.088777
  45 C :   -0.049107
  46 C :    0.199231
  47 C :    0.115764
  48 C :   -0.077347
  49 C :    0.221177
  50 C :   -0.056061
  51 C :   -0.190273
  52 H :    0.060476
  53 H :   -0.012894
  54 H :    0.050166
  55 H :    0.059235
  56 H :    0.065115
  57 H :    0.060978
  58 H :    0.060034
  59 H :   -0.017522
  60 H :    0.048434
  61 H :    0.173686
  62 H :    0.171783
  63 H :    0.056872
  64 H :   -0.024568
  65 H :    0.045887
  66 H :    0.057967
  67 H :    0.062755
  68 H :    0.058226
  69 H :    0.059630
  70 H :   -0.022496
  71 H :    0.048828
  72 H :    0.051488
  73 H :   -0.015878
  74 H :    0.042234
  75 H :    0.050401
  76 H :    0.057871
  77 H :    0.054976
  78 H :    0.054147
  79 H :   -0.013035
  80 H :    0.042319
  81 H :    0.053136
  82 H :   -0.023709
  83 H :    0.043197
  84 H :    0.052445
  85 H :    0.058064
  86 H :    0.056480
  87 H :    0.056358
  88 H :   -0.024640
  89 H :    0.044063
Sum of atomic charges:   -0.0000000

LOEWDIN ATOMIC CHARGES
----------------------
   0 C :    0.004848
   1 N :    0.149235
   2 C :   -0.100883
   3 N :    0.176011
   4 C :    0.050856
   5 N :   -0.140376
   6 C :   -0.018744
   7 N :    0.177432
   8 C :    0.003332
   9 N :   -0.138623
  10 C :    0.031504
  11 N :    0.145188
  12 C :   -0.100260
  13 N :    0.134477
  14 C :   -0.049445
  15 N :    0.138151
  16 C :   -0.039037
  17 C :   -0.021208
  18 C :   -0.111181
  19 C :   -0.088101
  20 C :   -0.002300
  21 C :   -0.102802
  22 C :    0.044490
  23 C :   -0.023353
  24 C :    0.003226
  25 C :    0.030553
  26 C :   -0.102124
  27 C :   -0.085090
  28 C :   -0.018701
  29 C :   -0.109735
  30 C :   -0.051226
  31 C :   -0.005619
  32 C :   -0.099455
  33 C :    0.028399
  34 C :   -0.021308
  35 C :   -0.012599
  36 C :    0.027988
  37 C :   -0.102934
  38 C :   -0.037772
  39 C :   -0.027812
  40 C :   -0.109819
  41 C :   -0.094772
  42 C :   -0.003401
  43 C :   -0.107367
  44 C :    0.033933
  45 C :   -0.020310
  46 C :   -0.009139
  47 C :    0.029111
  48 C :   -0.108339
  49 C :   -0.096726
  50 C :   -0.025210
  51 C :   -0.109181
  52 H :    0.032194
  53 H :    0.004872
  54 H :    0.046647
  55 H :    0.032063
  56 H :    0.029630
  57 H :    0.032445
  58 H :    0.032905
  59 H :    0.003110
  60 H :    0.046200
  61 H :    0.060961
  62 H :    0.059900
  63 H :    0.031046
  64 H :   -0.001789
  65 H :    0.044690
  66 H :    0.030893
  67 H :    0.028533
  68 H :    0.032072
  69 H :    0.031703
  70 H :   -0.001228
  71 H :    0.045925
  72 H :    0.028470
  73 H :    0.003349
  74 H :    0.043092
  75 H :    0.027642
  76 H :    0.025985
  77 H :    0.030068
  78 H :    0.029719
  79 H :    0.004806
  80 H :    0.042435
  81 H :    0.028884
  82 H :   -0.001891
  83 H :    0.043759
  84 H :    0.028664
  85 H :    0.026100
  86 H :    0.030504
  87 H :    0.030989
  88 H :   -0.002451
  89 H :    0.043323

  Mayer bond orders larger than 0.100000
B(  0-C ,  1-N ) :   1.1332 B(  0-C , 17-C ) :   1.6113 B(  0-C , 52-H ) :   0.9689
B(  1-N ,  8-C ) :   1.1292 B(  1-N , 10-C ) :   0.9547 B(  2-C , 12-C ) :   1.5448
B(  2-C , 16-C ) :   1.3120 B(  2-C , 53-H ) :   0.9782 B(  3-N , 14-C ) :   1.1954
B(  3-N , 16-C ) :   1.1974 B(  3-N , 61-H ) :   0.8978 B(  4-C ,  6-C ) :   1.2840
B(  4-C , 17-C ) :   1.2866 B(  4-C , 18-C ) :   1.2169 B(  5-N , 19-C ) :   1.4058
B(  5-N , 27-C ) :   1.4161 B(  6-C ,  8-C ) :   1.6138 B(  6-C , 54-H ) :   0.9713
B(  7-N , 30-C ) :   1.1901 B(  7-N , 38-C ) :   1.2055 B(  7-N , 62-H ) :   0.8989
B(  8-C , 55-H ) :   0.9699 B(  9-N , 41-C ) :   1.4135 B(  9-N , 49-C ) :   1.4119
B( 10-C , 56-H ) :   0.9763 B( 10-C , 57-H ) :   0.9821 B( 10-C , 58-H ) :   0.9827
B( 11-N , 20-C ) :   1.1208 B( 11-N , 24-C ) :   1.1292 B( 11-N , 25-C ) :   0.9577
B( 12-C , 14-C ) :   1.3131 B( 12-C , 59-H ) :   0.9779 B( 13-N , 31-C ) :   1.1137
B( 13-N , 35-C ) :   1.1049 B( 13-N , 36-C ) :   0.9654 B( 14-C , 18-C ) :   1.2136
B( 15-N , 42-C ) :   1.1190 B( 15-N , 46-C ) :   1.1097 B( 15-N , 47-C ) :   0.9628
B( 16-C , 51-C ) :   1.2112 B( 17-C , 60-H ) :   0.9711 B( 18-C , 19-C ) :   1.2362
B( 19-C , 21-C ) :   1.2027 B( 20-C , 28-C ) :   1.6213 B( 20-C , 63-H ) :   0.9703
B( 21-C , 26-C ) :   1.6488 B( 21-C , 64-H ) :   0.9738 B( 22-C , 23-C ) :   1.2790
B( 22-C , 28-C ) :   1.2787 B( 22-C , 29-C ) :   1.2326 B( 23-C , 24-C ) :   1.6191
B( 23-C , 65-H ) :   0.9712 B( 24-C , 66-H ) :   0.9690 B( 25-C , 67-H ) :   0.9762
B( 25-C , 68-H ) :   0.9830 B( 25-C , 69-H ) :   0.9820 B( 26-C , 27-C ) :   1.2020
B( 26-C , 70-H ) :   0.9737 B( 27-C , 29-C ) :   1.2306 B( 28-C , 71-H ) :   0.9712
B( 29-C , 30-C ) :   1.2056 B( 30-C , 32-C ) :   1.3195 B( 31-C , 39-C ) :   1.6436
B( 31-C , 72-H ) :   0.9700 B( 32-C , 37-C ) :   1.5389 B( 32-C , 73-H ) :   0.9775
B( 33-C , 34-C ) :   1.2651 B( 33-C , 39-C ) :   1.2572 B( 33-C , 40-C ) :   1.2740
B( 34-C , 35-C ) :   1.6409 B( 34-C , 74-H ) :   0.9706 B( 35-C , 75-H ) :   0.9700
B( 36-C , 76-H ) :   0.9761 B( 36-C , 77-H ) :   0.9822 B( 36-C , 78-H ) :   0.9833
B( 37-C , 38-C ) :   1.3194 B( 37-C , 79-H ) :   0.9782 B( 38-C , 40-C ) :   1.2025
B( 39-C , 80-H ) :   0.9717 B( 40-C , 41-C ) :   1.2053 B( 41-C , 43-C ) :   1.2261
B( 42-C , 50-C ) :   1.6347 B( 42-C , 81-H ) :   0.9696 B( 43-C , 48-C ) :   1.6251
B( 43-C , 82-H ) :   0.9741 B( 44-C , 45-C ) :   1.2735 B( 44-C , 50-C ) :   1.2637
B( 44-C , 51-C ) :   1.2544 B( 45-C , 46-C ) :   1.6319 B( 45-C , 83-H ) :   0.9709
B( 46-C , 84-H ) :   0.9704 B( 47-C , 85-H ) :   0.9761 B( 47-C , 86-H ) :   0.9827
B( 47-C , 87-H ) :   0.9827 B( 48-C , 49-C ) :   1.2243 B( 48-C , 88-H ) :   0.9735
B( 49-C , 51-C ) :   1.2097 B( 50-C , 89-H ) :   0.9715

MP2 TOTAL ENERGY:    -2130.909703647 Eh
FINAL SINGLE POINT ENERGY     -2130.909703647269

DIPOLE MOMENT
-------------
                                X             Y             Z
Electronic contribution:     -1.31045       0.53633      -0.19310
Nuclear contribution   :     -0.00423       0.18142       0.22347
                        -----------------------------------------
Total Dipole Moment    :     -1.31467       0.71775       0.03037
                        -----------------------------------------
Magnitude (a.u.)       :      1.49815
Magnitude (Debye)      :      3.80800

Rotational constants in cm-1:     0.001498     0.001474     0.000762
Rotational constants in MHz :    44.906791    44.177865    22.856231

                             ****ORCA TERMINATED NORMALLY****
TOTAL RUN TIME: 0 days 1 hours 13 minutes 42 seconds 479 msec
