                         Program Version 5.0.4 -  RELEASE  -
|  1> ! PAL2
|  2> ! mp2 cc-pvdz TightSCF  NoKeepInts
|  3>
|  4> %scf
|  5>   MaxCore 2000
|  6> end
|  7> %mp2
|  8>   MaxCore 2000
|  9> end
| 10> * xyz 0 1
| 11>    C       -3.04000         6.48800         0.22900
| 12>    C        1.47400         4.04100         0.05700
| 13>    C       -2.80200         4.09300         0.04900
| 14>    C       -4.19800         4.01500        -0.07200
| 15>    C       -4.96200         5.16400        -0.04100
| 16>    C       -5.22600         7.59300         0.10100
| 17>    C        0.13200         4.30700         0.06100
| 18>    C       -0.56900         3.05600         0.04700
| 19>    C        1.64900         2.61800         0.02300
| 20>    C       -2.23300         5.36700         0.19800
| 21>    N       -4.38200         6.37800         0.11100
| 22>    N        0.38800         2.06700         0.02500
| 23>    N       -2.01000         0.39500        -0.07500
| 24>    N       -0.38800        -2.07400        -0.02700
| 25>    N        2.01000        -0.40100         0.06500
| 26>    C       -1.96000         2.86100         0.02400
| 27>    C       -2.62300         1.61500        -0.01800
| 28>    C       -5.57300        -4.32900         1.06600
| 29>    C       -4.07300         1.47100         0.05600
| 30>    C       -4.10600        -2.75600        -0.02600
| 31>    C       -4.99500        -2.75700        -1.11100
| 32>    C       -6.13200        -3.54200        -1.07600
| 33>    C       -7.65100        -5.11300         0.04000
| 34>    C       -4.32400         0.14100         0.03700
| 35>    C       -3.02500        -0.52000        -0.04800
| 36>    C       -4.42200        -3.56600         1.07500
| 37>    N       -6.40700        -4.31300         0.00100
| 38>    C       -2.86700        -1.92200        -0.04000
| 39>    C       -1.65000        -2.62400        -0.02700
| 40>    C        3.56800        -6.14200        -1.04000
| 41>    C       -1.47600        -4.04900        -0.03400
| 42>    C        2.80300        -4.09900        -0.00800
| 43>    C        3.65700        -4.38400         1.06900
| 44>    C        4.42700        -5.53000         1.05900
| 45>    C        5.24500        -7.58800         0.01400
| 46>    C       -0.13400        -4.31500        -0.02200
| 47>    C        0.56800        -3.06400        -0.02700
| 48>    C        2.77500        -5.01200        -1.07400
| 49>    N        4.37600        -6.39100         0.01700
| 50>    C        1.95900        -2.86900        -0.00900
| 51>    C        2.62100        -1.62200         0.00900
| 52>    C        5.54300         4.33900        -1.13000
| 53>    C        4.07000        -1.47900        -0.09400
| 54>    C        4.10400         2.75100        -0.02100
| 55>    C        5.02700         2.72900         1.03600
| 56>    C        6.16600         3.50900         0.97800
| 57>    C        7.61900         5.15300        -0.11500
| 58>    C        4.32100        -0.14800        -0.09200
| 59>    C        3.02500         0.51400         0.01500
| 60>    C        4.38700         3.58200        -1.11500
| 61>    C        2.86600         1.91600         0.01300
| 62>    N        6.41300         4.29600        -0.09500
| 63>    H       -2.64500         7.48900         0.35400
| 64>    H        2.27400         4.76600         0.08100
| 65>    H       -4.69600         3.06100        -0.19900
| 66>    H       -6.04000         5.15500        -0.13900
| 67>    H       -5.37900         7.91200        -0.93300
| 68>    H       -6.18300         7.36000         0.56700
| 69>    H       -4.71800         8.37700         0.66200
| 70>    H       -0.33200         5.28200         0.06900
| 71>    H       -1.16200         5.49200         0.31100
| 72>    H        0.18200         1.07200         0.00500
| 73>    H       -0.18300        -1.08000        -0.02100
| 74>    H       -5.86400        -4.96200         1.89500
| 75>    H       -4.79400         2.27200         0.13900
| 76>    H       -4.80000        -2.16000        -1.99400
| 77>    H       -6.84100        -3.58200        -1.89300
| 78>    H       -8.42800        -4.53600         0.54600
| 79>    H       -7.95600        -5.33700        -0.98100
| 80>    H       -7.45600        -6.03700         0.58400
| 81>    H       -5.28700        -0.34400         0.10000
| 82>    H       -3.78000        -3.60100         1.94700
| 83>    H        3.58700        -6.86800        -1.84300
| 84>    H       -2.27600        -4.77400        -0.05000
| 85>    H        3.71400        -3.72400         1.92600
| 86>    H        5.09200        -5.79500         1.87100
| 87>    H        6.20500        -7.32900        -0.43900
| 88>    H        5.39300        -7.91700         1.04200
| 89>    H        4.75900        -8.37300        -0.56400
| 90>    H        0.32900        -5.29000        -0.00800
| 91>    H        2.14600        -4.84200        -1.94000
| 92>    H        5.80800         4.98600        -1.95600
| 93>    H        4.78800        -2.28100        -0.18500
| 94>    H        4.86000         2.11400         1.91200
| 95>    H        6.90100         3.53100         1.77200
| 96>    H        7.38300         6.10900         0.35600
| 97>    H        8.41400         4.65200         0.43500
| 98>    H        7.92100         5.31000        -1.15000
| 99>    H        5.28300         0.33600        -0.17900
|100>    H        3.72000         3.63200        -1.96700
|101> *
|102>
|103>                          ****END OF INPUT****

CARTESIAN COORDINATES (ANGSTROEM)
---------------------------------
  C     -3.040000    6.488000    0.229000
  C      1.474000    4.041000    0.057000
  C     -2.802000    4.093000    0.049000
  C     -4.198000    4.015000   -0.072000
  C     -4.962000    5.164000   -0.041000
  C     -5.226000    7.593000    0.101000
  C      0.132000    4.307000    0.061000
  C     -0.569000    3.056000    0.047000
  C      1.649000    2.618000    0.023000
  C     -2.233000    5.367000    0.198000
  N     -4.382000    6.378000    0.111000
  N      0.388000    2.067000    0.025000
  N     -2.010000    0.395000   -0.075000
  N     -0.388000   -2.074000   -0.027000
  N      2.010000   -0.401000    0.065000
  C     -1.960000    2.861000    0.024000
  C     -2.623000    1.615000   -0.018000
  C     -5.573000   -4.329000    1.066000
  C     -4.073000    1.471000    0.056000
  C     -4.106000   -2.756000   -0.026000
  C     -4.995000   -2.757000   -1.111000
  C     -6.132000   -3.542000   -1.076000
  C     -7.651000   -5.113000    0.040000
  C     -4.324000    0.141000    0.037000
  C     -3.025000   -0.520000   -0.048000
  C     -4.422000   -3.566000    1.075000
  N     -6.407000   -4.313000    0.001000
  C     -2.867000   -1.922000   -0.040000
  C     -1.650000   -2.624000   -0.027000
  C      3.568000   -6.142000   -1.040000
  C     -1.476000   -4.049000   -0.034000
  C      2.803000   -4.099000   -0.008000
  C      3.657000   -4.384000    1.069000
  C      4.427000   -5.530000    1.059000
  C      5.245000   -7.588000    0.014000
  C     -0.134000   -4.315000   -0.022000
  C      0.568000   -3.064000   -0.027000
  C      2.775000   -5.012000   -1.074000
  N      4.376000   -6.391000    0.017000
  C      1.959000   -2.869000   -0.009000
  C      2.621000   -1.622000    0.009000
  C      5.543000    4.339000   -1.130000
  C      4.070000   -1.479000   -0.094000
  C      4.104000    2.751000   -0.021000
  C      5.027000    2.729000    1.036000
  C      6.166000    3.509000    0.978000
  C      7.619000    5.153000   -0.115000
  C      4.321000   -0.148000   -0.092000
  C      3.025000    0.514000    0.015000
  C      4.387000    3.582000   -1.115000
  C      2.866000    1.916000    0.013000
  N      6.413000    4.296000   -0.095000
  H     -2.645000    7.489000    0.354000
  H      2.274000    4.766000    0.081000
  H     -4.696000    3.061000   -0.199000
  H     -6.040000    5.155000   -0.139000
  H     -5.379000    7.912000   -0.933000
  H     -6.183000    7.360000    0.567000
  H     -4.718000    8.377000    0.662000
  H     -0.332000    5.282000    0.069000
  H     -1.162000    5.492000    0.311000
  H      0.182000    1.072000    0.005000
  H     -0.183000   -1.080000   -0.021000
  H     -5.864000   -4.962000    1.895000
  H     -4.794000    2.272000    0.139000
  H     -4.800000   -2.160000   -1.994000
  H     -6.841000   -3.582000   -1.893000
  H     -8.428000   -4.536000    0.546000
  H     -7.956000   -5.337000   -0.981000
  H     -7.456000   -6.037000    0.584000
  H     -5.287000   -0.344000    0.100000
  H     -3.780000   -3.601000    1.947000
  H      3.587000   -6.868000   -1.843000
  H     -2.276000   -4.774000   -0.050000
  H      3.714000   -3.724000    1.926000
  H      5.092000   -5.795000    1.871000
  H      6.205000   -7.329000   -0.439000
  H      5.393000   -7.917000    1.042000
  H      4.759000   -8.373000   -0.564000
  H      0.329000   -5.290000   -0.008000
  H      2.146000   -4.842000   -1.940000
  H      5.808000    4.986000   -1.956000
  H      4.788000   -2.281000   -0.185000
  H      4.860000    2.114000    1.912000
  H      6.901000    3.531000    1.772000
  H      7.383000    6.109000    0.356000
  H      8.414000    4.652000    0.435000
  H      7.921000    5.310000   -1.150000
  H      5.283000    0.336000   -0.179000
  H      3.720000    3.632000   -1.967000

 Total Charge           Charge          ....    0
 Multiplicity           Mult            ....    1
 Number of Electrons    NEL             ....  358
 Basis Dimension        Dim             ....  918

ORBITAL ENERGIES
----------------

  NO   OCC          E(Eh)            E(eV)
   0   2.0000     -15.680575      -426.6902
   1   2.0000     -15.633822      -425.4179
   2   2.0000     -15.632206      -425.3740
   3   2.0000     -15.587459      -424.1563
   4   2.0000     -15.525112      -422.4598
   5   2.0000     -15.515364      -422.1945
   6   2.0000     -15.453992      -420.5245
   7   2.0000     -15.439575      -420.1322
   8   2.0000     -11.330019      -308.3055
   9   2.0000     -11.329065      -308.2795
  10   2.0000     -11.328411      -308.2617
  11   2.0000     -11.299228      -307.4676
  12   2.0000     -11.298604      -307.4507
  13   2.0000     -11.292899      -307.2954
  14   2.0000     -11.291611      -307.2603
  15   2.0000     -11.286750      -307.1281
  16   2.0000     -11.286430      -307.1194
  17   2.0000     -11.282772      -307.0198
  18   2.0000     -11.269146      -306.6491
  19   2.0000     -11.263893      -306.5061
  20   2.0000     -11.262891      -306.4788
  21   2.0000     -11.250917      -306.1530
  22   2.0000     -11.247181      -306.0514
  23   2.0000     -11.237616      -305.7911
  24   2.0000     -11.236972      -305.7735
  25   2.0000     -11.230994      -305.6109
  26   2.0000     -11.230326      -305.5927
  27   2.0000     -11.230017      -305.5843
  28   2.0000     -11.229769      -305.5776
  29   2.0000     -11.211168      -305.0714
  30   2.0000     -11.209783      -305.0337
  31   2.0000     -11.193154      -304.5812
  32   2.0000     -11.191810      -304.5446
  33   2.0000     -11.191736      -304.5426
  34   2.0000     -11.188758      -304.4616
  35   2.0000     -11.188025      -304.4416
  36   2.0000     -11.187276      -304.4213
  37   2.0000     -11.174951      -304.0859
  38   2.0000     -11.172103      -304.0084
  39   2.0000     -11.171525      -303.9926
  40   2.0000     -11.170916      -303.9761
  41   2.0000     -11.168495      -303.9102
  42   2.0000     -11.167315      -303.8781
  43   2.0000     -11.162240      -303.7400
  44   2.0000     -11.160755      -303.6996
  45   2.0000     -11.156978      -303.5968
  46   2.0000     -11.156391      -303.5808
  47   2.0000     -11.150999      -303.4341
  48   2.0000     -11.146856      -303.3214
  49   2.0000     -11.135293      -303.0067
  50   2.0000     -11.129321      -302.8442
  51   2.0000     -11.116964      -302.5080
  52   2.0000      -1.361041       -37.0358
  53   2.0000      -1.321091       -35.9487
  54   2.0000      -1.319937       -35.9173
  55   2.0000      -1.279682       -34.8219
  56   2.0000      -1.226282       -33.3688
  57   2.0000      -1.210245       -32.9324
  58   2.0000      -1.173726       -31.9387
  59   2.0000      -1.150719       -31.3127
  60   2.0000      -1.144194       -31.1351
  61   2.0000      -1.110333       -30.2137
  62   2.0000      -1.109049       -30.1788
  63   2.0000      -1.082680       -29.4612
  64   2.0000      -1.076749       -29.2998
  65   2.0000      -1.045287       -28.4437
  66   2.0000      -1.044557       -28.4239
  67   2.0000      -1.041500       -28.3407
  68   2.0000      -1.015006       -27.6197
  69   2.0000      -1.013962       -27.5913
  70   2.0000      -1.008975       -27.4556
  71   2.0000      -0.993689       -27.0396
  72   2.0000      -0.985454       -26.8156
  73   2.0000      -0.982054       -26.7231
  74   2.0000      -0.973690       -26.4954
  75   2.0000      -0.962335       -26.1865
  76   2.0000      -0.954942       -25.9853
  77   2.0000      -0.946179       -25.7468
  78   2.0000      -0.938883       -25.5483
  79   2.0000      -0.916589       -24.9416
  80   2.0000      -0.911121       -24.7929
  81   2.0000      -0.898125       -24.4392
  82   2.0000      -0.877416       -23.8757
  83   2.0000      -0.872285       -23.7361
  84   2.0000      -0.871016       -23.7015
  85   2.0000      -0.861091       -23.4315
  86   2.0000      -0.844115       -22.9695
  87   2.0000      -0.837722       -22.7956
  88   2.0000      -0.829089       -22.5607
  89   2.0000      -0.796363       -21.6702
  90   2.0000      -0.788905       -21.4672
  91   2.0000      -0.772054       -21.0087
  92   2.0000      -0.753496       -20.5037
  93   2.0000      -0.734082       -19.9754
  94   2.0000      -0.728015       -19.8103
  95   2.0000      -0.725845       -19.7513
  96   2.0000      -0.720138       -19.5959
  97   2.0000      -0.718027       -19.5385
  98   2.0000      -0.713964       -19.4279
  99   2.0000      -0.699142       -19.0246
 100   2.0000      -0.698503       -19.0072
 101   2.0000      -0.694212       -18.8905
 102   2.0000      -0.685700       -18.6588
 103   2.0000      -0.684797       -18.6343
 104   2.0000      -0.678945       -18.4750
 105   2.0000      -0.674586       -18.3564
 106   2.0000      -0.673017       -18.3137
 107   2.0000      -0.660537       -17.9741
 108   2.0000      -0.658233       -17.9114
 109   2.0000      -0.652837       -17.7646
 110   2.0000      -0.652201       -17.7473
 111   2.0000      -0.646717       -17.5981
 112   2.0000      -0.645860       -17.5747
 113   2.0000      -0.637946       -17.3594
 114   2.0000      -0.635380       -17.2896
 115   2.0000      -0.628405       -17.0998
 116   2.0000      -0.623074       -16.9547
 117   2.0000      -0.620148       -16.8751
 118   2.0000      -0.613200       -16.6860
 119   2.0000      -0.612235       -16.6598
 120   2.0000      -0.612054       -16.6548
 121   2.0000      -0.611618       -16.6430
 122   2.0000      -0.601230       -16.3603
 123   2.0000      -0.589045       -16.0287
 124   2.0000      -0.581561       -15.8251
 125   2.0000      -0.580974       -15.8091
 126   2.0000      -0.580358       -15.7923
 127   2.0000      -0.571525       -15.5520
 128   2.0000      -0.566885       -15.4257
 129   2.0000      -0.560034       -15.2393
 130   2.0000      -0.555236       -15.1087
 131   2.0000      -0.548180       -14.9167
 132   2.0000      -0.542941       -14.7742
 133   2.0000      -0.540483       -14.7073
 134   2.0000      -0.538628       -14.6568
 135   2.0000      -0.536101       -14.5880
 136   2.0000      -0.531508       -14.4631
 137   2.0000      -0.518116       -14.0986
 138   2.0000      -0.517168       -14.0729
 139   2.0000      -0.514251       -13.9935
 140   2.0000      -0.512310       -13.9407
 141   2.0000      -0.510030       -13.8786
 142   2.0000      -0.508123       -13.8267
 143   2.0000      -0.504737       -13.7346
 144   2.0000      -0.502219       -13.6661
 145   2.0000      -0.495275       -13.4771
 146   2.0000      -0.488564       -13.2945
 147   2.0000      -0.481083       -13.0909
 148   2.0000      -0.476626       -12.9697
 149   2.0000      -0.468008       -12.7351
 150   2.0000      -0.466220       -12.6865
 151   2.0000      -0.456574       -12.4240
 152   2.0000      -0.451649       -12.2900
 153   2.0000      -0.445197       -12.1144
 154   2.0000      -0.437994       -11.9184
 155   2.0000      -0.427558       -11.6345
 156   2.0000      -0.409464       -11.1421
 157   2.0000      -0.391634       -10.6569
 158   2.0000      -0.388788       -10.5795
 159   2.0000      -0.387343       -10.5401
 160   2.0000      -0.378737       -10.3060
 161   2.0000      -0.373616       -10.1666
 162   2.0000      -0.363268        -9.8850
 163   2.0000      -0.356628        -9.7043
 164   2.0000      -0.356024        -9.6879
 165   2.0000      -0.342025        -9.3070
 166   2.0000      -0.337697        -9.1892
 167   2.0000      -0.324864        -8.8400
 168   2.0000      -0.320510        -8.7215
 169   2.0000      -0.305536        -8.3140
 170   2.0000      -0.299306        -8.1445
 171   2.0000      -0.285653        -7.7730
 172   2.0000      -0.278181        -7.5697
 173   2.0000      -0.263578        -7.1723
 174   2.0000      -0.241788        -6.5794
 175   2.0000      -0.190021        -5.1707
 176   2.0000      -0.181377        -4.9355
 177   2.0000      -0.080280        -2.1845
 178   2.0000      -0.059906        -1.6301
 179   0.0000       0.028327         0.7708
 180   0.0000       0.065175         1.7735
 181   0.0000       0.090066         2.4508
 182   0.0000       0.105747         2.8775
 183   0.0000       0.116655         3.1743

MULLIKEN ATOMIC CHARGES
-----------------------
   0 C :    0.228652
   1 N :   -0.455530
   2 C :   -0.073623
   3 N :   -0.341567
   4 C :   -0.094642
   5 N :   -0.568967
   6 C :   -0.103776
   7 N :   -0.341152
   8 C :    0.216217
   9 N :   -0.562321
  10 C :    0.119427
  11 N :   -0.438488
  12 C :   -0.047315
  13 N :   -0.429151
  14 C :    0.209763
  15 N :   -0.440839
  16 C :    0.235321
  17 C :   -0.119126
  18 C :   -0.162493
  19 C :    0.203221
  20 C :    0.213854
  21 C :   -0.045947
  22 C :   -0.089967
  23 C :   -0.039596
  24 C :    0.193247
  25 C :    0.114615
  26 C :   -0.092640
  27 C :    0.217084
  28 C :   -0.061904
  29 C :   -0.184039
  30 C :    0.246293
  31 C :    0.230563
  32 C :   -0.061555
  33 C :   -0.059653
  34 C :   -0.051329
  35 C :    0.229203
  36 C :    0.108100
  37 C :   -0.064307
  38 C :    0.230837
  39 C :   -0.057489
  40 C :   -0.181469
  41 C :    0.226146
  42 C :    0.197450
  43 C :   -0.072599
  44 C :   -0.089583
  45 C :   -0.061826
  46 C :    0.212116
  47 C :    0.115292
  48 C :   -0.066405
  49 C :    0.238139
  50 C :   -0.045880
  51 C :   -0.193912
  52 H :    0.033803
  53 H :   -0.018394
  54 H :    0.044377
  55 H :    0.032438
  56 H :    0.049049
  57 H :    0.047969
  58 H :    0.045913
  59 H :   -0.019676
  60 H :    0.051152
  61 H :    0.171005
  62 H :    0.175547
  63 H :    0.055248
  64 H :   -0.032759
  65 H :    0.046704
  66 H :    0.055443
  67 H :    0.062439
  68 H :    0.057133
  69 H :    0.056289
  70 H :   -0.030158
  71 H :    0.044771
  72 H :    0.071714
  73 H :   -0.007886
  74 H :    0.060779
  75 H :    0.071187
  76 H :    0.075317
  77 H :    0.068280
  78 H :    0.067592
  79 H :   -0.016775
  80 H :    0.061723
  81 H :    0.054654
  82 H :   -0.024979
  83 H :    0.041984
  84 H :    0.054378
  85 H :    0.061057
  86 H :    0.055624
  87 H :    0.057411
  88 H :   -0.014309
  89 H :    0.047508
Sum of atomic charges:   -0.0000000

LOEWDIN ATOMIC CHARGES
----------------------
   0 C :   -0.016599
   1 N :    0.122113
   2 C :   -0.100410
   3 N :    0.182381
   4 C :   -0.011817
   5 N :   -0.134367
   6 C :   -0.018263
   7 N :    0.174895
   8 C :   -0.023122
   9 N :   -0.140653
  10 C :    0.022646
  11 N :    0.141791
  12 C :   -0.096284
  13 N :    0.166912
  14 C :   -0.015374
  15 N :    0.139108
  16 C :   -0.061027
  17 C :   -0.028619
  18 C :   -0.113768
  19 C :   -0.073058
  20 C :    0.004900
  21 C :   -0.102050
  22 C :    0.037354
  23 C :   -0.014577
  24 C :   -0.012994
  25 C :    0.029781
  26 C :   -0.108306
  27 C :   -0.117329
  28 C :   -0.027726
  29 C :   -0.099489
  30 C :   -0.029471
  31 C :    0.024811
  32 C :   -0.094285
  33 C :    0.083179
  34 C :   -0.015114
  35 C :    0.023960
  36 C :    0.035388
  37 C :   -0.093889
  38 C :   -0.052620
  39 C :   -0.017341
  40 C :   -0.108844
  41 C :   -0.091035
  42 C :   -0.010349
  43 C :   -0.099196
  44 C :    0.034174
  45 C :   -0.028442
  46 C :    0.002499
  47 C :    0.029577
  48 C :   -0.094534
  49 C :   -0.069015
  50 C :   -0.018301
  51 C :   -0.108559
  52 H :    0.022138
  53 H :    0.002339
  54 H :   -0.011823
  55 H :    0.021627
  56 H :    0.021863
  57 H :    0.026363
  58 H :    0.026364
  59 H :    0.002345
  60 H :   -0.007852
  61 H :    0.060245
  62 H :    0.061915
  63 H :    0.030728
  64 H :    0.001010
  65 H :    0.045749
  66 H :    0.029144
  67 H :    0.028222
  68 H :    0.031581
  69 H :    0.030262
  70 H :   -0.004899
  71 H :    0.043469
  72 H :    0.037896
  73 H :    0.007196
  74 H :    0.050837
  75 H :    0.037611
  76 H :    0.035011
  77 H :    0.036320
  78 H :    0.036008
  79 H :    0.002881
  80 H :    0.050940
  81 H :    0.029198
  82 H :   -0.002795
  83 H :    0.042504
  84 H :    0.029987
  85 H :    0.027481
  86 H :    0.030220
  87 H :    0.031497
  88 H :    0.002479
  89 H :    0.045291

  Mayer bond orders larger than 0.100000
B(  0-C ,  1-N ) :   1.1040 B(  0-C , 17-C ) :   1.7219 B(  0-C , 52-H ) :   0.9600
B(  1-N ,  8-C ) :   1.0890 B(  1-N , 10-C ) :   0.9777 B(  2-C , 12-C ) :   1.4834
B(  2-C , 16-C ) :   1.3773 B(  2-C , 53-H ) :   0.9716 B(  3-N , 14-C ) :   1.2242
B(  3-N , 16-C ) :   1.1787 B(  3-N , 61-H ) :   0.8980 B(  4-C ,  6-C ) :   1.2235
B(  4-C , 17-C ) :   1.2250 B(  4-C , 18-C ) :   1.4836 B(  5-N , 19-C ) :   1.4602
B(  5-N , 27-C ) :   1.3687 B(  6-C ,  8-C ) :   1.7293 B(  6-C , 54-H ) :   0.8539
B(  7-N , 30-C ) :   1.1952 B(  7-N , 38-C ) :   1.1892 B(  7-N , 62-H ) :   0.8967
B(  8-C , 55-H ) :   0.9604 B(  9-N , 41-C ) :   1.3944 B(  9-N , 49-C ) :   1.4250
B( 10-C , 56-H ) :   0.9776 B( 10-C , 57-H ) :   0.9827 B( 10-C , 58-H ) :   0.9835
B( 11-N , 20-C ) :   1.1312 B( 11-N , 24-C ) :   1.1065 B( 11-N , 25-C ) :   0.9603
B( 12-C , 14-C ) :   1.3615 B( 12-C , 59-H ) :   0.9133 B( 13-N , 31-C ) :   1.1623
B( 13-N , 35-C ) :   1.1616 B( 13-N , 36-C ) :   0.9409 B( 14-C , 18-C ) :   1.1155
B( 15-N , 42-C ) :   1.1078 B( 15-N , 46-C ) :   1.1253 B( 15-N , 47-C ) :   0.9610
B( 16-C , 51-C ) :   1.1673 B( 17-C , 60-H ) :   0.8714 B( 18-C , 19-C ) :   1.1124
B( 19-C , 21-C ) :   1.2553 B( 20-C , 28-C ) :   1.6289 B( 20-C , 63-H ) :   0.9702
B( 21-C , 26-C ) :   1.5755 B( 21-C , 64-H ) :   0.8991 B( 22-C , 23-C ) :   1.2895
B( 22-C , 28-C ) :   1.2636 B( 22-C , 29-C ) :   1.2277 B( 23-C , 24-C ) :   1.6202
B( 23-C , 65-H ) :   0.9703 B( 24-C , 66-H ) :   0.9695 B( 25-C , 67-H ) :   0.9761
B( 25-C , 68-H ) :   0.9828 B( 25-C , 69-H ) :   0.9824 B( 26-C , 27-C ) :   1.2664
B( 26-C , 70-H ) :   0.9657 B( 27-C , 29-C ) :   1.2040 B( 28-C , 71-H ) :   0.9720
B( 29-C , 30-C ) :   1.2481 B( 30-C , 32-C ) :   1.2778 B( 31-C , 39-C ) :   1.5866
B( 31-C , 72-H ) :   0.9681 B( 32-C , 37-C ) :   1.5809 B( 32-C , 73-H ) :   0.9786
B( 33-C , 34-C ) :   1.3076 B( 33-C , 39-C ) :   1.3051 B( 33-C , 40-C ) :   1.1745
B( 34-C , 35-C ) :   1.5844 B( 34-C , 74-H ) :   0.9696 B( 35-C , 75-H ) :   0.9681
B( 36-C , 76-H ) :   0.9768 B( 36-C , 77-H ) :   0.9816 B( 36-C , 78-H ) :   0.9823
B( 37-C , 38-C ) :   1.2841 B( 37-C , 79-H ) :   0.9764 B( 38-C , 40-C ) :   1.2349
B( 39-C , 80-H ) :   0.9705 B( 40-C , 41-C ) :   1.2509 B( 41-C , 43-C ) :   1.1838
B( 42-C , 50-C ) :   1.6327 B( 42-C , 81-H ) :   0.9696 B( 43-C , 48-C ) :   1.6693
B( 43-C , 82-H ) :   0.9721 B( 44-C , 45-C ) :   1.2635 B( 44-C , 50-C ) :   1.2729
B( 44-C , 51-C ) :   1.2599 B( 45-C , 46-C ) :   1.6341 B( 45-C , 83-H ) :   0.9718
B( 46-C , 84-H ) :   0.9700 B( 47-C , 85-H ) :   0.9762 B( 47-C , 86-H ) :   0.9829
B( 47-C , 87-H ) :   0.9824 B( 48-C , 49-C ) :   1.1871 B( 48-C , 88-H ) :   0.9749
B( 49-C , 51-C ) :   1.2468 B( 50-C , 89-H ) :   0.9708 B( 54-H , 64-H ) :   0.1217
B( 59-H , 60-H ) :   0.1003

MP2 TOTAL ENERGY:    -2130.757982024 Eh
FINAL SINGLE POINT ENERGY     -2130.757982024130

DIPOLE MOMENT
-------------
                                X             Y             Z
Electronic contribution:      2.92399      -4.35993      -0.07584
Nuclear contribution   :     -0.03189       0.16628       0.09154
                        -----------------------------------------
Total Dipole Moment    :      2.89210      -4.19365       0.01571
                        -----------------------------------------
Magnitude (a.u.)       :      5.09423
Magnitude (Debye)      :     12.94850

Rotational constants in cm-1:     0.001504     0.001478     0.000760
Rotational constants in MHz :    45.074589    44.297748    22.781458

                             ****ORCA TERMINATED NORMALLY****
TOTAL RUN TIME: 0 days 1 hours 0 minutes 8 seconds 476 msec
