                         Program Version 5.0.4 -  RELEASE  -
|  1> ! PAL2
|  2> ! mp2 cc-pvdz TightSCF  NoKeepInts
|  3>
|  4> %scf
|  5>   MaxCore 2000
|  6> end
|  7> %mp2
|  8>   MaxCore 2000
|  9> end
| 10> * xyz 0 1
| 11>    C       -3.89600         5.92900        -1.07200
| 12>    C        1.47400         4.04100         0.05700
| 13>    C       -2.80200         4.09300         0.04900
| 14>    C       -3.29800         4.60300         1.25900
| 15>    C       -4.07100         5.74700         1.26400
| 16>    C       -5.22000         7.59700         0.14700
| 17>    C        0.13200         4.30700         0.06100
| 18>    C       -0.56900         3.05600         0.04700
| 19>    C        1.64900         2.61800         0.02300
| 20>    C       -3.12300         4.78600        -1.12900
| 21>    N       -4.35700         6.39500         0.11100
| 22>    N        0.38800         2.06700         0.02500
| 23>    N       -2.01000         0.39500        -0.07500
| 24>    N       -0.38800        -2.07400        -0.02700
| 25>    N        2.01000        -0.40100         0.06500
| 26>    C       -1.96000         2.86100         0.02400
| 27>    C       -2.62300         1.61500        -0.01800
| 28>    C       -5.57300        -4.32900         1.06600
| 29>    C       -4.07300         1.47100         0.05600
| 30>    C       -4.10600        -2.75600        -0.02600
| 31>    C       -4.99500        -2.75700        -1.11100
| 32>    C       -6.13200        -3.54200        -1.07600
| 33>    C       -7.65100        -5.11300         0.04000
| 34>    C       -4.32400         0.14100         0.03700
| 35>    C       -3.02500        -0.52000        -0.04800
| 36>    C       -4.42200        -3.56600         1.07500
| 37>    N       -6.40700        -4.31300         0.00100
| 38>    C       -2.86700        -1.92200        -0.04000
| 39>    C       -1.65000        -2.62400        -0.02700
| 40>    C        3.56800        -6.14200        -1.04000
| 41>    C       -1.47600        -4.04900        -0.03400
| 42>    C        2.80300        -4.09900        -0.00800
| 43>    C        3.65700        -4.38400         1.06900
| 44>    C        4.42700        -5.53000         1.05900
| 45>    C        5.24500        -7.58800         0.01400
| 46>    C       -0.13400        -4.31500        -0.02200
| 47>    C        0.56800        -3.06400        -0.02700
| 48>    C        2.77500        -5.01200        -1.07400
| 49>    N        4.37600        -6.39100         0.01700
| 50>    C        1.95900        -2.86900        -0.00900
| 51>    C        2.62100        -1.62200         0.00900
| 52>    C        5.54300         4.33900        -1.13000
| 53>    C        4.07000        -1.47900        -0.09400
| 54>    C        4.10400         2.75100        -0.02100
| 55>    C        5.02700         2.72900         1.03600
| 56>    C        6.16600         3.50900         0.97800
| 57>    C        7.61900         5.15300        -0.11500
| 58>    C        4.32100        -0.14800        -0.09200
| 59>    C        3.02500         0.51400         0.01500
| 60>    C        4.38700         3.58200        -1.11500
| 61>    C        2.86600         1.91600         0.01300
| 62>    N        6.41300         4.29600        -0.09500
| 63>    H       -4.15700         6.50200        -1.95300
| 64>    H        2.27400         4.76600         0.08100
| 65>    H       -3.09200         4.10800         2.20000
| 66>    H       -4.48200         6.17300         2.17000
| 67>    H       -6.26600         7.28500         0.10900
| 68>    H       -5.02400         8.14200         1.06900
| 69>    H       -4.98500         8.22200        -0.71400
| 70>    H       -0.33200         5.28200         0.06900
| 71>    H       -2.75900         4.45000        -2.09300
| 72>    H        0.18200         1.07200         0.00500
| 73>    H       -0.18300        -1.08000        -0.02100
| 74>    H       -5.86400        -4.96200         1.89500
| 75>    H       -4.79400         2.27200         0.13900
| 76>    H       -4.80000        -2.16000        -1.99400
| 77>    H       -6.84100        -3.58200        -1.89300
| 78>    H       -8.42800        -4.53600         0.54600
| 79>    H       -7.95600        -5.33700        -0.98100
| 80>    H       -7.45600        -6.03700         0.58400
| 81>    H       -5.28700        -0.34400         0.10000
| 82>    H       -3.78000        -3.60100         1.94700
| 83>    H        3.58700        -6.86800        -1.84300
| 84>    H       -2.27600        -4.77400        -0.05000
| 85>    H        3.71400        -3.72400         1.92600
| 86>    H        5.09200        -5.79500         1.87100
| 87>    H        6.20500        -7.32900        -0.43900
| 88>    H        5.39300        -7.91700         1.04200
| 89>    H        4.75900        -8.37300        -0.56400
| 90>    H        0.32900        -5.29000        -0.00800
| 91>    H        2.14600        -4.84200        -1.94000
| 92>    H        5.80800         4.98600        -1.95600
| 93>    H        4.78800        -2.28100        -0.18500
| 94>    H        4.86000         2.11400         1.91200
| 95>    H        6.90100         3.53100         1.77200
| 96>    H        7.38300         6.10900         0.35600
| 97>    H        8.41400         4.65200         0.43500
| 98>    H        7.92100         5.31000        -1.15000
| 99>    H        5.28300         0.33600        -0.17900
|100>    H        3.72000         3.63200        -1.96700
|101> *
|102>
|103>                          ****END OF INPUT****

CARTESIAN COORDINATES (ANGSTROEM)
---------------------------------
  C     -3.896000    5.929000   -1.072000
  C      1.474000    4.041000    0.057000
  C     -2.802000    4.093000    0.049000
  C     -3.298000    4.603000    1.259000
  C     -4.071000    5.747000    1.264000
  C     -5.220000    7.597000    0.147000
  C      0.132000    4.307000    0.061000
  C     -0.569000    3.056000    0.047000
  C      1.649000    2.618000    0.023000
  C     -3.123000    4.786000   -1.129000
  N     -4.357000    6.395000    0.111000
  N      0.388000    2.067000    0.025000
  N     -2.010000    0.395000   -0.075000
  N     -0.388000   -2.074000   -0.027000
  N      2.010000   -0.401000    0.065000
  C     -1.960000    2.861000    0.024000
  C     -2.623000    1.615000   -0.018000
  C     -5.573000   -4.329000    1.066000
  C     -4.073000    1.471000    0.056000
  C     -4.106000   -2.756000   -0.026000
  C     -4.995000   -2.757000   -1.111000
  C     -6.132000   -3.542000   -1.076000
  C     -7.651000   -5.113000    0.040000
  C     -4.324000    0.141000    0.037000
  C     -3.025000   -0.520000   -0.048000
  C     -4.422000   -3.566000    1.075000
  N     -6.407000   -4.313000    0.001000
  C     -2.867000   -1.922000   -0.040000
  C     -1.650000   -2.624000   -0.027000
  C      3.568000   -6.142000   -1.040000
  C     -1.476000   -4.049000   -0.034000
  C      2.803000   -4.099000   -0.008000
  C      3.657000   -4.384000    1.069000
  C      4.427000   -5.530000    1.059000
  C      5.245000   -7.588000    0.014000
  C     -0.134000   -4.315000   -0.022000
  C      0.568000   -3.064000   -0.027000
  C      2.775000   -5.012000   -1.074000
  N      4.376000   -6.391000    0.017000
  C      1.959000   -2.869000   -0.009000
  C      2.621000   -1.622000    0.009000
  C      5.543000    4.339000   -1.130000
  C      4.070000   -1.479000   -0.094000
  C      4.104000    2.751000   -0.021000
  C      5.027000    2.729000    1.036000
  C      6.166000    3.509000    0.978000
  C      7.619000    5.153000   -0.115000
  C      4.321000   -0.148000   -0.092000
  C      3.025000    0.514000    0.015000
  C      4.387000    3.582000   -1.115000
  C      2.866000    1.916000    0.013000
  N      6.413000    4.296000   -0.095000
  H     -4.157000    6.502000   -1.953000
  H      2.274000    4.766000    0.081000
  H     -3.092000    4.108000    2.200000
  H     -4.482000    6.173000    2.170000
  H     -6.266000    7.285000    0.109000
  H     -5.024000    8.142000    1.069000
  H     -4.985000    8.222000   -0.714000
  H     -0.332000    5.282000    0.069000
  H     -2.759000    4.450000   -2.093000
  H      0.182000    1.072000    0.005000
  H     -0.183000   -1.080000   -0.021000
  H     -5.864000   -4.962000    1.895000
  H     -4.794000    2.272000    0.139000
  H     -4.800000   -2.160000   -1.994000
  H     -6.841000   -3.582000   -1.893000
  H     -8.428000   -4.536000    0.546000
  H     -7.956000   -5.337000   -0.981000
  H     -7.456000   -6.037000    0.584000
  H     -5.287000   -0.344000    0.100000
  H     -3.780000   -3.601000    1.947000
  H      3.587000   -6.868000   -1.843000
  H     -2.276000   -4.774000   -0.050000
  H      3.714000   -3.724000    1.926000
  H      5.092000   -5.795000    1.871000
  H      6.205000   -7.329000   -0.439000
  H      5.393000   -7.917000    1.042000
  H      4.759000   -8.373000   -0.564000
  H      0.329000   -5.290000   -0.008000
  H      2.146000   -4.842000   -1.940000
  H      5.808000    4.986000   -1.956000
  H      4.788000   -2.281000   -0.185000
  H      4.860000    2.114000    1.912000
  H      6.901000    3.531000    1.772000
  H      7.383000    6.109000    0.356000
  H      8.414000    4.652000    0.435000
  H      7.921000    5.310000   -1.150000
  H      5.283000    0.336000   -0.179000
  H      3.720000    3.632000   -1.967000

 Total Charge           Charge          ....    0
 Multiplicity           Mult            ....    1
 Number of Electrons    NEL             ....  358
 Basis Dimension        Dim             ....  918

ORBITAL ENERGIES
----------------

  NO   OCC          E(Eh)            E(eV)
   0   2.0000     -15.718531      -427.7230
   1   2.0000     -15.628408      -425.2706
   2   2.0000     -15.618752      -425.0079
   3   2.0000     -15.577117      -423.8749
   4   2.0000     -15.520873      -422.3444
   5   2.0000     -15.504206      -421.8909
   6   2.0000     -15.451120      -420.4464
   7   2.0000     -15.427061      -419.7917
   8   2.0000     -11.357039      -309.0407
   9   2.0000     -11.355232      -308.9916
  10   2.0000     -11.349410      -308.8331
  11   2.0000     -11.312711      -307.8345
  12   2.0000     -11.296334      -307.3889
  13   2.0000     -11.290500      -307.2301
  14   2.0000     -11.289726      -307.2090
  15   2.0000     -11.286016      -307.1081
  16   2.0000     -11.285639      -307.0978
  17   2.0000     -11.281618      -306.9884
  18   2.0000     -11.280448      -306.9566
  19   2.0000     -11.271476      -306.7125
  20   2.0000     -11.263521      -306.4960
  21   2.0000     -11.243523      -305.9518
  22   2.0000     -11.239972      -305.8552
  23   2.0000     -11.232165      -305.6428
  24   2.0000     -11.226687      -305.4937
  25   2.0000     -11.225782      -305.4690
  26   2.0000     -11.223061      -305.3950
  27   2.0000     -11.219119      -305.2878
  28   2.0000     -11.218805      -305.2792
  29   2.0000     -11.211171      -305.0715
  30   2.0000     -11.209294      -305.0204
  31   2.0000     -11.195086      -304.6338
  32   2.0000     -11.194024      -304.6049
  33   2.0000     -11.192715      -304.5693
  34   2.0000     -11.188641      -304.4584
  35   2.0000     -11.187883      -304.4378
  36   2.0000     -11.183685      -304.3235
  37   2.0000     -11.179819      -304.2184
  38   2.0000     -11.179766      -304.2169
  39   2.0000     -11.177581      -304.1574
  40   2.0000     -11.169786      -303.9453
  41   2.0000     -11.165237      -303.8215
  42   2.0000     -11.164377      -303.7981
  43   2.0000     -11.161548      -303.7212
  44   2.0000     -11.160937      -303.7045
  45   2.0000     -11.145041      -303.2720
  46   2.0000     -11.144541      -303.2584
  47   2.0000     -11.140521      -303.1490
  48   2.0000     -11.137610      -303.0698
  49   2.0000     -11.130872      -302.8864
  50   2.0000     -11.117201      -302.5144
  51   2.0000     -11.111487      -302.3589
  52   2.0000      -1.390562       -37.8391
  53   2.0000      -1.316662       -35.8282
  54   2.0000      -1.307743       -35.5855
  55   2.0000      -1.272328       -34.6218
  56   2.0000      -1.224457       -33.3192
  57   2.0000      -1.200193       -32.6589
  58   2.0000      -1.177825       -32.0503
  59   2.0000      -1.164375       -31.6843
  60   2.0000      -1.137235       -30.9457
  61   2.0000      -1.108611       -30.1668
  62   2.0000      -1.105942       -30.0942
  63   2.0000      -1.097525       -29.8652
  64   2.0000      -1.066454       -29.0197
  65   2.0000      -1.056914       -28.7601
  66   2.0000      -1.041109       -28.3300
  67   2.0000      -1.032693       -28.1010
  68   2.0000      -1.015061       -27.6212
  69   2.0000      -1.003977       -27.3196
  70   2.0000      -0.999518       -27.1983
  71   2.0000      -0.994891       -27.0724
  72   2.0000      -0.985475       -26.8161
  73   2.0000      -0.976253       -26.5652
  74   2.0000      -0.964178       -26.2366
  75   2.0000      -0.961346       -26.1595
  76   2.0000      -0.950772       -25.8718
  77   2.0000      -0.940574       -25.5943
  78   2.0000      -0.934453       -25.4278
  79   2.0000      -0.920048       -25.0358
  80   2.0000      -0.912489       -24.8301
  81   2.0000      -0.891008       -24.2456
  82   2.0000      -0.886461       -24.1218
  83   2.0000      -0.868214       -23.6253
  84   2.0000      -0.860194       -23.4071
  85   2.0000      -0.846449       -23.0331
  86   2.0000      -0.829098       -22.5609
  87   2.0000      -0.826803       -22.4985
  88   2.0000      -0.820342       -22.3227
  89   2.0000      -0.794340       -21.6151
  90   2.0000      -0.785903       -21.3855
  91   2.0000      -0.771751       -21.0004
  92   2.0000      -0.739439       -20.1212
  93   2.0000      -0.733588       -19.9619
  94   2.0000      -0.728832       -19.8325
  95   2.0000      -0.723777       -19.6950
  96   2.0000      -0.716211       -19.4891
  97   2.0000      -0.709150       -19.2969
  98   2.0000      -0.707259       -19.2455
  99   2.0000      -0.704358       -19.1665
 100   2.0000      -0.695746       -18.9322
 101   2.0000      -0.688284       -18.7292
 102   2.0000      -0.684213       -18.6184
 103   2.0000      -0.675351       -18.3772
 104   2.0000      -0.672362       -18.2959
 105   2.0000      -0.670511       -18.2455
 106   2.0000      -0.666967       -18.1491
 107   2.0000      -0.661901       -18.0112
 108   2.0000      -0.651987       -17.7415
 109   2.0000      -0.649124       -17.6636
 110   2.0000      -0.648334       -17.6421
 111   2.0000      -0.642169       -17.4743
 112   2.0000      -0.640510       -17.4292
 113   2.0000      -0.634176       -17.2568
 114   2.0000      -0.634106       -17.2549
 115   2.0000      -0.629431       -17.1277
 116   2.0000      -0.626971       -17.0608
 117   2.0000      -0.615182       -16.7399
 118   2.0000      -0.611011       -16.6264
 119   2.0000      -0.609052       -16.5731
 120   2.0000      -0.608317       -16.5531
 121   2.0000      -0.600852       -16.3500
 122   2.0000      -0.591915       -16.1068
 123   2.0000      -0.589416       -16.0388
 124   2.0000      -0.584527       -15.9058
 125   2.0000      -0.578131       -15.7317
 126   2.0000      -0.574843       -15.6423
 127   2.0000      -0.570918       -15.5355
 128   2.0000      -0.570232       -15.5168
 129   2.0000      -0.570118       -15.5137
 130   2.0000      -0.556317       -15.1381
 131   2.0000      -0.543371       -14.7859
 132   2.0000      -0.542023       -14.7492
 133   2.0000      -0.538508       -14.6536
 134   2.0000      -0.533486       -14.5169
 135   2.0000      -0.529361       -14.4046
 136   2.0000      -0.519358       -14.1324
 137   2.0000      -0.515806       -14.0358
 138   2.0000      -0.513606       -13.9759
 139   2.0000      -0.512086       -13.9346
 140   2.0000      -0.509692       -13.8694
 141   2.0000      -0.503220       -13.6933
 142   2.0000      -0.501139       -13.6367
 143   2.0000      -0.497889       -13.5483
 144   2.0000      -0.495305       -13.4779
 145   2.0000      -0.492934       -13.4134
 146   2.0000      -0.488456       -13.2916
 147   2.0000      -0.473410       -12.8821
 148   2.0000      -0.470360       -12.7991
 149   2.0000      -0.466055       -12.6820
 150   2.0000      -0.462392       -12.5823
 151   2.0000      -0.460174       -12.5220
 152   2.0000      -0.451826       -12.2948
 153   2.0000      -0.440719       -11.9926
 154   2.0000      -0.433112       -11.7856
 155   2.0000      -0.431373       -11.7383
 156   2.0000      -0.418146       -11.3783
 157   2.0000      -0.416799       -11.3417
 158   2.0000      -0.411570       -11.1994
 159   2.0000      -0.409292       -11.1374
 160   2.0000      -0.381309       -10.3759
 161   2.0000      -0.369565       -10.0564
 162   2.0000      -0.353244        -9.6122
 163   2.0000      -0.351851        -9.5743
 164   2.0000      -0.345785        -9.4093
 165   2.0000      -0.341359        -9.2889
 166   2.0000      -0.338099        -9.2001
 167   2.0000      -0.317350        -8.6355
 168   2.0000      -0.312207        -8.4956
 169   2.0000      -0.304852        -8.2955
 170   2.0000      -0.298037        -8.1100
 171   2.0000      -0.282615        -7.6904
 172   2.0000      -0.275417        -7.4945
 173   2.0000      -0.266368        -7.2482
 174   2.0000      -0.229358        -6.2411
 175   2.0000      -0.183036        -4.9807
 176   2.0000      -0.173254        -4.7145
 177   2.0000      -0.062666        -1.7052
 178   2.0000      -0.050725        -1.3803
 179   0.0000       0.035984         0.9792
 180   0.0000       0.054532         1.4839
 181   0.0000       0.074540         2.0283
 182   0.0000       0.098641         2.6842
 183   0.0000       0.102123         2.7789

MULLIKEN ATOMIC CHARGES
-----------------------
   0 C :    0.239257
   1 N :   -0.411239
   2 C :   -0.066049
   3 N :   -0.343937
   4 C :   -0.065670
   5 N :   -0.566334
   6 C :   -0.025589
   7 N :   -0.336724
   8 C :    0.234632
   9 N :   -0.566469
  10 C :    0.103582
  11 N :   -0.440180
  12 C :   -0.058598
  13 N :   -0.451844
  14 C :    0.220304
  15 N :   -0.441807
  16 C :    0.257419
  17 C :   -0.033058
  18 C :   -0.177405
  19 C :    0.231698
  20 C :    0.186167
  21 C :   -0.068352
  22 C :   -0.092154
  23 C :   -0.068915
  24 C :    0.217427
  25 C :    0.115182
  26 C :   -0.064892
  27 C :    0.249727
  28 C :   -0.039015
  29 C :   -0.197995
  30 C :    0.219743
  31 C :    0.186046
  32 C :   -0.064680
  33 C :   -0.104091
  34 C :   -0.050731
  35 C :    0.176725
  36 C :    0.121546
  37 C :   -0.070976
  38 C :    0.244814
  39 C :   -0.065484
  40 C :   -0.205743
  41 C :    0.216316
  42 C :    0.212644
  43 C :   -0.077610
  44 C :   -0.092912
  45 C :   -0.037150
  46 C :    0.182188
  47 C :    0.116903
  48 C :   -0.082267
  49 C :    0.206357
  50 C :   -0.068845
  51 C :   -0.188303
  52 H :    0.083780
  53 H :   -0.006162
  54 H :    0.069217
  55 H :    0.082379
  56 H :    0.086818
  57 H :    0.077574
  58 H :    0.075599
  59 H :   -0.029735
  60 H :    0.068334
  61 H :    0.177603
  62 H :    0.167286
  63 H :    0.051821
  64 H :   -0.035542
  65 H :    0.039771
  66 H :    0.054115
  67 H :    0.057280
  68 H :    0.055462
  69 H :    0.058597
  70 H :   -0.012367
  71 H :    0.045949
  72 H :    0.035914
  73 H :   -0.019682
  74 H :    0.027935
  75 H :    0.034584
  76 H :    0.044909
  77 H :    0.045082
  78 H :    0.044353
  79 H :   -0.011668
  80 H :    0.027721
  81 H :    0.049834
  82 H :   -0.022849
  83 H :    0.042493
  84 H :    0.048764
  85 H :    0.053677
  86 H :    0.056265
  87 H :    0.054113
  88 H :   -0.030939
  89 H :    0.038058
Sum of atomic charges:   -0.0000000

LOEWDIN ATOMIC CHARGES
----------------------
   0 C :    0.042514
   1 N :    0.196682
   2 C :   -0.097970
   3 N :    0.170796
   4 C :    0.124772
   5 N :   -0.148871
   6 C :   -0.008798
   7 N :    0.177528
   8 C :    0.039457
   9 N :   -0.138545
  10 C :    0.041370
  11 N :    0.138076
  12 C :   -0.096402
  13 N :    0.111249
  14 C :   -0.062361
  15 N :    0.134023
  16 C :   -0.014980
  17 C :   -0.011987
  18 C :   -0.121943
  19 C :   -0.089505
  20 C :   -0.020543
  21 C :   -0.098866
  22 C :    0.030993
  23 C :   -0.035277
  24 C :    0.007217
  25 C :    0.028977
  26 C :   -0.090783
  27 C :   -0.051344
  28 C :   -0.014744
  29 C :   -0.119299
  30 C :   -0.066473
  31 C :   -0.028788
  32 C :   -0.101179
  33 C :   -0.009883
  34 C :   -0.027513
  35 C :   -0.037139
  36 C :    0.022590
  37 C :   -0.111035
  38 C :   -0.028449
  39 C :   -0.035143
  40 C :   -0.114022
  41 C :   -0.093047
  42 C :    0.000942
  43 C :   -0.114864
  44 C :    0.025699
  45 C :   -0.013652
  46 C :   -0.025550
  47 C :    0.028028
  48 C :   -0.115078
  49 C :   -0.119816
  50 C :   -0.034722
  51 C :   -0.107621
  52 H :    0.042970
  53 H :    0.008135
  54 H :    0.056676
  55 H :    0.042624
  56 H :    0.041059
  57 H :    0.040281
  58 H :    0.040154
  59 H :   -0.000975
  60 H :    0.056209
  61 H :    0.062867
  62 H :    0.057433
  63 H :    0.028215
  64 H :   -0.005792
  65 H :    0.041197
  66 H :    0.029585
  67 H :    0.025891
  68 H :    0.030772
  69 H :    0.031065
  70 H :    0.003679
  71 H :    0.045184
  72 H :    0.021326
  73 H :    0.001572
  74 H :    0.037122
  75 H :    0.020336
  76 H :    0.019356
  77 H :    0.025452
  78 H :    0.025155
  79 H :    0.005606
  80 H :    0.036224
  81 H :    0.027775
  82 H :   -0.001253
  83 H :    0.044094
  84 H :    0.026454
  85 H :    0.023993
  86 H :    0.030285
  87 H :    0.029919
  88 H :   -0.005476
  89 H :    0.040110

  Mayer bond orders larger than 0.100000
B(  0-C ,  1-N ) :   1.2122 B(  0-C , 17-C ) :   1.5126 B(  0-C , 52-H ) :   0.9666
B(  1-N ,  8-C ) :   1.2058 B(  1-N , 10-C ) :   0.9239 B(  2-C , 12-C ) :   1.5822
B(  2-C , 16-C ) :   1.2714 B(  2-C , 53-H ) :   0.9793 B(  3-N , 14-C ) :   1.1747
B(  3-N , 16-C ) :   1.2020 B(  3-N , 61-H ) :   0.8950 B(  4-C ,  6-C ) :   1.3632
B(  4-C , 17-C ) :   1.3613 B(  4-C , 18-C ) :   1.0494 B(  5-N , 19-C ) :   1.3632
B(  5-N , 27-C ) :   1.4494 B(  6-C ,  8-C ) :   1.5114 B(  6-C , 54-H ) :   0.9704
B(  7-N , 30-C ) :   1.1841 B(  7-N , 38-C ) :   1.2158 B(  7-N , 62-H ) :   0.9016
B(  8-C , 55-H ) :   0.9674 B(  9-N , 41-C ) :   1.4364 B(  9-N , 49-C ) :   1.3912
B( 10-C , 56-H ) :   0.9767 B( 10-C , 57-H ) :   0.9806 B( 10-C , 58-H ) :   0.9816
B( 11-N , 20-C ) :   1.0955 B( 11-N , 24-C ) :   1.1341 B( 11-N , 25-C ) :   0.9628
B( 12-C , 14-C ) :   1.2715 B( 12-C , 59-H ) :   0.9767 B( 13-N , 31-C ) :   1.0808
B( 13-N , 35-C ) :   1.0708 B( 13-N , 36-C ) :   0.9831 B( 14-C , 18-C ) :   1.2630
B( 15-N , 42-C ) :   1.1265 B( 15-N , 46-C ) :   1.0881 B( 15-N , 47-C ) :   0.9666
B( 16-C , 51-C ) :   1.2491 B( 17-C , 60-H ) :   0.9709 B( 18-C , 19-C ) :   1.3145
B( 19-C , 21-C ) :   1.1603 B( 20-C , 28-C ) :   1.6300 B( 20-C , 63-H ) :   0.9710
B( 21-C , 26-C ) :   1.6844 B( 21-C , 64-H ) :   0.9714 B( 22-C , 23-C ) :   1.2542
B( 22-C , 28-C ) :   1.2793 B( 22-C , 29-C ) :   1.2586 B( 23-C , 24-C ) :   1.6360
B( 23-C , 65-H ) :   0.9723 B( 24-C , 66-H ) :   0.9691 B( 25-C , 67-H ) :   0.9762
B( 25-C , 68-H ) :   0.9834 B( 25-C , 69-H ) :   0.9819 B( 26-C , 27-C ) :   1.1704
B( 26-C , 70-H ) :   0.9758 B( 27-C , 29-C ) :   1.2438 B( 28-C , 71-H ) :   0.9709
B( 29-C , 30-C ) :   1.1726 B( 30-C , 32-C ) :   1.3534 B( 31-C , 39-C ) :   1.6866
B( 31-C , 72-H ) :   0.9709 B( 32-C , 37-C ) :   1.5067 B( 32-C , 73-H ) :   0.9771
B( 33-C , 34-C ) :   1.2310 B( 33-C , 39-C ) :   1.2236 B( 33-C , 40-C ) :   1.3620
B( 34-C , 35-C ) :   1.6852 B( 34-C , 74-H ) :   0.9710 B( 35-C , 75-H ) :   0.9709
B( 36-C , 76-H ) :   0.9755 B( 36-C , 77-H ) :   0.9826 B( 36-C , 78-H ) :   0.9838
B( 37-C , 38-C ) :   1.3469 B( 37-C , 79-H ) :   0.9793 B( 38-C , 40-C ) :   1.1766
B( 39-C , 80-H ) :   0.9721 B( 40-C , 41-C ) :   1.1672 B( 41-C , 43-C ) :   1.2568
B( 42-C , 50-C ) :   1.6426 B( 42-C , 81-H ) :   0.9696 B( 43-C , 48-C ) :   1.5943
B( 43-C , 82-H ) :   0.9757 B( 44-C , 45-C ) :   1.2814 B( 44-C , 50-C ) :   1.2481
B( 44-C , 51-C ) :   1.2460 B( 45-C , 46-C ) :   1.6330 B( 45-C , 83-H ) :   0.9702
B( 46-C , 84-H ) :   0.9709 B( 47-C , 85-H ) :   0.9759 B( 47-C , 86-H ) :   0.9825
B( 47-C , 87-H ) :   0.9830 B( 48-C , 49-C ) :   1.2510 B( 48-C , 88-H ) :   0.9726
B( 49-C , 51-C ) :   1.1900 B( 50-C , 89-H ) :   0.9723

MP2 TOTAL ENERGY:    -2130.870498171 Eh
FINAL SINGLE POINT ENERGY     -2130.870498170872

DIPOLE MOMENT
-------------
                                X             Y             Z
Electronic contribution:     -4.61323       5.48916      -0.14745
Nuclear contribution   :     -0.03104       0.16362       0.20349
                        -----------------------------------------
Total Dipole Moment    :     -4.64427       5.65278       0.05604
                        -----------------------------------------
Magnitude (a.u.)       :      7.31616
Magnitude (Debye)      :     18.59621

Rotational constants in cm-1:     0.001498     0.001472     0.000763
Rotational constants in MHz :    44.903905    44.137466    22.867798

                             ****ORCA TERMINATED NORMALLY****
TOTAL RUN TIME: 0 days 1 hours 38 minutes 33 seconds 641 msec
