                         Program Version 5.0.4 -  RELEASE  -
|  1> ! PAL2
|  2> ! mp2 cc-pvdz TightSCF  NoKeepInts
|  3>
|  4> %scf
|  5>   MaxCore 2000
|  6> end
|  7> %mp2
|  8>   MaxCore 2000
|  9> end
| 10> * xyz 0 1
| 11>    C       -3.73300         5.99400         1.20800
| 12>    C        1.47400         4.04100         0.05700
| 13>    C       -2.80200         4.09300         0.04900
| 14>    C       -3.49300         4.51800        -1.09600
| 15>    C       -4.27100         5.65700        -1.05400
| 16>    C       -5.19800         7.61300         0.08900
| 17>    C        0.13200         4.30700         0.06100
| 18>    C       -0.56900         3.05600         0.04700
| 19>    C        1.64900         2.61800         0.02300
| 20>    C       -2.93700         4.86500         1.21300
| 21>    N       -4.38600         6.37600         0.08700
| 22>    N        0.38800         2.06700         0.02500
| 23>    N       -2.01000         0.39500        -0.07500
| 24>    N       -0.38800        -2.07400        -0.02700
| 25>    N        2.01000        -0.40100         0.06500
| 26>    C       -1.96000         2.86100         0.02400
| 27>    C       -2.62300         1.61500        -0.01800
| 28>    C       -5.57300        -4.32900         1.06600
| 29>    C       -4.07300         1.47100         0.05600
| 30>    C       -4.10600        -2.75600        -0.02600
| 31>    C       -4.99500        -2.75700        -1.11100
| 32>    C       -6.13200        -3.54200        -1.07600
| 33>    C       -7.65100        -5.11300         0.04000
| 34>    C       -4.32400         0.14100         0.03700
| 35>    C       -3.02500        -0.52000        -0.04800
| 36>    C       -4.42200        -3.56600         1.07500
| 37>    N       -6.40700        -4.31300         0.00100
| 38>    C       -2.86700        -1.92200        -0.04000
| 39>    C       -1.65000        -2.62400        -0.02700
| 40>    C        3.56800        -6.14200        -1.04000
| 41>    C       -1.47600        -4.04900        -0.03400
| 42>    C        2.80300        -4.09900        -0.00800
| 43>    C        3.65700        -4.38400         1.06900
| 44>    C        4.42700        -5.53000         1.05900
| 45>    C        5.24500        -7.58800         0.01400
| 46>    C       -0.13400        -4.31500        -0.02200
| 47>    C        0.56800        -3.06400        -0.02700
| 48>    C        2.77500        -5.01200        -1.07400
| 49>    N        4.37600        -6.39100         0.01700
| 50>    C        1.95900        -2.86900        -0.00900
| 51>    C        2.62100        -1.62200         0.00900
| 52>    C        5.54300         4.33900        -1.13000
| 53>    C        4.07000        -1.47900        -0.09400
| 54>    C        4.10400         2.75100        -0.02100
| 55>    C        5.02700         2.72900         1.03600
| 56>    C        6.16600         3.50900         0.97800
| 57>    C        7.61900         5.15300        -0.11500
| 58>    C        4.32100        -0.14800        -0.09200
| 59>    C        3.02500         0.51400         0.01500
| 60>    C        4.38700         3.58200        -1.11500
| 61>    C        2.86600         1.91600         0.01300
| 62>    N        6.41300         4.29600        -0.09500
| 63>    H       -3.87600         6.61200         2.08600
| 64>    H        2.27400         4.76600         0.08100
| 65>    H       -3.42100         3.96900        -2.02800
| 66>    H       -4.81500         6.02800        -1.91300
| 67>    H       -4.57800         8.44600        -0.25000
| 68>    H       -6.04500         7.47800        -0.58300
| 69>    H       -5.55100         7.79800         1.10300
| 70>    H       -0.33200         5.28200         0.06900
| 71>    H       -2.44100         4.58100         2.13400
| 72>    H        0.18200         1.07200         0.00500
| 73>    H       -0.18300        -1.08000        -0.02100
| 74>    H       -5.86400        -4.96200         1.89500
| 75>    H       -4.79400         2.27200         0.13900
| 76>    H       -4.80000        -2.16000        -1.99400
| 77>    H       -6.84100        -3.58200        -1.89300
| 78>    H       -8.42800        -4.53600         0.54600
| 79>    H       -7.95600        -5.33700        -0.98100
| 80>    H       -7.45600        -6.03700         0.58400
| 81>    H       -5.28700        -0.34400         0.10000
| 82>    H       -3.78000        -3.60100         1.94700
| 83>    H        3.58700        -6.86800        -1.84300
| 84>    H       -2.27600        -4.77400        -0.05000
| 85>    H        3.71400        -3.72400         1.92600
| 86>    H        5.09200        -5.79500         1.87100
| 87>    H        6.20500        -7.32900        -0.43900
| 88>    H        5.39300        -7.91700         1.04200
| 89>    H        4.75900        -8.37300        -0.56400
| 90>    H        0.32900        -5.29000        -0.00800
| 91>    H        2.14600        -4.84200        -1.94000
| 92>    H        5.80800         4.98600        -1.95600
| 93>    H        4.78800        -2.28100        -0.18500
| 94>    H        4.86000         2.11400         1.91200
| 95>    H        6.90100         3.53100         1.77200
| 96>    H        7.38300         6.10900         0.35600
| 97>    H        8.41400         4.65200         0.43500
| 98>    H        7.92100         5.31000        -1.15000
| 99>    H        5.28300         0.33600        -0.17900
|100>    H        3.72000         3.63200        -1.96700
|101> *
|102>
|103>                          ****END OF INPUT****

CARTESIAN COORDINATES (ANGSTROEM)
---------------------------------
  C     -3.733000    5.994000    1.208000
  C      1.474000    4.041000    0.057000
  C     -2.802000    4.093000    0.049000
  C     -3.493000    4.518000   -1.096000
  C     -4.271000    5.657000   -1.054000
  C     -5.198000    7.613000    0.089000
  C      0.132000    4.307000    0.061000
  C     -0.569000    3.056000    0.047000
  C      1.649000    2.618000    0.023000
  C     -2.937000    4.865000    1.213000
  N     -4.386000    6.376000    0.087000
  N      0.388000    2.067000    0.025000
  N     -2.010000    0.395000   -0.075000
  N     -0.388000   -2.074000   -0.027000
  N      2.010000   -0.401000    0.065000
  C     -1.960000    2.861000    0.024000
  C     -2.623000    1.615000   -0.018000
  C     -5.573000   -4.329000    1.066000
  C     -4.073000    1.471000    0.056000
  C     -4.106000   -2.756000   -0.026000
  C     -4.995000   -2.757000   -1.111000
  C     -6.132000   -3.542000   -1.076000
  C     -7.651000   -5.113000    0.040000
  C     -4.324000    0.141000    0.037000
  C     -3.025000   -0.520000   -0.048000
  C     -4.422000   -3.566000    1.075000
  N     -6.407000   -4.313000    0.001000
  C     -2.867000   -1.922000   -0.040000
  C     -1.650000   -2.624000   -0.027000
  C      3.568000   -6.142000   -1.040000
  C     -1.476000   -4.049000   -0.034000
  C      2.803000   -4.099000   -0.008000
  C      3.657000   -4.384000    1.069000
  C      4.427000   -5.530000    1.059000
  C      5.245000   -7.588000    0.014000
  C     -0.134000   -4.315000   -0.022000
  C      0.568000   -3.064000   -0.027000
  C      2.775000   -5.012000   -1.074000
  N      4.376000   -6.391000    0.017000
  C      1.959000   -2.869000   -0.009000
  C      2.621000   -1.622000    0.009000
  C      5.543000    4.339000   -1.130000
  C      4.070000   -1.479000   -0.094000
  C      4.104000    2.751000   -0.021000
  C      5.027000    2.729000    1.036000
  C      6.166000    3.509000    0.978000
  C      7.619000    5.153000   -0.115000
  C      4.321000   -0.148000   -0.092000
  C      3.025000    0.514000    0.015000
  C      4.387000    3.582000   -1.115000
  C      2.866000    1.916000    0.013000
  N      6.413000    4.296000   -0.095000
  H     -3.876000    6.612000    2.086000
  H      2.274000    4.766000    0.081000
  H     -3.421000    3.969000   -2.028000
  H     -4.815000    6.028000   -1.913000
  H     -4.578000    8.446000   -0.250000
  H     -6.045000    7.478000   -0.583000
  H     -5.551000    7.798000    1.103000
  H     -0.332000    5.282000    0.069000
  H     -2.441000    4.581000    2.134000
  H      0.182000    1.072000    0.005000
  H     -0.183000   -1.080000   -0.021000
  H     -5.864000   -4.962000    1.895000
  H     -4.794000    2.272000    0.139000
  H     -4.800000   -2.160000   -1.994000
  H     -6.841000   -3.582000   -1.893000
  H     -8.428000   -4.536000    0.546000
  H     -7.956000   -5.337000   -0.981000
  H     -7.456000   -6.037000    0.584000
  H     -5.287000   -0.344000    0.100000
  H     -3.780000   -3.601000    1.947000
  H      3.587000   -6.868000   -1.843000
  H     -2.276000   -4.774000   -0.050000
  H      3.714000   -3.724000    1.926000
  H      5.092000   -5.795000    1.871000
  H      6.205000   -7.329000   -0.439000
  H      5.393000   -7.917000    1.042000
  H      4.759000   -8.373000   -0.564000
  H      0.329000   -5.290000   -0.008000
  H      2.146000   -4.842000   -1.940000
  H      5.808000    4.986000   -1.956000
  H      4.788000   -2.281000   -0.185000
  H      4.860000    2.114000    1.912000
  H      6.901000    3.531000    1.772000
  H      7.383000    6.109000    0.356000
  H      8.414000    4.652000    0.435000
  H      7.921000    5.310000   -1.150000
  H      5.283000    0.336000   -0.179000
  H      3.720000    3.632000   -1.967000

 Total Charge           Charge          ....    0
 Multiplicity           Mult            ....    1
 Number of Electrons    NEL             ....  358
 Basis Dimension        Dim             ....  918

ORBITAL ENERGIES
----------------

  NO   OCC          E(Eh)            E(eV)
   0   2.0000     -15.669442      -426.3872
   1   2.0000     -15.637166      -425.5089
   2   2.0000     -15.625452      -425.1902
   3   2.0000     -15.605453      -424.6460
   4   2.0000     -15.517246      -422.2457
   5   2.0000     -15.511270      -422.0831
   6   2.0000     -15.447323      -420.3430
   7   2.0000     -15.434785      -420.0018
   8   2.0000     -11.320678      -308.0513
   9   2.0000     -11.318700      -307.9975
  10   2.0000     -11.317808      -307.9732
  11   2.0000     -11.301378      -307.5261
  12   2.0000     -11.295145      -307.3565
  13   2.0000     -11.293776      -307.3193
  14   2.0000     -11.290169      -307.2211
  15   2.0000     -11.284833      -307.0759
  16   2.0000     -11.281503      -306.9853
  17   2.0000     -11.280024      -306.9451
  18   2.0000     -11.269034      -306.6460
  19   2.0000     -11.267584      -306.6066
  20   2.0000     -11.264292      -306.5170
  21   2.0000     -11.254600      -306.2532
  22   2.0000     -11.254367      -306.2469
  23   2.0000     -11.240533      -305.8704
  24   2.0000     -11.232703      -305.6574
  25   2.0000     -11.231908      -305.6357
  26   2.0000     -11.229574      -305.5722
  27   2.0000     -11.223715      -305.4128
  28   2.0000     -11.223566      -305.4088
  29   2.0000     -11.211418      -305.0782
  30   2.0000     -11.209537      -305.0270
  31   2.0000     -11.208726      -305.0049
  32   2.0000     -11.201359      -304.8045
  33   2.0000     -11.201205      -304.8003
  34   2.0000     -11.189766      -304.4890
  35   2.0000     -11.189715      -304.4876
  36   2.0000     -11.181956      -304.2765
  37   2.0000     -11.181840      -304.2733
  38   2.0000     -11.179491      -304.2094
  39   2.0000     -11.168757      -303.9173
  40   2.0000     -11.164226      -303.7940
  41   2.0000     -11.163292      -303.7686
  42   2.0000     -11.158044      -303.6258
  43   2.0000     -11.157063      -303.5991
  44   2.0000     -11.156589      -303.5862
  45   2.0000     -11.155088      -303.5454
  46   2.0000     -11.153561      -303.5038
  47   2.0000     -11.151411      -303.4453
  48   2.0000     -11.150141      -303.4108
  49   2.0000     -11.144504      -303.2574
  50   2.0000     -11.128324      -302.8171
  51   2.0000     -11.125677      -302.7451
  52   2.0000      -1.350584       -36.7513
  53   2.0000      -1.323961       -36.0268
  54   2.0000      -1.313524       -35.7428
  55   2.0000      -1.296731       -35.2859
  56   2.0000      -1.217747       -33.1366
  57   2.0000      -1.208294       -32.8794
  58   2.0000      -1.167371       -31.7658
  59   2.0000      -1.147072       -31.2134
  60   2.0000      -1.133880       -30.8545
  61   2.0000      -1.111833       -30.2545
  62   2.0000      -1.102740       -30.0071
  63   2.0000      -1.087775       -29.5999
  64   2.0000      -1.072398       -29.1814
  65   2.0000      -1.047834       -28.5130
  66   2.0000      -1.038092       -28.2479
  67   2.0000      -1.033091       -28.1118
  68   2.0000      -1.022553       -27.8251
  69   2.0000      -1.013339       -27.5744
  70   2.0000      -1.006049       -27.3760
  71   2.0000      -0.991320       -26.9752
  72   2.0000      -0.983043       -26.7500
  73   2.0000      -0.975107       -26.5340
  74   2.0000      -0.971123       -26.4256
  75   2.0000      -0.959658       -26.1136
  76   2.0000      -0.949906       -25.8483
  77   2.0000      -0.946950       -25.7678
  78   2.0000      -0.929313       -25.2879
  79   2.0000      -0.920378       -25.0448
  80   2.0000      -0.899735       -24.4830
  81   2.0000      -0.888488       -24.1770
  82   2.0000      -0.874989       -23.8097
  83   2.0000      -0.866120       -23.5683
  84   2.0000      -0.864709       -23.5299
  85   2.0000      -0.853814       -23.2335
  86   2.0000      -0.848148       -23.0793
  87   2.0000      -0.834122       -22.6976
  88   2.0000      -0.822316       -22.3764
  89   2.0000      -0.796570       -21.6758
  90   2.0000      -0.794134       -21.6095
  91   2.0000      -0.745699       -20.2915
  92   2.0000      -0.733464       -19.9586
  93   2.0000      -0.726744       -19.7757
  94   2.0000      -0.722206       -19.6522
  95   2.0000      -0.716276       -19.4909
  96   2.0000      -0.709804       -19.3148
  97   2.0000      -0.704653       -19.1746
  98   2.0000      -0.702224       -19.1085
  99   2.0000      -0.693959       -18.8836
 100   2.0000      -0.692572       -18.8458
 101   2.0000      -0.682398       -18.5690
 102   2.0000      -0.678638       -18.4667
 103   2.0000      -0.676671       -18.4132
 104   2.0000      -0.671960       -18.2850
 105   2.0000      -0.668895       -18.2016
 106   2.0000      -0.664685       -18.0870
 107   2.0000      -0.657803       -17.8997
 108   2.0000      -0.655444       -17.8355
 109   2.0000      -0.653956       -17.7951
 110   2.0000      -0.649356       -17.6699
 111   2.0000      -0.647109       -17.6087
 112   2.0000      -0.641389       -17.4531
 113   2.0000      -0.637174       -17.3384
 114   2.0000      -0.634991       -17.2790
 115   2.0000      -0.631952       -17.1963
 116   2.0000      -0.622341       -16.9348
 117   2.0000      -0.615857       -16.7583
 118   2.0000      -0.614019       -16.7083
 119   2.0000      -0.609050       -16.5731
 120   2.0000      -0.605797       -16.4846
 121   2.0000      -0.603700       -16.4275
 122   2.0000      -0.596870       -16.2416
 123   2.0000      -0.591320       -16.0906
 124   2.0000      -0.590523       -16.0689
 125   2.0000      -0.583458       -15.8767
 126   2.0000      -0.576061       -15.6754
 127   2.0000      -0.572561       -15.5802
 128   2.0000      -0.565024       -15.3751
 129   2.0000      -0.562403       -15.3038
 130   2.0000      -0.557553       -15.1718
 131   2.0000      -0.547908       -14.9093
 132   2.0000      -0.539327       -14.6758
 133   2.0000      -0.537590       -14.6286
 134   2.0000      -0.534163       -14.5353
 135   2.0000      -0.531747       -14.4696
 136   2.0000      -0.522834       -14.2270
 137   2.0000      -0.520324       -14.1587
 138   2.0000      -0.516330       -14.0501
 139   2.0000      -0.513213       -13.9652
 140   2.0000      -0.509845       -13.8736
 141   2.0000      -0.507371       -13.8063
 142   2.0000      -0.502340       -13.6694
 143   2.0000      -0.499381       -13.5889
 144   2.0000      -0.497016       -13.5245
 145   2.0000      -0.495821       -13.4920
 146   2.0000      -0.493318       -13.4239
 147   2.0000      -0.488637       -13.2965
 148   2.0000      -0.484403       -13.1813
 149   2.0000      -0.465284       -12.6610
 150   2.0000      -0.461595       -12.5606
 151   2.0000      -0.454431       -12.3657
 152   2.0000      -0.448738       -12.2108
 153   2.0000      -0.442212       -12.0332
 154   2.0000      -0.440287       -11.9808
 155   2.0000      -0.439309       -11.9542
 156   2.0000      -0.429666       -11.6918
 157   2.0000      -0.422593       -11.4993
 158   2.0000      -0.396344       -10.7851
 159   2.0000      -0.384646       -10.4667
 160   2.0000      -0.379305       -10.3214
 161   2.0000      -0.373225       -10.1560
 162   2.0000      -0.363945        -9.9035
 163   2.0000      -0.358469        -9.7544
 164   2.0000      -0.350095        -9.5266
 165   2.0000      -0.338843        -9.2204
 166   2.0000      -0.336873        -9.1668
 167   2.0000      -0.335863        -9.1393
 168   2.0000      -0.320576        -8.7233
 169   2.0000      -0.299568        -8.1516
 170   2.0000      -0.296233        -8.0609
 171   2.0000      -0.286019        -7.7830
 172   2.0000      -0.284296        -7.7361
 173   2.0000      -0.259869        -7.0714
 174   2.0000      -0.239224        -6.5096
 175   2.0000      -0.185620        -5.0510
 176   2.0000      -0.175323        -4.7708
 177   2.0000      -0.062550        -1.7021
 178   2.0000      -0.052186        -1.4201
 179   0.0000       0.033390         0.9086
 180   0.0000       0.065208         1.7744
 181   0.0000       0.092142         2.5073
 182   0.0000       0.096183         2.6173
 183   0.0000       0.114777         3.1232

MULLIKEN ATOMIC CHARGES
-----------------------
   0 C :    0.218373
   1 N :   -0.428544
   2 C :   -0.067331
   3 N :   -0.341314
   4 C :   -0.084278
   5 N :   -0.564008
   6 C :   -0.037163
   7 N :   -0.337395
   8 C :    0.217651
   9 N :   -0.564484
  10 C :    0.109689
  11 N :   -0.438003
  12 C :   -0.060863
  13 N :   -0.446038
  14 C :    0.225973
  15 N :   -0.440781
  16 C :    0.246813
  17 C :   -0.039160
  18 C :   -0.182066
  19 C :    0.225898
  20 C :    0.198882
  21 C :   -0.067850
  22 C :   -0.086478
  23 C :   -0.058708
  24 C :    0.214071
  25 C :    0.113977
  26 C :   -0.071096
  27 C :    0.236202
  28 C :   -0.044918
  29 C :   -0.191747
  30 C :    0.227625
  31 C :    0.198155
  32 C :   -0.065364
  33 C :   -0.093504
  34 C :   -0.050021
  35 C :    0.189525
  36 C :    0.117954
  37 C :   -0.068504
  38 C :    0.241322
  39 C :   -0.063812
  40 C :   -0.197022
  41 C :    0.217629
  42 C :    0.208759
  43 C :   -0.075557
  44 C :   -0.089173
  45 C :   -0.044908
  46 C :    0.194281
  47 C :    0.115972
  48 C :   -0.079647
  49 C :    0.215984
  50 C :   -0.060046
  51 C :   -0.189842
  52 H :    0.068350
  53 H :   -0.011073
  54 H :    0.054446
  55 H :    0.066536
  56 H :    0.071592
  57 H :    0.066149
  58 H :    0.065293
  59 H :   -0.022445
  60 H :    0.055573
  61 H :    0.174918
  62 H :    0.170321
  63 H :    0.055663
  64 H :   -0.028364
  65 H :    0.044202
  66 H :    0.057153
  67 H :    0.061381
  68 H :    0.057564
  69 H :    0.059614
  70 H :   -0.019533
  71 H :    0.048402
  72 H :    0.045901
  73 H :   -0.017518
  74 H :    0.037118
  75 H :    0.044724
  76 H :    0.053179
  77 H :    0.051406
  78 H :    0.050600
  79 H :   -0.012418
  80 H :    0.037065
  81 H :    0.052492
  82 H :   -0.023392
  83 H :    0.043421
  84 H :    0.051659
  85 H :    0.056982
  86 H :    0.056691
  87 H :    0.055898
  88 H :   -0.027285
  89 H :    0.042627
Sum of atomic charges:    0.0000000

LOEWDIN ATOMIC CHARGES
----------------------
   0 C :    0.016457
   1 N :    0.163668
   2 C :   -0.100602
   3 N :    0.174029
   4 C :    0.072949
   5 N :   -0.143114
   6 C :   -0.014895
   7 N :    0.177493
   8 C :    0.015682
   9 N :   -0.138458
  10 C :    0.034401
  11 N :    0.143566
  12 C :   -0.098469
  13 N :    0.126029
  14 C :   -0.054699
  15 N :    0.137511
  16 C :   -0.030807
  17 C :   -0.015924
  18 C :   -0.113993
  19 C :   -0.089513
  20 C :   -0.007754
  21 C :   -0.100839
  22 C :    0.041780
  23 C :   -0.027276
  24 C :    0.005804
  25 C :    0.030195
  26 C :   -0.099426
  27 C :   -0.073497
  28 C :   -0.016910
  29 C :   -0.113266
  30 C :   -0.056748
  31 C :   -0.014058
  32 C :   -0.100312
  33 C :    0.014344
  34 C :   -0.023463
  35 C :   -0.021641
  36 C :    0.026029
  37 C :   -0.105560
  38 C :   -0.034365
  39 C :   -0.030472
  40 C :   -0.111080
  41 C :   -0.094532
  42 C :   -0.001157
  43 C :   -0.109909
  44 C :    0.032929
  45 C :   -0.017779
  46 C :   -0.013730
  47 C :    0.028906
  48 C :   -0.111373
  49 C :   -0.104910
  50 C :   -0.027990
  51 C :   -0.109146
  52 H :    0.035684
  53 H :    0.005736
  54 H :    0.049639
  55 H :    0.035445
  56 H :    0.033067
  57 H :    0.034856
  58 H :    0.035351
  59 H :    0.001659
  60 H :    0.049854
  61 H :    0.061544
  62 H :    0.059102
  63 H :    0.030318
  64 H :   -0.002980
  65 H :    0.043682
  66 H :    0.030700
  67 H :    0.027883
  68 H :    0.031761
  69 H :    0.031645
  70 H :    0.000196
  71 H :    0.045940
  72 H :    0.025890
  73 H :    0.002579
  74 H :    0.040949
  75 H :    0.024996
  76 H :    0.023580
  77 H :    0.028399
  78 H :    0.028064
  79 H :    0.005155
  80 H :    0.040184
  81 H :    0.028729
  82 H :   -0.001654
  83 H :    0.044086
  84 H :    0.028138
  85 H :    0.025595
  86 H :    0.030563
  87 H :    0.030768
  88 H :   -0.003717
  89 H :    0.042511

  Mayer bond orders larger than 0.100000
B(  0-C ,  1-N ) :   1.1546 B(  0-C , 17-C ) :   1.5814 B(  0-C , 52-H ) :   0.9682
B(  1-N ,  8-C ) :   1.1512 B(  1-N , 10-C ) :   0.9453 B(  2-C , 12-C ) :   1.5564
B(  2-C , 16-C ) :   1.2984 B(  2-C , 53-H ) :   0.9786 B(  3-N , 14-C ) :   1.1873
B(  3-N , 16-C ) :   1.1999 B(  3-N , 61-H ) :   0.8970 B(  4-C ,  6-C ) :   1.3114
B(  4-C , 17-C ) :   1.3106 B(  4-C , 18-C ) :   1.1539 B(  5-N , 19-C ) :   1.3888
B(  5-N , 27-C ) :   1.4299 B(  6-C ,  8-C ) :   1.5814 B(  6-C , 54-H ) :   0.9710
B(  7-N , 30-C ) :   1.1880 B(  7-N , 38-C ) :   1.2093 B(  7-N , 62-H ) :   0.8998
B(  8-C , 55-H ) :   0.9694 B(  9-N , 41-C ) :   1.4213 B(  9-N , 49-C ) :   1.4052
B( 10-C , 56-H ) :   0.9763 B( 10-C , 57-H ) :   0.9817 B( 10-C , 58-H ) :   0.9824
B( 11-N , 20-C ) :   1.1131 B( 11-N , 24-C ) :   1.1326 B( 11-N , 25-C ) :   0.9588
B( 12-C , 14-C ) :   1.2995 B( 12-C , 59-H ) :   0.9779 B( 13-N , 31-C ) :   1.1014
B( 13-N , 35-C ) :   1.0920 B( 13-N , 36-C ) :   0.9718 B( 14-C , 18-C ) :   1.2335
B( 15-N , 42-C ) :   1.1226 B( 15-N , 46-C ) :   1.1036 B( 15-N , 47-C ) :   0.9636
B( 16-C , 51-C ) :   1.2236 B( 17-C , 60-H ) :   0.9714 B( 18-C , 19-C ) :   1.2648
B( 19-C , 21-C ) :   1.1892 B( 20-C , 28-C ) :   1.6230 B( 20-C , 63-H ) :   0.9705
B( 21-C , 26-C ) :   1.6596 B( 21-C , 64-H ) :   0.9736 B( 22-C , 23-C ) :   1.2711
B( 22-C , 28-C ) :   1.2801 B( 22-C , 29-C ) :   1.2414 B( 23-C , 24-C ) :   1.6238
B( 23-C , 65-H ) :   0.9716 B( 24-C , 66-H ) :   0.9690 B( 25-C , 67-H ) :   0.9763
B( 25-C , 68-H ) :   0.9831 B( 25-C , 69-H ) :   0.9819 B( 26-C , 27-C ) :   1.1919
B( 26-C , 70-H ) :   0.9744 B( 27-C , 29-C ) :   1.2327 B( 28-C , 71-H ) :   0.9711
B( 29-C , 30-C ) :   1.1953 B( 30-C , 32-C ) :   1.3307 B( 31-C , 39-C ) :   1.6589
B( 31-C , 72-H ) :   0.9704 B( 32-C , 37-C ) :   1.5279 B( 32-C , 73-H ) :   0.9773
B( 33-C , 34-C ) :   1.2529 B( 33-C , 39-C ) :   1.2451 B( 33-C , 40-C ) :   1.3042
B( 34-C , 35-C ) :   1.6566 B( 34-C , 74-H ) :   0.9708 B( 35-C , 75-H ) :   0.9704
B( 36-C , 76-H ) :   0.9759 B( 36-C , 77-H ) :   0.9824 B( 36-C , 78-H ) :   0.9835
B( 37-C , 38-C ) :   1.3289 B( 37-C , 79-H ) :   0.9786 B( 38-C , 40-C ) :   1.1938
B( 39-C , 80-H ) :   0.9719 B( 40-C , 41-C ) :   1.1916 B( 41-C , 43-C ) :   1.2374
B( 42-C , 50-C ) :   1.6361 B( 42-C , 81-H ) :   0.9695 B( 43-C , 48-C ) :   1.6137
B( 43-C , 82-H ) :   0.9747 B( 44-C , 45-C ) :   1.2770 B( 44-C , 50-C ) :   1.2596
B( 44-C , 51-C ) :   1.2513 B( 45-C , 46-C ) :   1.6311 B( 45-C , 83-H ) :   0.9706
B( 46-C , 84-H ) :   0.9705 B( 47-C , 85-H ) :   0.9761 B( 47-C , 86-H ) :   0.9827
B( 47-C , 87-H ) :   0.9828 B( 48-C , 49-C ) :   1.2340 B( 48-C , 88-H ) :   0.9731
B( 49-C , 51-C ) :   1.2024 B( 50-C , 89-H ) :   0.9717

MP2 TOTAL ENERGY:    -2130.900195808 Eh
FINAL SINGLE POINT ENERGY     -2130.900195808200

DIPOLE MOMENT
-------------
                                X             Y             Z
Electronic contribution:     -2.49796       2.15356      -0.05997
Nuclear contribution   :      0.03896       0.21354       0.07832
                        -----------------------------------------
Total Dipole Moment    :     -2.45900       2.36710       0.01834
                        -----------------------------------------
Magnitude (a.u.)       :      3.41324
Magnitude (Debye)      :      8.67576

Rotational constants in cm-1:     0.001499     0.001472     0.000763
Rotational constants in MHz :    44.930355    44.133835    22.861857

                             ****ORCA TERMINATED NORMALLY****
TOTAL RUN TIME: 0 days 1 hours 11 minutes 22 seconds 933 msec
