                         Program Version 5.0.4 -  RELEASE  -
|  1> ! PAL2
|  2> ! mp2 cc-pvdz TightSCF  NoKeepInts
|  3>
|  4> %scf
|  5>   MaxCore 2000
|  6> end
|  7> %mp2
|  8>   MaxCore 2000
|  9> end
| 10> * xyz 0 1
| 11>    C       -4.76300         5.32800        -0.62600
| 12>    C        1.47400         4.04100         0.05700
| 13>    C       -2.80200         4.09300         0.04900
| 14>    C       -2.40600         5.22200         0.78300
| 15>    C       -3.19500         6.35500         0.79000
| 16>    C       -5.19400         7.61500         0.15000
| 17>    C        0.13200         4.30700         0.06100
| 18>    C       -0.56900         3.05600         0.04700
| 19>    C        1.64900         2.61800         0.02300
| 20>    C       -4.01100         4.16900        -0.66000
| 21>    N       -4.35200         6.39900         0.09100
| 22>    N        0.38800         2.06700         0.02500
| 23>    N       -2.01000         0.39500        -0.07500
| 24>    N       -0.38800        -2.07400        -0.02700
| 25>    N        2.01000        -0.40100         0.06500
| 26>    C       -1.96000         2.86100         0.02400
| 27>    C       -2.62300         1.61500        -0.01800
| 28>    C       -5.57300        -4.32900         1.06600
| 29>    C       -4.07300         1.47100         0.05600
| 30>    C       -4.10600        -2.75600        -0.02600
| 31>    C       -4.99500        -2.75700        -1.11100
| 32>    C       -6.13200        -3.54200        -1.07600
| 33>    C       -7.65100        -5.11300         0.04000
| 34>    C       -4.32400         0.14100         0.03700
| 35>    C       -3.02500        -0.52000        -0.04800
| 36>    C       -4.42200        -3.56600         1.07500
| 37>    N       -6.40700        -4.31300         0.00100
| 38>    C       -2.86700        -1.92200        -0.04000
| 39>    C       -1.65000        -2.62400        -0.02700
| 40>    C        3.56800        -6.14200        -1.04000
| 41>    C       -1.47600        -4.04900        -0.03400
| 42>    C        2.80300        -4.09900        -0.00800
| 43>    C        3.65700        -4.38400         1.06900
| 44>    C        4.42700        -5.53000         1.05900
| 45>    C        5.24500        -7.58800         0.01400
| 46>    C       -0.13400        -4.31500        -0.02200
| 47>    C        0.56800        -3.06400        -0.02700
| 48>    C        2.77500        -5.01200        -1.07400
| 49>    N        4.37600        -6.39100         0.01700
| 50>    C        1.95900        -2.86900        -0.00900
| 51>    C        2.62100        -1.62200         0.00900
| 52>    C        5.54300         4.33900        -1.13000
| 53>    C        4.07000        -1.47900        -0.09400
| 54>    C        4.10400         2.75100        -0.02100
| 55>    C        5.02700         2.72900         1.03600
| 56>    C        6.16600         3.50900         0.97800
| 57>    C        7.61900         5.15300        -0.11500
| 58>    C        4.32100        -0.14800        -0.09200
| 59>    C        3.02500         0.51400         0.01500
| 60>    C        4.38700         3.58200        -1.11500
| 61>    C        2.86600         1.91600         0.01300
| 62>    N        6.41300         4.29600        -0.09500
| 63>    H       -5.69500         5.43600        -1.16700
| 64>    H        2.27400         4.76600         0.08100
| 65>    H       -1.48800         5.22100         1.35800
| 66>    H       -2.93600         7.24600         1.34800
| 67>    H       -5.84600         7.55300         1.02400
| 68>    H       -4.54500         8.48700         0.22700
| 69>    H       -5.79100         7.67200        -0.75900
| 70>    H       -0.33200         5.28200         0.06900
| 71>    H       -4.36400         3.33600        -1.25700
| 72>    H        0.18200         1.07200         0.00500
| 73>    H       -0.18300        -1.08000        -0.02100
| 74>    H       -5.86400        -4.96200         1.89500
| 75>    H       -4.79400         2.27200         0.13900
| 76>    H       -4.80000        -2.16000        -1.99400
| 77>    H       -6.84100        -3.58200        -1.89300
| 78>    H       -8.42800        -4.53600         0.54600
| 79>    H       -7.95600        -5.33700        -0.98100
| 80>    H       -7.45600        -6.03700         0.58400
| 81>    H       -5.28700        -0.34400         0.10000
| 82>    H       -3.78000        -3.60100         1.94700
| 83>    H        3.58700        -6.86800        -1.84300
| 84>    H       -2.27600        -4.77400        -0.05000
| 85>    H        3.71400        -3.72400         1.92600
| 86>    H        5.09200        -5.79500         1.87100
| 87>    H        6.20500        -7.32900        -0.43900
| 88>    H        5.39300        -7.91700         1.04200
| 89>    H        4.75900        -8.37300        -0.56400
| 90>    H        0.32900        -5.29000        -0.00800
| 91>    H        2.14600        -4.84200        -1.94000
| 92>    H        5.80800         4.98600        -1.95600
| 93>    H        4.78800        -2.28100        -0.18500
| 94>    H        4.86000         2.11400         1.91200
| 95>    H        6.90100         3.53100         1.77200
| 96>    H        7.38300         6.10900         0.35600
| 97>    H        8.41400         4.65200         0.43500
| 98>    H        7.92100         5.31000        -1.15000
| 99>    H        5.28300         0.33600        -0.17900
|100>    H        3.72000         3.63200        -1.96700
|101> *
|102>
|103>                          ****END OF INPUT****

CARTESIAN COORDINATES (ANGSTROEM)
---------------------------------
  C     -4.763000    5.328000   -0.626000
  C      1.474000    4.041000    0.057000
  C     -2.802000    4.093000    0.049000
  C     -2.406000    5.222000    0.783000
  C     -3.195000    6.355000    0.790000
  C     -5.194000    7.615000    0.150000
  C      0.132000    4.307000    0.061000
  C     -0.569000    3.056000    0.047000
  C      1.649000    2.618000    0.023000
  C     -4.011000    4.169000   -0.660000
  N     -4.352000    6.399000    0.091000
  N      0.388000    2.067000    0.025000
  N     -2.010000    0.395000   -0.075000
  N     -0.388000   -2.074000   -0.027000
  N      2.010000   -0.401000    0.065000
  C     -1.960000    2.861000    0.024000
  C     -2.623000    1.615000   -0.018000
  C     -5.573000   -4.329000    1.066000
  C     -4.073000    1.471000    0.056000
  C     -4.106000   -2.756000   -0.026000
  C     -4.995000   -2.757000   -1.111000
  C     -6.132000   -3.542000   -1.076000
  C     -7.651000   -5.113000    0.040000
  C     -4.324000    0.141000    0.037000
  C     -3.025000   -0.520000   -0.048000
  C     -4.422000   -3.566000    1.075000
  N     -6.407000   -4.313000    0.001000
  C     -2.867000   -1.922000   -0.040000
  C     -1.650000   -2.624000   -0.027000
  C      3.568000   -6.142000   -1.040000
  C     -1.476000   -4.049000   -0.034000
  C      2.803000   -4.099000   -0.008000
  C      3.657000   -4.384000    1.069000
  C      4.427000   -5.530000    1.059000
  C      5.245000   -7.588000    0.014000
  C     -0.134000   -4.315000   -0.022000
  C      0.568000   -3.064000   -0.027000
  C      2.775000   -5.012000   -1.074000
  N      4.376000   -6.391000    0.017000
  C      1.959000   -2.869000   -0.009000
  C      2.621000   -1.622000    0.009000
  C      5.543000    4.339000   -1.130000
  C      4.070000   -1.479000   -0.094000
  C      4.104000    2.751000   -0.021000
  C      5.027000    2.729000    1.036000
  C      6.166000    3.509000    0.978000
  C      7.619000    5.153000   -0.115000
  C      4.321000   -0.148000   -0.092000
  C      3.025000    0.514000    0.015000
  C      4.387000    3.582000   -1.115000
  C      2.866000    1.916000    0.013000
  N      6.413000    4.296000   -0.095000
  H     -5.695000    5.436000   -1.167000
  H      2.274000    4.766000    0.081000
  H     -1.488000    5.221000    1.358000
  H     -2.936000    7.246000    1.348000
  H     -5.846000    7.553000    1.024000
  H     -4.545000    8.487000    0.227000
  H     -5.791000    7.672000   -0.759000
  H     -0.332000    5.282000    0.069000
  H     -4.364000    3.336000   -1.257000
  H      0.182000    1.072000    0.005000
  H     -0.183000   -1.080000   -0.021000
  H     -5.864000   -4.962000    1.895000
  H     -4.794000    2.272000    0.139000
  H     -4.800000   -2.160000   -1.994000
  H     -6.841000   -3.582000   -1.893000
  H     -8.428000   -4.536000    0.546000
  H     -7.956000   -5.337000   -0.981000
  H     -7.456000   -6.037000    0.584000
  H     -5.287000   -0.344000    0.100000
  H     -3.780000   -3.601000    1.947000
  H      3.587000   -6.868000   -1.843000
  H     -2.276000   -4.774000   -0.050000
  H      3.714000   -3.724000    1.926000
  H      5.092000   -5.795000    1.871000
  H      6.205000   -7.329000   -0.439000
  H      5.393000   -7.917000    1.042000
  H      4.759000   -8.373000   -0.564000
  H      0.329000   -5.290000   -0.008000
  H      2.146000   -4.842000   -1.940000
  H      5.808000    4.986000   -1.956000
  H      4.788000   -2.281000   -0.185000
  H      4.860000    2.114000    1.912000
  H      6.901000    3.531000    1.772000
  H      7.383000    6.109000    0.356000
  H      8.414000    4.652000    0.435000
  H      7.921000    5.310000   -1.150000
  H      5.283000    0.336000   -0.179000
  H      3.720000    3.632000   -1.967000

 Total Charge           Charge          ....    0
 Multiplicity           Mult            ....    1
 Number of Electrons    NEL             ....  358
 Basis Dimension        Dim             ....  918

ORBITAL ENERGIES
----------------

  NO   OCC          E(Eh)            E(eV)
   0   2.0000     -15.669012      -426.3755
   1   2.0000     -15.637880      -425.5284
   2   2.0000     -15.628524      -425.2738
   3   2.0000     -15.593238      -424.3136
   4   2.0000     -15.524631      -422.4467
   5   2.0000     -15.515888      -422.2088
   6   2.0000     -15.450918      -420.4409
   7   2.0000     -15.443125      -420.2288
   8   2.0000     -11.321271      -308.0675
   9   2.0000     -11.320952      -308.0588
  10   2.0000     -11.318743      -307.9987
  11   2.0000     -11.301747      -307.5362
  12   2.0000     -11.296206      -307.3854
  13   2.0000     -11.295659      -307.3705
  14   2.0000     -11.290685      -307.2352
  15   2.0000     -11.287755      -307.1554
  16   2.0000     -11.284157      -307.0575
  17   2.0000     -11.274910      -306.8059
  18   2.0000     -11.271935      -306.7249
  19   2.0000     -11.258216      -306.3516
  20   2.0000     -11.257574      -306.3342
  21   2.0000     -11.255816      -306.2863
  22   2.0000     -11.254883      -306.2609
  23   2.0000     -11.241495      -305.8966
  24   2.0000     -11.234075      -305.6947
  25   2.0000     -11.233503      -305.6792
  26   2.0000     -11.233299      -305.6736
  27   2.0000     -11.227186      -305.5073
  28   2.0000     -11.226902      -305.4995
  29   2.0000     -11.209692      -305.0312
  30   2.0000     -11.208314      -304.9937
  31   2.0000     -11.203282      -304.8568
  32   2.0000     -11.197538      -304.7005
  33   2.0000     -11.197254      -304.6928
  34   2.0000     -11.189812      -304.4903
  35   2.0000     -11.189300      -304.4763
  36   2.0000     -11.186719      -304.4061
  37   2.0000     -11.182957      -304.3037
  38   2.0000     -11.182046      -304.2789
  39   2.0000     -11.174542      -304.0747
  40   2.0000     -11.171700      -303.9974
  41   2.0000     -11.168325      -303.9056
  42   2.0000     -11.167719      -303.8891
  43   2.0000     -11.162758      -303.7541
  44   2.0000     -11.161494      -303.7197
  45   2.0000     -11.159530      -303.6662
  46   2.0000     -11.156108      -303.5731
  47   2.0000     -11.151454      -303.4465
  48   2.0000     -11.148031      -303.3533
  49   2.0000     -11.141849      -303.1851
  50   2.0000     -11.134980      -302.9982
  51   2.0000     -11.127847      -302.8041
  52   2.0000      -1.351207       -36.7682
  53   2.0000      -1.324596       -36.0441
  54   2.0000      -1.316708       -35.8295
  55   2.0000      -1.287313       -35.0296
  56   2.0000      -1.225095       -33.3365
  57   2.0000      -1.210424       -32.9373
  58   2.0000      -1.169283       -31.8178
  59   2.0000      -1.153852       -31.3979
  60   2.0000      -1.135900       -30.9094
  61   2.0000      -1.113025       -30.2869
  62   2.0000      -1.106455       -30.1082
  63   2.0000      -1.082804       -29.4646
  64   2.0000      -1.073562       -29.2131
  65   2.0000      -1.048635       -28.5348
  66   2.0000      -1.041480       -28.3401
  67   2.0000      -1.036159       -28.1953
  68   2.0000      -1.015359       -27.6293
  69   2.0000      -1.014586       -27.6083
  70   2.0000      -1.009390       -27.4669
  71   2.0000      -0.992800       -27.0155
  72   2.0000      -0.987377       -26.8679
  73   2.0000      -0.978636       -26.6300
  74   2.0000      -0.972225       -26.4556
  75   2.0000      -0.959581       -26.1115
  76   2.0000      -0.951734       -25.8980
  77   2.0000      -0.947041       -25.7703
  78   2.0000      -0.935650       -25.4603
  79   2.0000      -0.920247       -25.0412
  80   2.0000      -0.903179       -24.5768
  81   2.0000      -0.892371       -24.2827
  82   2.0000      -0.875813       -23.8321
  83   2.0000      -0.871109       -23.7041
  84   2.0000      -0.866657       -23.5829
  85   2.0000      -0.855495       -23.2792
  86   2.0000      -0.841172       -22.8895
  87   2.0000      -0.837521       -22.7901
  88   2.0000      -0.822824       -22.3902
  89   2.0000      -0.798386       -21.7252
  90   2.0000      -0.792918       -21.5764
  91   2.0000      -0.747626       -20.3439
  92   2.0000      -0.738989       -20.1089
  93   2.0000      -0.732759       -19.9394
  94   2.0000      -0.723952       -19.6997
  95   2.0000      -0.720187       -19.5973
  96   2.0000      -0.714589       -19.4450
  97   2.0000      -0.708034       -19.2666
  98   2.0000      -0.703779       -19.1508
  99   2.0000      -0.696357       -18.9488
 100   2.0000      -0.695490       -18.9252
 101   2.0000      -0.682671       -18.5764
 102   2.0000      -0.679715       -18.4960
 103   2.0000      -0.677184       -18.4271
 104   2.0000      -0.675036       -18.3687
 105   2.0000      -0.670998       -18.2588
 106   2.0000      -0.666784       -18.1441
 107   2.0000      -0.662301       -18.0221
 108   2.0000      -0.655946       -17.8492
 109   2.0000      -0.653479       -17.7821
 110   2.0000      -0.649055       -17.6617
 111   2.0000      -0.643655       -17.5147
 112   2.0000      -0.641976       -17.4690
 113   2.0000      -0.638272       -17.3683
 114   2.0000      -0.636944       -17.3321
 115   2.0000      -0.626655       -17.0522
 116   2.0000      -0.624776       -17.0010
 117   2.0000      -0.615927       -16.7602
 118   2.0000      -0.615149       -16.7390
 119   2.0000      -0.612826       -16.6758
 120   2.0000      -0.608865       -16.5681
 121   2.0000      -0.604603       -16.4521
 122   2.0000      -0.599917       -16.3246
 123   2.0000      -0.587118       -15.9763
 124   2.0000      -0.584164       -15.8959
 125   2.0000      -0.582503       -15.8507
 126   2.0000      -0.578835       -15.7509
 127   2.0000      -0.577771       -15.7219
 128   2.0000      -0.564792       -15.3688
 129   2.0000      -0.558543       -15.1987
 130   2.0000      -0.552303       -15.0289
 131   2.0000      -0.548147       -14.9158
 132   2.0000      -0.543146       -14.7797
 133   2.0000      -0.539434       -14.6787
 134   2.0000      -0.538253       -14.6466
 135   2.0000      -0.534100       -14.5336
 136   2.0000      -0.525613       -14.3027
 137   2.0000      -0.523741       -14.2517
 138   2.0000      -0.518120       -14.0988
 139   2.0000      -0.513495       -13.9729
 140   2.0000      -0.512045       -13.9334
 141   2.0000      -0.510143       -13.8817
 142   2.0000      -0.509833       -13.8733
 143   2.0000      -0.503136       -13.6910
 144   2.0000      -0.500574       -13.6213
 145   2.0000      -0.496756       -13.5174
 146   2.0000      -0.494276       -13.4499
 147   2.0000      -0.484825       -13.1928
 148   2.0000      -0.480953       -13.0874
 149   2.0000      -0.467804       -12.7296
 150   2.0000      -0.465041       -12.6544
 151   2.0000      -0.456925       -12.4336
 152   2.0000      -0.449213       -12.2237
 153   2.0000      -0.446400       -12.1472
 154   2.0000      -0.443528       -12.0690
 155   2.0000      -0.439224       -11.9519
 156   2.0000      -0.430470       -11.7137
 157   2.0000      -0.425716       -11.5843
 158   2.0000      -0.403123       -10.9695
 159   2.0000      -0.386271       -10.5110
 160   2.0000      -0.380613       -10.3570
 161   2.0000      -0.378524       -10.3002
 162   2.0000      -0.370910       -10.0930
 163   2.0000      -0.359316        -9.7775
 164   2.0000      -0.353436        -9.6175
 165   2.0000      -0.338684        -9.2161
 166   2.0000      -0.337531        -9.1847
 167   2.0000      -0.327986        -8.9249
 168   2.0000      -0.327408        -8.9092
 169   2.0000      -0.303881        -8.2690
 170   2.0000      -0.299609        -8.1528
 171   2.0000      -0.286308        -7.7908
 172   2.0000      -0.283133        -7.7044
 173   2.0000      -0.260843        -7.0979
 174   2.0000      -0.244515        -6.6536
 175   2.0000      -0.189749        -5.1633
 176   2.0000      -0.180036        -4.8990
 177   2.0000      -0.074098        -2.0163
 178   2.0000      -0.057823        -1.5735
 179   0.0000       0.028696         0.7809
 180   0.0000       0.066979         1.8226
 181   0.0000       0.091858         2.4996
 182   0.0000       0.107737         2.9317
 183   0.0000       0.113339         3.0841

MULLIKEN ATOMIC CHARGES
-----------------------
   0 C :    0.205624
   1 N :   -0.454204
   2 C :   -0.065040
   3 N :   -0.336294
   4 C :   -0.053995
   5 N :   -0.561135
   6 C :   -0.114772
   7 N :   -0.340041
   8 C :    0.207035
   9 N :   -0.562697
  10 C :    0.119090
  11 N :   -0.437675
  12 C :   -0.081513
  13 N :   -0.431950
  14 C :    0.225458
  15 N :   -0.441488
  16 C :    0.229792
  17 C :   -0.111643
  18 C :   -0.170824
  19 C :    0.212181
  20 C :    0.213673
  21 C :   -0.092211
  22 C :   -0.088568
  23 C :   -0.041726
  24 C :    0.197505
  25 C :    0.114074
  26 C :   -0.075349
  27 C :    0.212755
  28 C :   -0.059278
  29 C :   -0.180792
  30 C :    0.243393
  31 C :    0.226719
  32 C :   -0.061857
  33 C :   -0.065603
  34 C :   -0.049637
  35 C :    0.221354
  36 C :    0.109658
  37 C :   -0.064859
  38 C :    0.233702
  39 C :   -0.059574
  40 C :   -0.182333
  41 C :    0.223360
  42 C :    0.197721
  43 C :   -0.072964
  44 C :   -0.091138
  45 C :   -0.059790
  46 C :    0.208449
  47 C :    0.115737
  48 C :   -0.069106
  49 C :    0.235546
  50 C :   -0.047829
  51 C :   -0.193011
  52 H :    0.041335
  53 H :   -0.016262
  54 H :    0.050958
  55 H :    0.040101
  56 H :    0.050145
  57 H :    0.048837
  58 H :    0.047904
  59 H :    0.001000
  60 H :    0.050806
  61 H :    0.171171
  62 H :    0.175164
  63 H :    0.056669
  64 H :   -0.005457
  65 H :    0.047028
  66 H :    0.056832
  67 H :    0.063442
  68 H :    0.057906
  69 H :    0.057552
  70 H :   -0.027814
  71 H :    0.046554
  72 H :    0.067900
  73 H :   -0.009174
  74 H :    0.057279
  75 H :    0.067107
  76 H :    0.071954
  77 H :    0.065686
  78 H :    0.064839
  79 H :   -0.015392
  80 H :    0.057824
  81 H :    0.053555
  82 H :   -0.025047
  83 H :    0.041135
  84 H :    0.053009
  85 H :    0.059690
  86 H :    0.055126
  87 H :    0.056647
  88 H :   -0.016079
  89 H :    0.046145
Sum of atomic charges:    0.0000000

LOEWDIN ATOMIC CHARGES
----------------------
   0 C :   -0.022153
   1 N :    0.116823
   2 C :   -0.101712
   3 N :    0.183049
   4 C :   -0.004134
   5 N :   -0.131036
   6 C :   -0.040039
   7 N :    0.175917
   8 C :   -0.020572
   9 N :   -0.140180
  10 C :    0.024660
  11 N :    0.143946
  12 C :   -0.109823
  13 N :    0.160390
  14 C :   -0.033792
  15 N :    0.137372
  16 C :   -0.056692
  17 C :   -0.038157
  18 C :   -0.101216
  19 C :   -0.084821
  20 C :    0.005321
  21 C :   -0.114256
  22 C :    0.040018
  23 C :   -0.015678
  24 C :   -0.008776
  25 C :    0.030294
  26 C :   -0.107372
  27 C :   -0.113253
  28 C :   -0.025417
  29 C :   -0.099680
  30 C :   -0.034582
  31 C :    0.019889
  32 C :   -0.094218
  33 C :    0.071954
  34 C :   -0.015406
  35 C :    0.015431
  36 C :    0.033921
  37 C :   -0.095719
  38 C :   -0.047727
  39 C :   -0.019987
  40 C :   -0.108101
  41 C :   -0.094037
  42 C :   -0.010419
  43 C :   -0.101018
  44 C :    0.031016
  45 C :   -0.027478
  46 C :   -0.001212
  47 C :    0.029148
  48 C :   -0.097908
  49 C :   -0.073727
  50 C :   -0.020011
  51 C :   -0.109749
  52 H :    0.024010
  53 H :    0.003251
  54 H :    0.040879
  55 H :    0.024227
  56 H :    0.022069
  57 H :    0.026803
  58 H :    0.027259
  59 H :    0.009811
  60 H :    0.041454
  61 H :    0.060020
  62 H :    0.061681
  63 H :    0.031317
  64 H :    0.005220
  65 H :    0.045771
  66 H :    0.029883
  67 H :    0.028744
  68 H :    0.031937
  69 H :    0.030839
  70 H :   -0.003742
  71 H :    0.044341
  72 H :    0.036149
  73 H :    0.006553
  74 H :    0.049438
  75 H :    0.035575
  76 H :    0.033250
  77 H :    0.035096
  78 H :    0.034725
  79 H :    0.003542
  80 H :    0.049160
  81 H :    0.028754
  82 H :   -0.002783
  83 H :    0.042264
  84 H :    0.029272
  85 H :    0.026805
  86 H :    0.029964
  87 H :    0.031139
  88 H :    0.001628
  89 H :    0.044605

  Mayer bond orders larger than 0.100000
B(  0-C ,  1-N ) :   1.0891 B(  0-C , 17-C ) :   1.7012 B(  0-C , 52-H ) :   0.9675
B(  1-N ,  8-C ) :   1.0917 B(  1-N , 10-C ) :   0.9763 B(  2-C , 12-C ) :   1.5131
B(  2-C , 16-C ) :   1.3504 B(  2-C , 53-H ) :   0.9763 B(  3-N , 14-C ) :   1.2170
B(  3-N , 16-C ) :   1.1922 B(  3-N , 61-H ) :   0.8994 B(  4-C ,  6-C ) :   1.2149
B(  4-C , 17-C ) :   1.2147 B(  4-C , 18-C ) :   1.4143 B(  5-N , 19-C ) :   1.4492
B(  5-N , 27-C ) :   1.3826 B(  6-C ,  8-C ) :   1.6993 B(  6-C , 54-H ) :   0.9623
B(  7-N , 30-C ) :   1.1937 B(  7-N , 38-C ) :   1.1938 B(  7-N , 62-H ) :   0.8969
B(  8-C , 55-H ) :   0.9684 B(  9-N , 41-C ) :   1.3945 B(  9-N , 49-C ) :   1.4266
B( 10-C , 56-H ) :   0.9768 B( 10-C , 57-H ) :   0.9832 B( 10-C , 58-H ) :   0.9834
B( 11-N , 20-C ) :   1.1315 B( 11-N , 24-C ) :   1.1125 B( 11-N , 25-C ) :   0.9586
B( 12-C , 14-C ) :   1.3519 B( 12-C , 59-H ) :   0.9749 B( 13-N , 31-C ) :   1.1536
B( 13-N , 35-C ) :   1.1479 B( 13-N , 36-C ) :   0.9458 B( 14-C , 18-C ) :   1.1388
B( 15-N , 42-C ) :   1.1075 B( 15-N , 46-C ) :   1.1200 B( 15-N , 47-C ) :   0.9625
B( 16-C , 51-C ) :   1.1758 B( 17-C , 60-H ) :   0.9622 B( 18-C , 19-C ) :   1.1443
B( 19-C , 21-C ) :   1.2388 B( 20-C , 28-C ) :   1.6250 B( 20-C , 63-H ) :   0.9701
B( 21-C , 26-C ) :   1.6192 B( 21-C , 64-H ) :   0.9712 B( 22-C , 23-C ) :   1.2905
B( 22-C , 28-C ) :   1.2685 B( 22-C , 29-C ) :   1.2202 B( 23-C , 24-C ) :   1.6169
B( 23-C , 65-H ) :   0.9705 B( 24-C , 66-H ) :   0.9694 B( 25-C , 67-H ) :   0.9760
B( 25-C , 68-H ) :   0.9828 B( 25-C , 69-H ) :   0.9822 B( 26-C , 27-C ) :   1.2332
B( 26-C , 70-H ) :   0.9709 B( 27-C , 29-C ) :   1.2169 B( 28-C , 71-H ) :   0.9718
B( 29-C , 30-C ) :   1.2385 B( 30-C , 32-C ) :   1.2855 B( 31-C , 39-C ) :   1.5983
B( 31-C , 72-H ) :   0.9685 B( 32-C , 37-C ) :   1.5738 B( 32-C , 73-H ) :   0.9784
B( 33-C , 34-C ) :   1.3010 B( 33-C , 39-C ) :   1.2943 B( 33-C , 40-C ) :   1.1916
B( 34-C , 35-C ) :   1.5948 B( 34-C , 74-H ) :   0.9698 B( 35-C , 75-H ) :   0.9685
B( 36-C , 76-H ) :   0.9766 B( 36-C , 77-H ) :   0.9817 B( 36-C , 78-H ) :   0.9825
B( 37-C , 38-C ) :   1.2893 B( 37-C , 79-H ) :   0.9769 B( 38-C , 40-C ) :   1.2293
B( 39-C , 80-H ) :   0.9708 B( 40-C , 41-C ) :   1.2429 B( 41-C , 43-C ) :   1.1935
B( 42-C , 50-C ) :   1.6360 B( 42-C , 81-H ) :   0.9697 B( 43-C , 48-C ) :   1.6583
B( 43-C , 82-H ) :   0.9724 B( 44-C , 45-C ) :   1.2629 B( 44-C , 50-C ) :   1.2688
B( 44-C , 51-C ) :   1.2646 B( 45-C , 46-C ) :   1.6368 B( 45-C , 83-H ) :   0.9717
B( 46-C , 84-H ) :   0.9701 B( 47-C , 85-H ) :   0.9762 B( 47-C , 86-H ) :   0.9829
B( 47-C , 87-H ) :   0.9825 B( 48-C , 49-C ) :   1.1966 B( 48-C , 88-H ) :   0.9747
B( 49-C , 51-C ) :   1.2336 B( 50-C , 89-H ) :   0.9710

MP2 TOTAL ENERGY:    -2130.904979487 Eh
FINAL SINGLE POINT ENERGY     -2130.904979486607

DIPOLE MOMENT
-------------
                                X             Y             Z
Electronic contribution:      1.86008      -3.70427      -0.22422
Nuclear contribution   :      0.02920       0.20472       0.22593
                        -----------------------------------------
Total Dipole Moment    :      1.88927      -3.49955       0.00171
                        -----------------------------------------
Magnitude (a.u.)       :      3.97696
Magnitude (Debye)      :     10.10863

Rotational constants in cm-1:     0.001500     0.001477     0.000761
Rotational constants in MHz :    44.960273    44.291110    22.812095

                             ****ORCA TERMINATED NORMALLY****
TOTAL RUN TIME: 0 days 1 hours 11 minutes 14 seconds 462 msec
