                         Program Version 5.0.4 -  RELEASE  -
|  1> ! PAL2
|  2> ! mp2 cc-pvdz TightSCF  NoKeepInts
|  3>
|  4> %scf
|  5>   MaxCore 2000
|  6> end
|  7> %mp2
|  8>   MaxCore 2000
|  9> end
| 10> * xyz 0 1
| 11>    C       -3.60000         6.08600         1.15100
| 12>    C        1.47400         4.04100         0.05700
| 13>    C       -2.80200         4.09300         0.04900
| 14>    C       -3.62900         4.42300        -1.03600
| 15>    C       -4.40600         5.56400        -0.99300
| 16>    C       -5.20200         7.61000         0.08800
| 17>    C        0.13200         4.30700         0.06100
| 18>    C       -0.56900         3.05600         0.04700
| 19>    C        1.64900         2.61800         0.02300
| 20>    C       -2.80200         4.95900         1.15300
| 21>    N       -4.38700         6.37500         0.09000
| 22>    N        0.38800         2.06700         0.02500
| 23>    N       -2.01000         0.39500        -0.07500
| 24>    N       -0.38800        -2.07400        -0.02700
| 25>    N        2.01000        -0.40100         0.06500
| 26>    C       -1.96000         2.86100         0.02400
| 27>    C       -2.62300         1.61500        -0.01800
| 28>    C       -5.57300        -4.32900         1.06600
| 29>    C       -4.07300         1.47100         0.05600
| 30>    C       -4.10600        -2.75600        -0.02600
| 31>    C       -4.99500        -2.75700        -1.11100
| 32>    C       -6.13200        -3.54200        -1.07600
| 33>    C       -7.65100        -5.11300         0.04000
| 34>    C       -4.32400         0.14100         0.03700
| 35>    C       -3.02500        -0.52000        -0.04800
| 36>    C       -4.42200        -3.56600         1.07500
| 37>    N       -6.40700        -4.31300         0.00100
| 38>    C       -2.86700        -1.92200        -0.04000
| 39>    C       -1.65000        -2.62400        -0.02700
| 40>    C        3.56800        -6.14200        -1.04000
| 41>    C       -1.47600        -4.04900        -0.03400
| 42>    C        2.80300        -4.09900        -0.00800
| 43>    C        3.65700        -4.38400         1.06900
| 44>    C        4.42700        -5.53000         1.05900
| 45>    C        5.24500        -7.58800         0.01400
| 46>    C       -0.13400        -4.31500        -0.02200
| 47>    C        0.56800        -3.06400        -0.02700
| 48>    C        2.77500        -5.01200        -1.07400
| 49>    N        4.37600        -6.39100         0.01700
| 50>    C        1.95900        -2.86900        -0.00900
| 51>    C        2.62100        -1.62200         0.00900
| 52>    C        5.54300         4.33900        -1.13000
| 53>    C        4.07000        -1.47900        -0.09400
| 54>    C        4.10400         2.75100        -0.02100
| 55>    C        5.02700         2.72900         1.03600
| 56>    C        6.16600         3.50900         0.97800
| 57>    C        7.61900         5.15300        -0.11500
| 58>    C        4.32100        -0.14800        -0.09200
| 59>    C        3.02500         0.51400         0.01500
| 60>    C        4.38700         3.58200        -1.11500
| 61>    C        2.86600         1.91600         0.01300
| 62>    N        6.41300         4.29600        -0.09500
| 63>    H       -3.64100         6.77500         1.98600
| 64>    H        2.27400         4.76600         0.08100
| 65>    H       -3.66600         3.80000        -1.92100
| 66>    H       -5.05200         5.86400        -1.80800
| 67>    H       -4.63300         8.41100        -0.39100
| 68>    H       -6.12300         7.42200        -0.46300
| 69>    H       -5.43200         7.88000         1.11900
| 70>    H       -0.33200         5.28200         0.06900
| 71>    H       -2.19500         4.75100         2.02700
| 72>    H        0.18200         1.07200         0.00500
| 73>    H       -0.18300        -1.08000        -0.02100
| 74>    H       -5.86400        -4.96200         1.89500
| 75>    H       -4.79400         2.27200         0.13900
| 76>    H       -4.80000        -2.16000        -1.99400
| 77>    H       -6.84100        -3.58200        -1.89300
| 78>    H       -8.42800        -4.53600         0.54600
| 79>    H       -7.95600        -5.33700        -0.98100
| 80>    H       -7.45600        -6.03700         0.58400
| 81>    H       -5.28700        -0.34400         0.10000
| 82>    H       -3.78000        -3.60100         1.94700
| 83>    H        3.58700        -6.86800        -1.84300
| 84>    H       -2.27600        -4.77400        -0.05000
| 85>    H        3.71400        -3.72400         1.92600
| 86>    H        5.09200        -5.79500         1.87100
| 87>    H        6.20500        -7.32900        -0.43900
| 88>    H        5.39300        -7.91700         1.04200
| 89>    H        4.75900        -8.37300        -0.56400
| 90>    H        0.32900        -5.29000        -0.00800
| 91>    H        2.14600        -4.84200        -1.94000
| 92>    H        5.80800         4.98600        -1.95600
| 93>    H        4.78800        -2.28100        -0.18500
| 94>    H        4.86000         2.11400         1.91200
| 95>    H        6.90100         3.53100         1.77200
| 96>    H        7.38300         6.10900         0.35600
| 97>    H        8.41400         4.65200         0.43500
| 98>    H        7.92100         5.31000        -1.15000
| 99>    H        5.28300         0.33600        -0.17900
|100>    H        3.72000         3.63200        -1.96700
|101> *
|102>
|103>                          ****END OF INPUT****

CARTESIAN COORDINATES (ANGSTROEM)
---------------------------------
  C     -3.600000    6.086000    1.151000
  C      1.474000    4.041000    0.057000
  C     -2.802000    4.093000    0.049000
  C     -3.629000    4.423000   -1.036000
  C     -4.406000    5.564000   -0.993000
  C     -5.202000    7.610000    0.088000
  C      0.132000    4.307000    0.061000
  C     -0.569000    3.056000    0.047000
  C      1.649000    2.618000    0.023000
  C     -2.802000    4.959000    1.153000
  N     -4.387000    6.375000    0.090000
  N      0.388000    2.067000    0.025000
  N     -2.010000    0.395000   -0.075000
  N     -0.388000   -2.074000   -0.027000
  N      2.010000   -0.401000    0.065000
  C     -1.960000    2.861000    0.024000
  C     -2.623000    1.615000   -0.018000
  C     -5.573000   -4.329000    1.066000
  C     -4.073000    1.471000    0.056000
  C     -4.106000   -2.756000   -0.026000
  C     -4.995000   -2.757000   -1.111000
  C     -6.132000   -3.542000   -1.076000
  C     -7.651000   -5.113000    0.040000
  C     -4.324000    0.141000    0.037000
  C     -3.025000   -0.520000   -0.048000
  C     -4.422000   -3.566000    1.075000
  N     -6.407000   -4.313000    0.001000
  C     -2.867000   -1.922000   -0.040000
  C     -1.650000   -2.624000   -0.027000
  C      3.568000   -6.142000   -1.040000
  C     -1.476000   -4.049000   -0.034000
  C      2.803000   -4.099000   -0.008000
  C      3.657000   -4.384000    1.069000
  C      4.427000   -5.530000    1.059000
  C      5.245000   -7.588000    0.014000
  C     -0.134000   -4.315000   -0.022000
  C      0.568000   -3.064000   -0.027000
  C      2.775000   -5.012000   -1.074000
  N      4.376000   -6.391000    0.017000
  C      1.959000   -2.869000   -0.009000
  C      2.621000   -1.622000    0.009000
  C      5.543000    4.339000   -1.130000
  C      4.070000   -1.479000   -0.094000
  C      4.104000    2.751000   -0.021000
  C      5.027000    2.729000    1.036000
  C      6.166000    3.509000    0.978000
  C      7.619000    5.153000   -0.115000
  C      4.321000   -0.148000   -0.092000
  C      3.025000    0.514000    0.015000
  C      4.387000    3.582000   -1.115000
  C      2.866000    1.916000    0.013000
  N      6.413000    4.296000   -0.095000
  H     -3.641000    6.775000    1.986000
  H      2.274000    4.766000    0.081000
  H     -3.666000    3.800000   -1.921000
  H     -5.052000    5.864000   -1.808000
  H     -4.633000    8.411000   -0.391000
  H     -6.123000    7.422000   -0.463000
  H     -5.432000    7.880000    1.119000
  H     -0.332000    5.282000    0.069000
  H     -2.195000    4.751000    2.027000
  H      0.182000    1.072000    0.005000
  H     -0.183000   -1.080000   -0.021000
  H     -5.864000   -4.962000    1.895000
  H     -4.794000    2.272000    0.139000
  H     -4.800000   -2.160000   -1.994000
  H     -6.841000   -3.582000   -1.893000
  H     -8.428000   -4.536000    0.546000
  H     -7.956000   -5.337000   -0.981000
  H     -7.456000   -6.037000    0.584000
  H     -5.287000   -0.344000    0.100000
  H     -3.780000   -3.601000    1.947000
  H      3.587000   -6.868000   -1.843000
  H     -2.276000   -4.774000   -0.050000
  H      3.714000   -3.724000    1.926000
  H      5.092000   -5.795000    1.871000
  H      6.205000   -7.329000   -0.439000
  H      5.393000   -7.917000    1.042000
  H      4.759000   -8.373000   -0.564000
  H      0.329000   -5.290000   -0.008000
  H      2.146000   -4.842000   -1.940000
  H      5.808000    4.986000   -1.956000
  H      4.788000   -2.281000   -0.185000
  H      4.860000    2.114000    1.912000
  H      6.901000    3.531000    1.772000
  H      7.383000    6.109000    0.356000
  H      8.414000    4.652000    0.435000
  H      7.921000    5.310000   -1.150000
  H      5.283000    0.336000   -0.179000
  H      3.720000    3.632000   -1.967000

 Total Charge           Charge          ....    0
 Multiplicity           Mult            ....    1
 Number of Electrons    NEL             ....  358
 Basis Dimension        Dim             ....  918

ORBITAL ENERGIES
----------------

  NO   OCC          E(Eh)            E(eV)
   0   2.0000     -15.639605      -425.5753
   1   2.0000     -15.639584      -425.5747
   2   2.0000     -15.628055      -425.2610
   3   2.0000     -15.626826      -425.2276
   4   2.0000     -15.516123      -422.2152
   5   2.0000     -15.515843      -422.2075
   6   2.0000     -15.445068      -420.2817
   7   2.0000     -15.440559      -420.1590
   8   2.0000     -11.303048      -307.5716
   9   2.0000     -11.302738      -307.5631
  10   2.0000     -11.295471      -307.3654
  11   2.0000     -11.295226      -307.3587
  12   2.0000     -11.295177      -307.3574
  13   2.0000     -11.294962      -307.3515
  14   2.0000     -11.294259      -307.3324
  15   2.0000     -11.294003      -307.3254
  16   2.0000     -11.285597      -307.0967
  17   2.0000     -11.285573      -307.0961
  18   2.0000     -11.284196      -307.0586
  19   2.0000     -11.282688      -307.0176
  20   2.0000     -11.243205      -305.9432
  21   2.0000     -11.242881      -305.9343
  22   2.0000     -11.234522      -305.7069
  23   2.0000     -11.234177      -305.6975
  24   2.0000     -11.234006      -305.6928
  25   2.0000     -11.233830      -305.6881
  26   2.0000     -11.232261      -305.6454
  27   2.0000     -11.231759      -305.6317
  28   2.0000     -11.225833      -305.4704
  29   2.0000     -11.225736      -305.4678
  30   2.0000     -11.225358      -305.4575
  31   2.0000     -11.224508      -305.4344
  32   2.0000     -11.196612      -304.6753
  33   2.0000     -11.196443      -304.6707
  34   2.0000     -11.196376      -304.6689
  35   2.0000     -11.196169      -304.6633
  36   2.0000     -11.174322      -304.0688
  37   2.0000     -11.174269      -304.0673
  38   2.0000     -11.170958      -303.9772
  39   2.0000     -11.170590      -303.9672
  40   2.0000     -11.166299      -303.8504
  41   2.0000     -11.166081      -303.8445
  42   2.0000     -11.165078      -303.8172
  43   2.0000     -11.164928      -303.8131
  44   2.0000     -11.156446      -303.5823
  45   2.0000     -11.156106      -303.5731
  46   2.0000     -11.153987      -303.5154
  47   2.0000     -11.153813      -303.5107
  48   2.0000     -11.145893      -303.2952
  49   2.0000     -11.144430      -303.2554
  50   2.0000     -11.137220      -303.0592
  51   2.0000     -11.135767      -303.0196
  52   2.0000      -1.326074       -36.0843
  53   2.0000      -1.325967       -36.0814
  54   2.0000      -1.315885       -35.8070
  55   2.0000      -1.315100       -35.7857
  56   2.0000      -1.215200       -33.0673
  57   2.0000      -1.213188       -33.0125
  58   2.0000      -1.162350       -31.6292
  59   2.0000      -1.154204       -31.4075
  60   2.0000      -1.115859       -30.3641
  61   2.0000      -1.111630       -30.2490
  62   2.0000      -1.106399       -30.1066
  63   2.0000      -1.102494       -30.0004
  64   2.0000      -1.049900       -28.5692
  65   2.0000      -1.049719       -28.5643
  66   2.0000      -1.040396       -28.3106
  67   2.0000      -1.039802       -28.2945
  68   2.0000      -1.025984       -27.9184
  69   2.0000      -1.010676       -27.5019
  70   2.0000      -1.007333       -27.4109
  71   2.0000      -0.998496       -27.1705
  72   2.0000      -0.978969       -26.6391
  73   2.0000      -0.977334       -26.5946
  74   2.0000      -0.967307       -26.3218
  75   2.0000      -0.962106       -26.1802
  76   2.0000      -0.951373       -25.8882
  77   2.0000      -0.944430       -25.6992
  78   2.0000      -0.936997       -25.4970
  79   2.0000      -0.923126       -25.1195
  80   2.0000      -0.891636       -24.2626
  81   2.0000      -0.877576       -23.8801
  82   2.0000      -0.875552       -23.8250
  83   2.0000      -0.868393       -23.6302
  84   2.0000      -0.865812       -23.5599
  85   2.0000      -0.856397       -23.3037
  86   2.0000      -0.850354       -23.1393
  87   2.0000      -0.842154       -22.9162
  88   2.0000      -0.821951       -22.3664
  89   2.0000      -0.797775       -21.7085
  90   2.0000      -0.797601       -21.7038
  91   2.0000      -0.738862       -20.1055
  92   2.0000      -0.727642       -19.8001
  93   2.0000      -0.727307       -19.7910
  94   2.0000      -0.722857       -19.6699
  95   2.0000      -0.717624       -19.5275
  96   2.0000      -0.711281       -19.3549
  97   2.0000      -0.710651       -19.3378
  98   2.0000      -0.697561       -18.9816
  99   2.0000      -0.690651       -18.7936
 100   2.0000      -0.683340       -18.5946
 101   2.0000      -0.681081       -18.5332
 102   2.0000      -0.679733       -18.4965
 103   2.0000      -0.672885       -18.3101
 104   2.0000      -0.668945       -18.2029
 105   2.0000      -0.668154       -18.1814
 106   2.0000      -0.661396       -17.9975
 107   2.0000      -0.659230       -17.9386
 108   2.0000      -0.657272       -17.8853
 109   2.0000      -0.654647       -17.8138
 110   2.0000      -0.651431       -17.7263
 111   2.0000      -0.650608       -17.7039
 112   2.0000      -0.648152       -17.6371
 113   2.0000      -0.646587       -17.5945
 114   2.0000      -0.633867       -17.2484
 115   2.0000      -0.623197       -16.9581
 116   2.0000      -0.616719       -16.7818
 117   2.0000      -0.616442       -16.7742
 118   2.0000      -0.610300       -16.6071
 119   2.0000      -0.608149       -16.5486
 120   2.0000      -0.607548       -16.5322
 121   2.0000      -0.606782       -16.5114
 122   2.0000      -0.602134       -16.3849
 123   2.0000      -0.594693       -16.1824
 124   2.0000      -0.585291       -15.9266
 125   2.0000      -0.584954       -15.9174
 126   2.0000      -0.577718       -15.7205
 127   2.0000      -0.577073       -15.7030
 128   2.0000      -0.568076       -15.4581
 129   2.0000      -0.564718       -15.3668
 130   2.0000      -0.553276       -15.0554
 131   2.0000      -0.541384       -14.7318
 132   2.0000      -0.541066       -14.7232
 133   2.0000      -0.534750       -14.5513
 134   2.0000      -0.533845       -14.5267
 135   2.0000      -0.529918       -14.4198
 136   2.0000      -0.524421       -14.2702
 137   2.0000      -0.522587       -14.2203
 138   2.0000      -0.517850       -14.0914
 139   2.0000      -0.514418       -13.9980
 140   2.0000      -0.509918       -13.8756
 141   2.0000      -0.507412       -13.8074
 142   2.0000      -0.503162       -13.6917
 143   2.0000      -0.501849       -13.6560
 144   2.0000      -0.497540       -13.5387
 145   2.0000      -0.497114       -13.5272
 146   2.0000      -0.496066       -13.4986
 147   2.0000      -0.494555       -13.4575
 148   2.0000      -0.490502       -13.3472
 149   2.0000      -0.467740       -12.7279
 150   2.0000      -0.459691       -12.5088
 151   2.0000      -0.451046       -12.2736
 152   2.0000      -0.446004       -12.1364
 153   2.0000      -0.445813       -12.1312
 154   2.0000      -0.444362       -12.0917
 155   2.0000      -0.439501       -11.9594
 156   2.0000      -0.434939       -11.8353
 157   2.0000      -0.429742       -11.6939
 158   2.0000      -0.388867       -10.5816
 159   2.0000      -0.383204       -10.4275
 160   2.0000      -0.375352       -10.2139
 161   2.0000      -0.373828       -10.1724
 162   2.0000      -0.360246        -9.8028
 163   2.0000      -0.359957        -9.7949
 164   2.0000      -0.352090        -9.5809
 165   2.0000      -0.351692        -9.5700
 166   2.0000      -0.337602        -9.1866
 167   2.0000      -0.332651        -9.0519
 168   2.0000      -0.326676        -8.8893
 169   2.0000      -0.300163        -8.1678
 170   2.0000      -0.291741        -7.9387
 171   2.0000      -0.291088        -7.9209
 172   2.0000      -0.287033        -7.8106
 173   2.0000      -0.255369        -6.9490
 174   2.0000      -0.245889        -6.6910
 175   2.0000      -0.187140        -5.0923
 176   2.0000      -0.176832        -4.8118
 177   2.0000      -0.064306        -1.7498
 178   2.0000      -0.053581        -1.4580
 179   0.0000       0.031982         0.8703
 180   0.0000       0.070113         1.9079
 181   0.0000       0.092778         2.5246
 182   0.0000       0.095490         2.5984
 183   0.0000       0.133842         3.6420

MULLIKEN ATOMIC CHARGES
-----------------------
   0 C :    0.209385
   1 N :   -0.437682
   2 C :   -0.066092
   3 N :   -0.339242
   4 C :   -0.081877
   5 N :   -0.562892
   6 C :   -0.050488
   7 N :   -0.337945
   8 C :    0.207358
   9 N :   -0.563398
  10 C :    0.112678
  11 N :   -0.437315
  12 C :   -0.065336
  13 N :   -0.441508
  14 C :    0.232276
  15 N :   -0.440605
  16 C :    0.238882
  17 C :   -0.055151
  18 C :   -0.190855
  19 C :    0.225831
  20 C :    0.205874
  21 C :   -0.072448
  22 C :   -0.085442
  23 C :   -0.051827
  24 C :    0.209050
  25 C :    0.113690
  26 C :   -0.072885
  27 C :    0.226959
  28 C :   -0.049854
  29 C :   -0.187334
  30 C :    0.233244
  31 C :    0.207453
  32 C :   -0.065131
  33 C :   -0.084726
  34 C :   -0.049866
  35 C :    0.199953
  36 C :    0.115195
  37 C :   -0.067062
  38 C :    0.238423
  39 C :   -0.062269
  40 C :   -0.191336
  41 C :    0.219473
  42 C :    0.205029
  43 C :   -0.074324
  44 C :   -0.088640
  45 C :   -0.050472
  46 C :    0.200938
  47 C :    0.115657
  48 C :   -0.076425
  49 C :    0.222902
  50 C :   -0.054803
  51 C :   -0.190070
  52 H :    0.058377
  53 H :   -0.013393
  54 H :    0.046534
  55 H :    0.056585
  56 H :    0.062826
  57 H :    0.059466
  58 H :    0.058875
  59 H :   -0.016432
  60 H :    0.048363
  61 H :    0.173341
  62 H :    0.172190
  63 H :    0.056905
  64 H :   -0.022699
  65 H :    0.046024
  66 H :    0.057845
  67 H :    0.062887
  68 H :    0.058208
  69 H :    0.059406
  70 H :   -0.023306
  71 H :    0.048625
  72 H :    0.053373
  73 H :   -0.015216
  74 H :    0.043955
  75 H :    0.052334
  76 H :    0.059455
  77 H :    0.056196
  78 H :    0.055378
  79 H :   -0.013330
  80 H :    0.044119
  81 H :    0.053437
  82 H :   -0.023740
  83 H :    0.043223
  84 H :    0.052807
  85 H :    0.058512
  86 H :    0.056478
  87 H :    0.056564
  88 H :   -0.023696
  89 H :    0.044579
Sum of atomic charges:    0.0000000

LOEWDIN ATOMIC CHARGES
----------------------
   0 C :    0.001127
   1 N :    0.144763
   2 C :   -0.100669
   3 N :    0.176640
   4 C :    0.044370
   5 N :   -0.139426
   6 C :   -0.020059
   7 N :    0.177369
   8 C :    0.000114
   9 N :   -0.138673
  10 C :    0.030214
  11 N :    0.145129
  12 C :   -0.100860
  13 N :    0.137368
  14 C :   -0.047430
  15 N :    0.138508
  16 C :   -0.041865
  17 C :   -0.022931
  18 C :   -0.110196
  19 C :   -0.088110
  20 C :   -0.001148
  21 C :   -0.103592
  22 C :    0.044296
  23 C :   -0.022306
  24 C :    0.001779
  25 C :    0.030536
  26 C :   -0.103011
  27 C :   -0.088603
  28 C :   -0.019470
  29 C :   -0.108816
  30 C :   -0.049070
  31 C :   -0.002856
  32 C :   -0.099247
  33 C :    0.033222
  34 C :   -0.020685
  35 C :   -0.009346
  36 C :    0.028656
  37 C :   -0.102037
  38 C :   -0.039262
  39 C :   -0.026817
  40 C :   -0.109430
  41 C :   -0.094492
  42 C :   -0.003994
  43 C :   -0.106472
  44 C :    0.034380
  45 C :   -0.021094
  46 C :   -0.007529
  47 C :    0.029213
  48 C :   -0.107109
  49 C :   -0.094038
  50 C :   -0.024296
  51 C :   -0.108972
  52 H :    0.031231
  53 H :    0.004634
  54 H :    0.045000
  55 H :    0.030916
  56 H :    0.028555
  57 H :    0.031605
  58 H :    0.032428
  59 H :    0.003491
  60 H :    0.045515
  61 H :    0.060800
  62 H :    0.060121
  63 H :    0.031112
  64 H :   -0.001300
  65 H :    0.044837
  66 H :    0.030776
  67 H :    0.028583
  68 H :    0.032066
  69 H :    0.031612
  70 H :   -0.001611
  71 H :    0.045769
  72 H :    0.029339
  73 H :    0.003661
  74 H :    0.043805
  75 H :    0.028554
  76 H :    0.026800
  77 H :    0.030639
  78 H :    0.030293
  79 H :    0.004649
  80 H :    0.043216
  81 H :    0.028978
  82 H :   -0.001934
  83 H :    0.043691
  84 H :    0.028883
  85 H :    0.026312
  86 H :    0.030516
  87 H :    0.031087
  88 H :   -0.002002
  89 H :    0.043605

  Mayer bond orders larger than 0.100000
B(  0-C ,  1-N ) :   1.1264 B(  0-C , 17-C ) :   1.6228 B(  0-C , 52-H ) :   0.9689
B(  1-N ,  8-C ) :   1.1231 B(  1-N , 10-C ) :   0.9578 B(  2-C , 12-C ) :   1.5416
B(  2-C , 16-C ) :   1.3159 B(  2-C , 53-H ) :   0.9781 B(  3-N , 14-C ) :   1.1983
B(  3-N , 16-C ) :   1.1962 B(  3-N , 61-H ) :   0.8981 B(  4-C ,  6-C ) :   1.2782
B(  4-C , 17-C ) :   1.2759 B(  4-C , 18-C ) :   1.2378 B(  5-N , 19-C ) :   1.4107
B(  5-N , 27-C ) :   1.4123 B(  6-C ,  8-C ) :   1.6222 B(  6-C , 54-H ) :   0.9710
B(  7-N , 30-C ) :   1.1911 B(  7-N , 38-C ) :   1.2040 B(  7-N , 62-H ) :   0.8987
B(  8-C , 55-H ) :   0.9702 B(  9-N , 41-C ) :   1.4114 B(  9-N , 49-C ) :   1.4136
B( 10-C , 56-H ) :   0.9762 B( 10-C , 57-H ) :   0.9822 B( 10-C , 58-H ) :   0.9828
B( 11-N , 20-C ) :   1.1224 B( 11-N , 24-C ) :   1.1272 B( 11-N , 25-C ) :   0.9577
B( 12-C , 14-C ) :   1.3174 B( 12-C , 59-H ) :   0.9777 B( 13-N , 31-C ) :   1.1178
B( 13-N , 35-C ) :   1.1097 B( 13-N , 36-C ) :   0.9632 B( 14-C , 18-C ) :   1.2074
B( 15-N , 42-C ) :   1.1180 B( 15-N , 46-C ) :   1.1118 B( 15-N , 47-C ) :   0.9625
B( 16-C , 51-C ) :   1.2077 B( 17-C , 60-H ) :   0.9713 B( 18-C , 19-C ) :   1.2263
B( 19-C , 21-C ) :   1.2070 B( 20-C , 28-C ) :   1.6217 B( 20-C , 63-H ) :   0.9703
B( 21-C , 26-C ) :   1.6452 B( 21-C , 64-H ) :   0.9738 B( 22-C , 23-C ) :   1.2807
B( 22-C , 28-C ) :   1.2775 B( 22-C , 29-C ) :   1.2313 B( 23-C , 24-C ) :   1.6186
B( 23-C , 65-H ) :   0.9711 B( 24-C , 66-H ) :   0.9690 B( 25-C , 67-H ) :   0.9762
B( 25-C , 68-H ) :   0.9830 B( 25-C , 69-H ) :   0.9820 B( 26-C , 27-C ) :   1.2058
B( 26-C , 70-H ) :   0.9735 B( 27-C , 29-C ) :   1.2290 B( 28-C , 71-H ) :   0.9713
B( 29-C , 30-C ) :   1.2087 B( 30-C , 32-C ) :   1.3160 B( 31-C , 39-C ) :   1.6385
B( 31-C , 72-H ) :   0.9698 B( 32-C , 37-C ) :   1.5423 B( 32-C , 73-H ) :   0.9776
B( 33-C , 34-C ) :   1.2691 B( 33-C , 39-C ) :   1.2615 B( 33-C , 40-C ) :   1.2642
B( 34-C , 35-C ) :   1.6356 B( 34-C , 74-H ) :   0.9705 B( 35-C , 75-H ) :   0.9699
B( 36-C , 76-H ) :   0.9762 B( 36-C , 77-H ) :   0.9822 B( 36-C , 78-H ) :   0.9832
B( 37-C , 38-C ) :   1.3167 B( 37-C , 79-H ) :   0.9780 B( 38-C , 40-C ) :   1.2051
B( 39-C , 80-H ) :   0.9716 B( 40-C , 41-C ) :   1.2100 B( 41-C , 43-C ) :   1.2219
B( 42-C , 50-C ) :   1.6339 B( 42-C , 81-H ) :   0.9696 B( 43-C , 48-C ) :   1.6294
B( 43-C , 82-H ) :   0.9739 B( 44-C , 45-C ) :   1.2726 B( 44-C , 50-C ) :   1.2652
B( 44-C , 51-C ) :   1.2543 B( 45-C , 46-C ) :   1.6318 B( 45-C , 83-H ) :   0.9710
B( 46-C , 84-H ) :   0.9703 B( 47-C , 85-H ) :   0.9761 B( 47-C , 86-H ) :   0.9828
B( 47-C , 87-H ) :   0.9826 B( 48-C , 49-C ) :   1.2207 B( 48-C , 88-H ) :   0.9736
B( 49-C , 51-C ) :   1.2127 B( 50-C , 89-H ) :   0.9714

MP2 TOTAL ENERGY:    -2130.911926535 Eh
FINAL SINGLE POINT ENERGY     -2130.911926534790

DIPOLE MOMENT
-------------
                                X             Y             Z
Electronic contribution:     -0.94003      -0.00101      -0.05948
Nuclear contribution   :      0.03083       0.20946       0.07423
                        -----------------------------------------
Total Dipole Moment    :     -0.90920       0.20845       0.01475
                        -----------------------------------------
Magnitude (a.u.)       :      0.93290
Magnitude (Debye)      :      2.37125

Rotational constants in cm-1:     0.001499     0.001473     0.000762
Rotational constants in MHz :    44.945626    44.150402    22.853568

                             ****ORCA TERMINATED NORMALLY****
TOTAL RUN TIME: 0 days 1 hours 6 minutes 58 seconds 365 msec
