                         Program Version 5.0.4 -  RELEASE  -
|  1> ! PAL2
|  2> ! mp2 cc-pvdz TightSCF  NoKeepInts
|  3>
|  4> %scf
|  5>   MaxCore 2000
|  6> end
|  7> %mp2
|  8>   MaxCore 2000
|  9> end
| 10> * xyz 0 1
| 11>    C       -3.42700         6.20700         1.03100
| 12>    C        1.47400         4.04100         0.05700
| 13>    C       -2.80200         4.09300         0.04900
| 14>    C       -3.80700         4.29900        -0.90800
| 15>    C       -4.58000         5.44200        -0.86700
| 16>    C       -5.20700         7.60600         0.08800
| 17>    C        0.13200         4.30700         0.06100
| 18>    C       -0.56900         3.05600         0.04700
| 19>    C        1.64900         2.61800         0.02300
| 20>    C       -2.62400         5.08300         1.02800
| 21>    N       -4.38800         6.37500         0.09400
| 22>    N        0.38800         2.06700         0.02500
| 23>    N       -2.01000         0.39500        -0.07500
| 24>    N       -0.38800        -2.07400        -0.02700
| 25>    N        2.01000        -0.40100         0.06500
| 26>    C       -1.96000         2.86100         0.02400
| 27>    C       -2.62300         1.61500        -0.01800
| 28>    C       -5.57300        -4.32900         1.06600
| 29>    C       -4.07300         1.47100         0.05600
| 30>    C       -4.10600        -2.75600        -0.02600
| 31>    C       -4.99500        -2.75700        -1.11100
| 32>    C       -6.13200        -3.54200        -1.07600
| 33>    C       -7.65100        -5.11300         0.04000
| 34>    C       -4.32400         0.14100         0.03700
| 35>    C       -3.02500        -0.52000        -0.04800
| 36>    C       -4.42200        -3.56600         1.07500
| 37>    N       -6.40700        -4.31300         0.00100
| 38>    C       -2.86700        -1.92200        -0.04000
| 39>    C       -1.65000        -2.62400        -0.02700
| 40>    C        3.56800        -6.14200        -1.04000
| 41>    C       -1.47600        -4.04900        -0.03400
| 42>    C        2.80300        -4.09900        -0.00800
| 43>    C        3.65700        -4.38400         1.06900
| 44>    C        4.42700        -5.53000         1.05900
| 45>    C        5.24500        -7.58800         0.01400
| 46>    C       -0.13400        -4.31500        -0.02200
| 47>    C        0.56800        -3.06400        -0.02700
| 48>    C        2.77500        -5.01200        -1.07400
| 49>    N        4.37600        -6.39100         0.01700
| 50>    C        1.95900        -2.86900        -0.00900
| 51>    C        2.62100        -1.62200         0.00900
| 52>    C        5.54300         4.33900        -1.13000
| 53>    C        4.07000        -1.47900        -0.09400
| 54>    C        4.10400         2.75100        -0.02100
| 55>    C        5.02700         2.72900         1.03600
| 56>    C        6.16600         3.50900         0.97800
| 57>    C        7.61900         5.15300        -0.11500
| 58>    C        4.32100        -0.14800        -0.09200
| 59>    C        3.02500         0.51400         0.01500
| 60>    C        4.38700         3.58200        -1.11500
| 61>    C        2.86600         1.91600         0.01300
| 62>    N        6.41300         4.29600        -0.09500
| 63>    H       -3.33300         6.99000         1.77400
| 64>    H        2.27400         4.76600         0.08100
| 65>    H       -3.98700         3.57600        -1.69500
| 66>    H       -5.36100         5.64900        -1.58900
| 67>    H       -4.74000         8.34100        -0.57200
| 68>    H       -6.20700         7.36100        -0.27100
| 69>    H       -5.26100         7.99700         1.10400
| 70>    H       -0.33200         5.28200         0.06900
| 71>    H       -1.87400         4.97500         1.80300
| 72>    H        0.18200         1.07200         0.00500
| 73>    H       -0.18300        -1.08000        -0.02100
| 74>    H       -5.86400        -4.96200         1.89500
| 75>    H       -4.79400         2.27200         0.13900
| 76>    H       -4.80000        -2.16000        -1.99400
| 77>    H       -6.84100        -3.58200        -1.89300
| 78>    H       -8.42800        -4.53600         0.54600
| 79>    H       -7.95600        -5.33700        -0.98100
| 80>    H       -7.45600        -6.03700         0.58400
| 81>    H       -5.28700        -0.34400         0.10000
| 82>    H       -3.78000        -3.60100         1.94700
| 83>    H        3.58700        -6.86800        -1.84300
| 84>    H       -2.27600        -4.77400        -0.05000
| 85>    H        3.71400        -3.72400         1.92600
| 86>    H        5.09200        -5.79500         1.87100
| 87>    H        6.20500        -7.32900        -0.43900
| 88>    H        5.39300        -7.91700         1.04200
| 89>    H        4.75900        -8.37300        -0.56400
| 90>    H        0.32900        -5.29000        -0.00800
| 91>    H        2.14600        -4.84200        -1.94000
| 92>    H        5.80800         4.98600        -1.95600
| 93>    H        4.78800        -2.28100        -0.18500
| 94>    H        4.86000         2.11400         1.91200
| 95>    H        6.90100         3.53100         1.77200
| 96>    H        7.38300         6.10900         0.35600
| 97>    H        8.41400         4.65200         0.43500
| 98>    H        7.92100         5.31000        -1.15000
| 99>    H        5.28300         0.33600        -0.17900
|100>    H        3.72000         3.63200        -1.96700
|101> *
|102>
|103>                          ****END OF INPUT****

CARTESIAN COORDINATES (ANGSTROEM)
---------------------------------
  C     -3.427000    6.207000    1.031000
  C      1.474000    4.041000    0.057000
  C     -2.802000    4.093000    0.049000
  C     -3.807000    4.299000   -0.908000
  C     -4.580000    5.442000   -0.867000
  C     -5.207000    7.606000    0.088000
  C      0.132000    4.307000    0.061000
  C     -0.569000    3.056000    0.047000
  C      1.649000    2.618000    0.023000
  C     -2.624000    5.083000    1.028000
  N     -4.388000    6.375000    0.094000
  N      0.388000    2.067000    0.025000
  N     -2.010000    0.395000   -0.075000
  N     -0.388000   -2.074000   -0.027000
  N      2.010000   -0.401000    0.065000
  C     -1.960000    2.861000    0.024000
  C     -2.623000    1.615000   -0.018000
  C     -5.573000   -4.329000    1.066000
  C     -4.073000    1.471000    0.056000
  C     -4.106000   -2.756000   -0.026000
  C     -4.995000   -2.757000   -1.111000
  C     -6.132000   -3.542000   -1.076000
  C     -7.651000   -5.113000    0.040000
  C     -4.324000    0.141000    0.037000
  C     -3.025000   -0.520000   -0.048000
  C     -4.422000   -3.566000    1.075000
  N     -6.407000   -4.313000    0.001000
  C     -2.867000   -1.922000   -0.040000
  C     -1.650000   -2.624000   -0.027000
  C      3.568000   -6.142000   -1.040000
  C     -1.476000   -4.049000   -0.034000
  C      2.803000   -4.099000   -0.008000
  C      3.657000   -4.384000    1.069000
  C      4.427000   -5.530000    1.059000
  C      5.245000   -7.588000    0.014000
  C     -0.134000   -4.315000   -0.022000
  C      0.568000   -3.064000   -0.027000
  C      2.775000   -5.012000   -1.074000
  N      4.376000   -6.391000    0.017000
  C      1.959000   -2.869000   -0.009000
  C      2.621000   -1.622000    0.009000
  C      5.543000    4.339000   -1.130000
  C      4.070000   -1.479000   -0.094000
  C      4.104000    2.751000   -0.021000
  C      5.027000    2.729000    1.036000
  C      6.166000    3.509000    0.978000
  C      7.619000    5.153000   -0.115000
  C      4.321000   -0.148000   -0.092000
  C      3.025000    0.514000    0.015000
  C      4.387000    3.582000   -1.115000
  C      2.866000    1.916000    0.013000
  N      6.413000    4.296000   -0.095000
  H     -3.333000    6.990000    1.774000
  H      2.274000    4.766000    0.081000
  H     -3.987000    3.576000   -1.695000
  H     -5.361000    5.649000   -1.589000
  H     -4.740000    8.341000   -0.572000
  H     -6.207000    7.361000   -0.271000
  H     -5.261000    7.997000    1.104000
  H     -0.332000    5.282000    0.069000
  H     -1.874000    4.975000    1.803000
  H      0.182000    1.072000    0.005000
  H     -0.183000   -1.080000   -0.021000
  H     -5.864000   -4.962000    1.895000
  H     -4.794000    2.272000    0.139000
  H     -4.800000   -2.160000   -1.994000
  H     -6.841000   -3.582000   -1.893000
  H     -8.428000   -4.536000    0.546000
  H     -7.956000   -5.337000   -0.981000
  H     -7.456000   -6.037000    0.584000
  H     -5.287000   -0.344000    0.100000
  H     -3.780000   -3.601000    1.947000
  H      3.587000   -6.868000   -1.843000
  H     -2.276000   -4.774000   -0.050000
  H      3.714000   -3.724000    1.926000
  H      5.092000   -5.795000    1.871000
  H      6.205000   -7.329000   -0.439000
  H      5.393000   -7.917000    1.042000
  H      4.759000   -8.373000   -0.564000
  H      0.329000   -5.290000   -0.008000
  H      2.146000   -4.842000   -1.940000
  H      5.808000    4.986000   -1.956000
  H      4.788000   -2.281000   -0.185000
  H      4.860000    2.114000    1.912000
  H      6.901000    3.531000    1.772000
  H      7.383000    6.109000    0.356000
  H      8.414000    4.652000    0.435000
  H      7.921000    5.310000   -1.150000
  H      5.283000    0.336000   -0.179000
  H      3.720000    3.632000   -1.967000

 Total Charge           Charge          ....    0
 Multiplicity           Mult            ....    1
 Number of Electrons    NEL             ....  358
 Basis Dimension        Dim             ....  918

ORBITAL ENERGIES
----------------

  NO   OCC          E(Eh)            E(eV)
   0   2.0000     -15.650295      -425.8662
   1   2.0000     -15.639353      -425.5684
   2   2.0000     -15.628681      -425.2780
   3   2.0000     -15.611672      -424.8152
   4   2.0000     -15.521120      -422.3511
   5   2.0000     -15.515546      -422.1995
   6   2.0000     -15.446517      -420.3211
   7   2.0000     -15.443858      -420.2487
   8   2.0000     -11.309639      -307.7509
   9   2.0000     -11.305327      -307.6336
  10   2.0000     -11.302780      -307.5643
  11   2.0000     -11.302598      -307.5593
  12   2.0000     -11.296072      -307.3817
  13   2.0000     -11.295623      -307.3695
  14   2.0000     -11.293143      -307.3020
  15   2.0000     -11.286613      -307.1244
  16   2.0000     -11.286294      -307.1157
  17   2.0000     -11.284937      -307.0787
  18   2.0000     -11.273735      -306.7739
  19   2.0000     -11.272197      -306.7321
  20   2.0000     -11.254167      -306.2414
  21   2.0000     -11.242779      -305.9316
  22   2.0000     -11.242419      -305.9218
  23   2.0000     -11.241526      -305.8975
  24   2.0000     -11.234755      -305.7132
  25   2.0000     -11.234158      -305.6970
  26   2.0000     -11.233155      -305.6697
  27   2.0000     -11.226809      -305.4970
  28   2.0000     -11.226648      -305.4926
  29   2.0000     -11.219803      -305.3064
  30   2.0000     -11.214441      -305.1605
  31   2.0000     -11.214054      -305.1499
  32   2.0000     -11.204026      -304.8770
  33   2.0000     -11.203248      -304.8559
  34   2.0000     -11.192323      -304.5586
  35   2.0000     -11.191934      -304.5480
  36   2.0000     -11.177577      -304.1573
  37   2.0000     -11.175392      -304.0979
  38   2.0000     -11.175188      -304.0923
  39   2.0000     -11.173231      -304.0391
  40   2.0000     -11.167596      -303.8857
  41   2.0000     -11.167149      -303.8736
  42   2.0000     -11.166918      -303.8673
  43   2.0000     -11.164266      -303.7951
  44   2.0000     -11.163877      -303.7845
  45   2.0000     -11.162518      -303.7476
  46   2.0000     -11.150915      -303.4318
  47   2.0000     -11.148263      -303.3596
  48   2.0000     -11.147748      -303.3456
  49   2.0000     -11.144857      -303.2670
  50   2.0000     -11.139538      -303.1222
  51   2.0000     -11.135807      -303.0207
  52   2.0000      -1.335216       -36.3331
  53   2.0000      -1.325799       -36.0768
  54   2.0000      -1.316641       -35.8276
  55   2.0000      -1.303132       -35.4600
  56   2.0000      -1.220503       -33.2116
  57   2.0000      -1.211632       -32.9702
  58   2.0000      -1.163596       -31.6631
  59   2.0000      -1.156485       -31.4696
  60   2.0000      -1.122317       -30.5398
  61   2.0000      -1.113795       -30.3079
  62   2.0000      -1.105910       -30.0933
  63   2.0000      -1.095031       -29.7973
  64   2.0000      -1.058640       -28.8071
  65   2.0000      -1.049664       -28.5628
  66   2.0000      -1.041272       -28.3345
  67   2.0000      -1.029035       -28.0015
  68   2.0000      -1.028913       -27.9981
  69   2.0000      -1.011763       -27.5315
  70   2.0000      -1.009348       -27.4658
  71   2.0000      -0.995569       -27.0908
  72   2.0000      -0.984898       -26.8004
  73   2.0000      -0.974467       -26.5166
  74   2.0000      -0.971900       -26.4467
  75   2.0000      -0.958918       -26.0935
  76   2.0000      -0.951882       -25.9020
  77   2.0000      -0.945120       -25.7180
  78   2.0000      -0.938838       -25.5471
  79   2.0000      -0.922879       -25.1128
  80   2.0000      -0.894771       -24.3480
  81   2.0000      -0.883983       -24.0544
  82   2.0000      -0.876410       -23.8483
  83   2.0000      -0.868850       -23.6426
  84   2.0000      -0.862198       -23.4616
  85   2.0000      -0.855791       -23.2873
  86   2.0000      -0.848729       -23.0951
  87   2.0000      -0.841633       -22.9020
  88   2.0000      -0.821735       -22.3606
  89   2.0000      -0.798708       -21.7339
  90   2.0000      -0.796955       -21.6862
  91   2.0000      -0.740467       -20.1491
  92   2.0000      -0.732958       -19.9448
  93   2.0000      -0.730173       -19.8690
  94   2.0000      -0.721914       -19.6443
  95   2.0000      -0.719537       -19.5796
  96   2.0000      -0.712537       -19.3891
  97   2.0000      -0.706593       -19.2274
  98   2.0000      -0.699738       -19.0408
  99   2.0000      -0.694368       -18.8947
 100   2.0000      -0.688248       -18.7282
 101   2.0000      -0.681223       -18.5370
 102   2.0000      -0.679038       -18.4776
 103   2.0000      -0.673385       -18.3237
 104   2.0000      -0.669665       -18.2225
 105   2.0000      -0.665154       -18.0997
 106   2.0000      -0.664651       -18.0861
 107   2.0000      -0.659433       -17.9441
 108   2.0000      -0.658315       -17.9137
 109   2.0000      -0.657324       -17.8867
 110   2.0000      -0.651723       -17.7343
 111   2.0000      -0.649334       -17.6693
 112   2.0000      -0.645356       -17.5610
 113   2.0000      -0.638974       -17.3874
 114   2.0000      -0.635088       -17.2816
 115   2.0000      -0.624595       -16.9961
 116   2.0000      -0.622728       -16.9453
 117   2.0000      -0.616423       -16.7737
 118   2.0000      -0.611789       -16.6476
 119   2.0000      -0.610166       -16.6035
 120   2.0000      -0.608447       -16.5567
 121   2.0000      -0.603023       -16.4091
 122   2.0000      -0.596566       -16.2334
 123   2.0000      -0.592472       -16.1220
 124   2.0000      -0.591807       -16.1039
 125   2.0000      -0.585082       -15.9209
 126   2.0000      -0.578357       -15.7379
 127   2.0000      -0.574221       -15.6253
 128   2.0000      -0.567553       -15.4439
 129   2.0000      -0.559521       -15.2253
 130   2.0000      -0.553913       -15.0728
 131   2.0000      -0.547441       -14.8966
 132   2.0000      -0.541810       -14.7434
 133   2.0000      -0.536474       -14.5982
 134   2.0000      -0.534087       -14.5332
 135   2.0000      -0.528826       -14.3901
 136   2.0000      -0.525496       -14.2995
 137   2.0000      -0.522281       -14.2120
 138   2.0000      -0.519750       -14.1431
 139   2.0000      -0.517208       -14.0740
 140   2.0000      -0.509599       -13.8669
 141   2.0000      -0.506692       -13.7878
 142   2.0000      -0.505950       -13.7676
 143   2.0000      -0.501164       -13.6374
 144   2.0000      -0.500016       -13.6061
 145   2.0000      -0.498388       -13.5618
 146   2.0000      -0.494633       -13.4596
 147   2.0000      -0.491740       -13.3809
 148   2.0000      -0.489451       -13.3186
 149   2.0000      -0.469220       -12.7681
 150   2.0000      -0.461467       -12.5571
 151   2.0000      -0.452877       -12.3234
 152   2.0000      -0.448421       -12.2022
 153   2.0000      -0.446250       -12.1431
 154   2.0000      -0.446111       -12.1393
 155   2.0000      -0.439156       -11.9500
 156   2.0000      -0.435409       -11.8481
 157   2.0000      -0.430977       -11.7275
 158   2.0000      -0.394053       -10.7227
 159   2.0000      -0.383409       -10.4331
 160   2.0000      -0.379503       -10.3268
 161   2.0000      -0.371809       -10.1174
 162   2.0000      -0.367707       -10.0058
 163   2.0000      -0.360030        -9.7969
 164   2.0000      -0.353016        -9.6060
 165   2.0000      -0.341989        -9.3060
 166   2.0000      -0.337252        -9.1771
 167   2.0000      -0.333979        -9.0880
 168   2.0000      -0.329232        -8.9589
 169   2.0000      -0.300120        -8.1667
 170   2.0000      -0.298444        -8.1211
 171   2.0000      -0.288076        -7.8389
 172   2.0000      -0.286575        -7.7981
 173   2.0000      -0.256317        -6.9747
 174   2.0000      -0.247524        -6.7355
 175   2.0000      -0.188610        -5.1323
 176   2.0000      -0.178592        -4.8597
 177   2.0000      -0.068318        -1.8590
 178   2.0000      -0.055639        -1.5140
 179   0.0000       0.030170         0.8210
 180   0.0000       0.069866         1.9012
 181   0.0000       0.092903         2.5280
 182   0.0000       0.099865         2.7175
 183   0.0000       0.126311         3.4371

MULLIKEN ATOMIC CHARGES
-----------------------
   0 C :    0.204599
   1 N :   -0.446976
   2 C :   -0.064521
   3 N :   -0.336884
   4 C :   -0.065749
   5 N :   -0.561228
   6 C :   -0.077300
   7 N :   -0.338922
   8 C :    0.201236
   9 N :   -0.562807
  10 C :    0.116177
  11 N :   -0.437312
  12 C :   -0.072908
  13 N :   -0.436309
  14 C :    0.235097
  15 N :   -0.440992
  16 C :    0.232238
  17 C :   -0.083678
  18 C :   -0.192857
  19 C :    0.223264
  20 C :    0.210971
  21 C :   -0.081762
  22 C :   -0.086732
  23 C :   -0.045691
  24 C :    0.202611
  25 C :    0.113806
  26 C :   -0.073364
  27 C :    0.217965
  28 C :   -0.055201
  29 C :   -0.183025
  30 C :    0.239039
  31 C :    0.218096
  32 C :   -0.063665
  33 C :   -0.074375
  34 C :   -0.049656
  35 C :    0.211681
  36 C :    0.112129
  37 C :   -0.065764
  38 C :    0.235669
  39 C :   -0.060740
  40 C :   -0.185916
  41 C :    0.221570
  42 C :    0.200723
  43 C :   -0.073423
  44 C :   -0.089761
  45 C :   -0.055995
  46 C :    0.205790
  47 C :    0.115649
  48 C :   -0.072449
  49 C :    0.230131
  50 C :   -0.050475
  51 C :   -0.191101
  52 H :    0.048890
  53 H :   -0.014991
  54 H :    0.045200
  55 H :    0.047324
  56 H :    0.054464
  57 H :    0.053206
  58 H :    0.052476
  59 H :   -0.008203
  60 H :    0.045919
  61 H :    0.171981
  62 H :    0.173933
  63 H :    0.057082
  64 H :   -0.014364
  65 H :    0.046778
  66 H :    0.057515
  67 H :    0.063458
  68 H :    0.058207
  69 H :    0.058524
  70 H :   -0.025992
  71 H :    0.047750
  72 H :    0.061505
  73 H :   -0.011986
  74 H :    0.051404
  75 H :    0.060598
  76 H :    0.066395
  77 H :    0.061473
  78 H :    0.060636
  79 H :   -0.014420
  80 H :    0.051780
  81 H :    0.053638
  82 H :   -0.024379
  83 H :    0.042174
  84 H :    0.053098
  85 H :    0.059334
  86 H :    0.055779
  87 H :    0.056714
  88 H :   -0.019446
  89 H :    0.045642
Sum of atomic charges:   -0.0000000

LOEWDIN ATOMIC CHARGES
----------------------
   0 C :   -0.011827
   1 N :    0.127127
   2 C :   -0.100695
   3 N :    0.180063
   4 C :    0.017324
   5 N :   -0.134701
   6 C :   -0.027506
   7 N :    0.176787
   8 C :   -0.014414
   9 N :   -0.139343
  10 C :    0.026149
  11 N :    0.144942
  12 C :   -0.103171
  13 N :    0.150058
  14 C :   -0.040607
  15 N :    0.138133
  16 C :   -0.051268
  17 C :   -0.031832
  18 C :   -0.104786
  19 C :   -0.086919
  20 C :    0.003262
  21 C :   -0.106984
  22 C :    0.042773
  23 C :   -0.018209
  24 C :   -0.004003
  25 C :    0.030503
  26 C :   -0.105324
  27 C :   -0.103111
  28 C :   -0.022706
  29 C :   -0.103766
  30 C :   -0.040878
  31 C :    0.009764
  32 C :   -0.096822
  33 C :    0.054522
  34 C :   -0.017661
  35 C :    0.004317
  36 C :    0.031574
  37 C :   -0.098468
  38 C :   -0.044102
  39 C :   -0.022962
  40 C :   -0.108322
  41 C :   -0.094368
  42 C :   -0.007706
  43 C :   -0.103273
  44 C :    0.032905
  45 C :   -0.024761
  46 C :   -0.003345
  47 C :    0.029235
  48 C :   -0.102058
  49 C :   -0.082500
  50 C :   -0.021548
  51 C :   -0.109183
  52 H :    0.027123
  53 H :    0.003873
  54 H :    0.042032
  55 H :    0.027049
  56 H :    0.024241
  57 H :    0.028830
  58 H :    0.029452
  59 H :    0.005884
  60 H :    0.041675
  61 H :    0.060234
  62 H :    0.061045
  63 H :    0.031386
  64 H :    0.001095
  65 H :    0.045476
  66 H :    0.030372
  67 H :    0.028802
  68 H :    0.032072
  69 H :    0.031256
  70 H :   -0.002879
  71 H :    0.045089
  72 H :    0.033138
  73 H :    0.005199
  74 H :    0.046948
  75 H :    0.032461
  76 H :    0.030375
  77 H :    0.033114
  78 H :    0.032754
  79 H :    0.004055
  80 H :    0.046529
  81 H :    0.028898
  82 H :   -0.002366
  83 H :    0.042927
  84 H :    0.029201
  85 H :    0.026667
  86 H :    0.030237
  87 H :    0.031165
  88 H :    0.000024
  89 H :    0.044264

  Mayer bond orders larger than 0.100000
B(  0-C ,  1-N ) :   1.1041 B(  0-C , 17-C ) :   1.6660 B(  0-C , 52-H ) :   0.9688
B(  1-N ,  8-C ) :   1.0988 B(  1-N , 10-C ) :   0.9697 B(  2-C , 12-C ) :   1.5279
B(  2-C , 16-C ) :   1.3334 B(  2-C , 53-H ) :   0.9774 B(  3-N , 14-C ) :   1.2093
B(  3-N , 16-C ) :   1.1938 B(  3-N , 61-H ) :   0.8990 B(  4-C ,  6-C ) :   1.2414
B(  4-C , 17-C ) :   1.2387 B(  4-C , 18-C ) :   1.3344 B(  5-N , 19-C ) :   1.4332
B(  5-N , 27-C ) :   1.3950 B(  6-C ,  8-C ) :   1.6661 B(  6-C , 54-H ) :   0.9693
B(  7-N , 30-C ) :   1.1931 B(  7-N , 38-C ) :   1.1983 B(  7-N , 62-H ) :   0.8977
B(  8-C , 55-H ) :   0.9703 B(  9-N , 41-C ) :   1.4014 B(  9-N , 49-C ) :   1.4216
B( 10-C , 56-H ) :   0.9763 B( 10-C , 57-H ) :   0.9827 B( 10-C , 58-H ) :   0.9832
B( 11-N , 20-C ) :   1.1286 B( 11-N , 24-C ) :   1.1192 B( 11-N , 25-C ) :   0.9579
B( 12-C , 14-C ) :   1.3364 B( 12-C , 59-H ) :   0.9759 B( 13-N , 31-C ) :   1.1372
B( 13-N , 35-C ) :   1.1303 B( 13-N , 36-C ) :   0.9535 B( 14-C , 18-C ) :   1.1736
B( 15-N , 42-C ) :   1.1120 B( 15-N , 46-C ) :   1.1173 B( 15-N , 47-C ) :   0.9623
B( 16-C , 51-C ) :   1.1907 B( 17-C , 60-H ) :   0.9698 B( 18-C , 19-C ) :   1.1833
B( 19-C , 21-C ) :   1.2241 B( 20-C , 28-C ) :   1.6229 B( 20-C , 63-H ) :   0.9702
B( 21-C , 26-C ) :   1.6330 B( 21-C , 64-H ) :   0.9725 B( 22-C , 23-C ) :   1.2875
B( 22-C , 28-C ) :   1.2728 B( 22-C , 29-C ) :   1.2235 B( 23-C , 24-C ) :   1.6165
B( 23-C , 65-H ) :   0.9707 B( 24-C , 66-H ) :   0.9692 B( 25-C , 67-H ) :   0.9761
B( 25-C , 68-H ) :   0.9829 B( 25-C , 69-H ) :   0.9821 B( 26-C , 27-C ) :   1.2196
B( 26-C , 70-H ) :   0.9725 B( 27-C , 29-C ) :   1.2240 B( 28-C , 71-H ) :   0.9716
B( 29-C , 30-C ) :   1.2242 B( 30-C , 32-C ) :   1.2995 B( 31-C , 39-C ) :   1.6162
B( 31-C , 72-H ) :   0.9691 B( 32-C , 37-C ) :   1.5591 B( 32-C , 73-H ) :   0.9780
B( 33-C , 34-C ) :   1.2869 B( 33-C , 39-C ) :   1.2796 B( 33-C , 40-C ) :   1.2228
B( 34-C , 35-C ) :   1.6129 B( 34-C , 74-H ) :   0.9701 B( 35-C , 75-H ) :   0.9692
B( 36-C , 76-H ) :   0.9764 B( 36-C , 77-H ) :   0.9819 B( 36-C , 78-H ) :   0.9829
B( 37-C , 38-C ) :   1.3020 B( 37-C , 79-H ) :   0.9774 B( 38-C , 40-C ) :   1.2181
B( 39-C , 80-H ) :   0.9712 B( 40-C , 41-C ) :   1.2290 B( 41-C , 43-C ) :   1.2058
B( 42-C , 50-C ) :   1.6344 B( 42-C , 81-H ) :   0.9696 B( 43-C , 48-C ) :   1.6457
B( 43-C , 82-H ) :   0.9731 B( 44-C , 45-C ) :   1.2671 B( 44-C , 50-C ) :   1.2682
B( 44-C , 51-C ) :   1.2596 B( 45-C , 46-C ) :   1.6344 B( 45-C , 83-H ) :   0.9714
B( 46-C , 84-H ) :   0.9702 B( 47-C , 85-H ) :   0.9761 B( 47-C , 86-H ) :   0.9829
B( 47-C , 87-H ) :   0.9825 B( 48-C , 49-C ) :   1.2071 B( 48-C , 88-H ) :   0.9742
B( 49-C , 51-C ) :   1.2236 B( 50-C , 89-H ) :   0.9712

MP2 TOTAL ENERGY:    -2130.916166197 Eh
FINAL SINGLE POINT ENERGY     -2130.916166197263

DIPOLE MOMENT
-------------
                                X             Y             Z
Electronic contribution:      0.65389      -2.13835      -0.05747
Nuclear contribution   :      0.01676       0.20022       0.07005
                        -----------------------------------------
Total Dipole Moment    :      0.67065      -1.93812       0.01258
                        -----------------------------------------
Magnitude (a.u.)       :      2.05092
Magnitude (Debye)      :      5.21301

Rotational constants in cm-1:     0.001500     0.001474     0.000762
Rotational constants in MHz :    44.972293    44.184546    22.837564

                             ****ORCA TERMINATED NORMALLY****
TOTAL RUN TIME: 0 days 1 hours 5 minutes 53 seconds 680 msec
