                         Program Version 5.0.4 -  RELEASE  -
|  1> ! PAL2
|  2> ! mp2 cc-pvdz TightSCF  NoKeepInts
|  3>
|  4> %scf
|  5>   MaxCore 2000
|  6> end
|  7> %mp2
|  8>   MaxCore 2000
|  9> end
| 10> * xyz 0 1
| 11>    C       -3.12900         6.42000         0.60100
| 12>    C        1.47400         4.04100         0.05700
| 13>    C       -2.80200         4.09300         0.04900
| 14>    C       -4.11000         4.08300        -0.45900
| 15>    C       -4.87700         5.23000        -0.42300
| 16>    C       -5.21900         7.59800         0.09300
| 17>    C        0.13200         4.30700         0.06100
| 18>    C       -0.56900         3.05600         0.04700
| 19>    C        1.64900         2.61800         0.02300
| 20>    C       -2.32100         5.29900         0.58300
| 21>    N       -4.38600         6.37500         0.10500
| 22>    N        0.38800         2.06700         0.02500
| 23>    N       -2.01000         0.39500        -0.07500
| 24>    N       -0.38800        -2.07400        -0.02700
| 25>    N        2.01000        -0.40100         0.06500
| 26>    C       -1.96000         2.86100         0.02400
| 27>    C       -2.62300         1.61500        -0.01800
| 28>    C       -5.57300        -4.32900         1.06600
| 29>    C       -4.07300         1.47100         0.05600
| 30>    C       -4.10600        -2.75600        -0.02600
| 31>    C       -4.99500        -2.75700        -1.11100
| 32>    C       -6.13200        -3.54200        -1.07600
| 33>    C       -7.65100        -5.11300         0.04000
| 34>    C       -4.32400         0.14100         0.03700
| 35>    C       -3.02500        -0.52000        -0.04800
| 36>    C       -4.42200        -3.56600         1.07500
| 37>    N       -6.40700        -4.31300         0.00100
| 38>    C       -2.86700        -1.92200        -0.04000
| 39>    C       -1.65000        -2.62400        -0.02700
| 40>    C        3.56800        -6.14200        -1.04000
| 41>    C       -1.47600        -4.04900        -0.03400
| 42>    C        2.80300        -4.09900        -0.00800
| 43>    C        3.65700        -4.38400         1.06900
| 44>    C        4.42700        -5.53000         1.05900
| 45>    C        5.24500        -7.58800         0.01400
| 46>    C       -0.13400        -4.31500        -0.02200
| 47>    C        0.56800        -3.06400        -0.02700
| 48>    C        2.77500        -5.01200        -1.07400
| 49>    N        4.37600        -6.39100         0.01700
| 50>    C        1.95900        -2.86900        -0.00900
| 51>    C        2.62100        -1.62200         0.00900
| 52>    C        5.54300         4.33900        -1.13000
| 53>    C        4.07000        -1.47900        -0.09400
| 54>    C        4.10400         2.75100        -0.02100
| 55>    C        5.02700         2.72900         1.03600
| 56>    C        6.16600         3.50900         0.97800
| 57>    C        7.61900         5.15300        -0.11500
| 58>    C        4.32100        -0.14800        -0.09200
| 59>    C        3.02500         0.51400         0.01500
| 60>    C        4.38700         3.58200        -1.11500
| 61>    C        2.86600         1.91600         0.01300
| 62>    N        6.41300         4.29600        -0.09500
| 63>    H       -2.80400         7.36700         1.01400
| 64>    H        2.27400         4.76600         0.08100
| 65>    H       -4.53500         3.18500        -0.89200
| 66>    H       -5.88700         5.27300        -0.81000
| 67>    H       -5.09100         8.10700        -0.86500
| 68>    H       -6.26200         7.31300         0.23000
| 69>    H       -4.90000         8.24800         0.90800
| 70>    H       -0.33200         5.28200         0.06900
| 71>    H       -1.32400         5.36700         1.00300
| 72>    H        0.18200         1.07200         0.00500
| 73>    H       -0.18300        -1.08000        -0.02100
| 74>    H       -5.86400        -4.96200         1.89500
| 75>    H       -4.79400         2.27200         0.13900
| 76>    H       -4.80000        -2.16000        -1.99400
| 77>    H       -6.84100        -3.58200        -1.89300
| 78>    H       -8.42800        -4.53600         0.54600
| 79>    H       -7.95600        -5.33700        -0.98100
| 80>    H       -7.45600        -6.03700         0.58400
| 81>    H       -5.28700        -0.34400         0.10000
| 82>    H       -3.78000        -3.60100         1.94700
| 83>    H        3.58700        -6.86800        -1.84300
| 84>    H       -2.27600        -4.77400        -0.05000
| 85>    H        3.71400        -3.72400         1.92600
| 86>    H        5.09200        -5.79500         1.87100
| 87>    H        6.20500        -7.32900        -0.43900
| 88>    H        5.39300        -7.91700         1.04200
| 89>    H        4.75900        -8.37300        -0.56400
| 90>    H        0.32900        -5.29000        -0.00800
| 91>    H        2.14600        -4.84200        -1.94000
| 92>    H        5.80800         4.98600        -1.95600
| 93>    H        4.78800        -2.28100        -0.18500
| 94>    H        4.86000         2.11400         1.91200
| 95>    H        6.90100         3.53100         1.77200
| 96>    H        7.38300         6.10900         0.35600
| 97>    H        8.41400         4.65200         0.43500
| 98>    H        7.92100         5.31000        -1.15000
| 99>    H        5.28300         0.33600        -0.17900
|100>    H        3.72000         3.63200        -1.96700
|101> *
|102>
|103>                          ****END OF INPUT****

CARTESIAN COORDINATES (ANGSTROEM)
---------------------------------
  C     -3.129000    6.420000    0.601000
  C      1.474000    4.041000    0.057000
  C     -2.802000    4.093000    0.049000
  C     -4.110000    4.083000   -0.459000
  C     -4.877000    5.230000   -0.423000
  C     -5.219000    7.598000    0.093000
  C      0.132000    4.307000    0.061000
  C     -0.569000    3.056000    0.047000
  C      1.649000    2.618000    0.023000
  C     -2.321000    5.299000    0.583000
  N     -4.386000    6.375000    0.105000
  N      0.388000    2.067000    0.025000
  N     -2.010000    0.395000   -0.075000
  N     -0.388000   -2.074000   -0.027000
  N      2.010000   -0.401000    0.065000
  C     -1.960000    2.861000    0.024000
  C     -2.623000    1.615000   -0.018000
  C     -5.573000   -4.329000    1.066000
  C     -4.073000    1.471000    0.056000
  C     -4.106000   -2.756000   -0.026000
  C     -4.995000   -2.757000   -1.111000
  C     -6.132000   -3.542000   -1.076000
  C     -7.651000   -5.113000    0.040000
  C     -4.324000    0.141000    0.037000
  C     -3.025000   -0.520000   -0.048000
  C     -4.422000   -3.566000    1.075000
  N     -6.407000   -4.313000    0.001000
  C     -2.867000   -1.922000   -0.040000
  C     -1.650000   -2.624000   -0.027000
  C      3.568000   -6.142000   -1.040000
  C     -1.476000   -4.049000   -0.034000
  C      2.803000   -4.099000   -0.008000
  C      3.657000   -4.384000    1.069000
  C      4.427000   -5.530000    1.059000
  C      5.245000   -7.588000    0.014000
  C     -0.134000   -4.315000   -0.022000
  C      0.568000   -3.064000   -0.027000
  C      2.775000   -5.012000   -1.074000
  N      4.376000   -6.391000    0.017000
  C      1.959000   -2.869000   -0.009000
  C      2.621000   -1.622000    0.009000
  C      5.543000    4.339000   -1.130000
  C      4.070000   -1.479000   -0.094000
  C      4.104000    2.751000   -0.021000
  C      5.027000    2.729000    1.036000
  C      6.166000    3.509000    0.978000
  C      7.619000    5.153000   -0.115000
  C      4.321000   -0.148000   -0.092000
  C      3.025000    0.514000    0.015000
  C      4.387000    3.582000   -1.115000
  C      2.866000    1.916000    0.013000
  N      6.413000    4.296000   -0.095000
  H     -2.804000    7.367000    1.014000
  H      2.274000    4.766000    0.081000
  H     -4.535000    3.185000   -0.892000
  H     -5.887000    5.273000   -0.810000
  H     -5.091000    8.107000   -0.865000
  H     -6.262000    7.313000    0.230000
  H     -4.900000    8.248000    0.908000
  H     -0.332000    5.282000    0.069000
  H     -1.324000    5.367000    1.003000
  H      0.182000    1.072000    0.005000
  H     -0.183000   -1.080000   -0.021000
  H     -5.864000   -4.962000    1.895000
  H     -4.794000    2.272000    0.139000
  H     -4.800000   -2.160000   -1.994000
  H     -6.841000   -3.582000   -1.893000
  H     -8.428000   -4.536000    0.546000
  H     -7.956000   -5.337000   -0.981000
  H     -7.456000   -6.037000    0.584000
  H     -5.287000   -0.344000    0.100000
  H     -3.780000   -3.601000    1.947000
  H      3.587000   -6.868000   -1.843000
  H     -2.276000   -4.774000   -0.050000
  H      3.714000   -3.724000    1.926000
  H      5.092000   -5.795000    1.871000
  H      6.205000   -7.329000   -0.439000
  H      5.393000   -7.917000    1.042000
  H      4.759000   -8.373000   -0.564000
  H      0.329000   -5.290000   -0.008000
  H      2.146000   -4.842000   -1.940000
  H      5.808000    4.986000   -1.956000
  H      4.788000   -2.281000   -0.185000
  H      4.860000    2.114000    1.912000
  H      6.901000    3.531000    1.772000
  H      7.383000    6.109000    0.356000
  H      8.414000    4.652000    0.435000
  H      7.921000    5.310000   -1.150000
  H      5.283000    0.336000   -0.179000
  H      3.720000    3.632000   -1.967000

 Total Charge           Charge          ....    0
 Multiplicity           Mult            ....    1
 Number of Electrons    NEL             ....  358
 Basis Dimension        Dim             ....  918

ORBITAL ENERGIES
----------------

  NO   OCC          E(Eh)            E(eV)
   0   2.0000     -15.676281      -426.5733
   1   2.0000     -15.636459      -425.4897
   2   2.0000     -15.629443      -425.2988
   3   2.0000     -15.588431      -424.1828
   4   2.0000     -15.525520      -422.4709
   5   2.0000     -15.515626      -422.2016
   6   2.0000     -15.452634      -420.4875
   7   2.0000     -15.442036      -420.1992
   8   2.0000     -11.326864      -308.2196
   9   2.0000     -11.325766      -308.1898
  10   2.0000     -11.325031      -308.1698
  11   2.0000     -11.300890      -307.5129
  12   2.0000     -11.296838      -307.4026
  13   2.0000     -11.294896      -307.3498
  14   2.0000     -11.289034      -307.1902
  15   2.0000     -11.288965      -307.1884
  16   2.0000     -11.284675      -307.0716
  17   2.0000     -11.278784      -306.9113
  18   2.0000     -11.271343      -306.7088
  19   2.0000     -11.260951      -306.4261
  20   2.0000     -11.259991      -306.3999
  21   2.0000     -11.254495      -306.2504
  22   2.0000     -11.251046      -306.1565
  23   2.0000     -11.240166      -305.8605
  24   2.0000     -11.234277      -305.7002
  25   2.0000     -11.233095      -305.6681
  26   2.0000     -11.232498      -305.6518
  27   2.0000     -11.227962      -305.5284
  28   2.0000     -11.227637      -305.5195
  29   2.0000     -11.211363      -305.0767
  30   2.0000     -11.209868      -305.0360
  31   2.0000     -11.197021      -304.6864
  32   2.0000     -11.190116      -304.4985
  33   2.0000     -11.189440      -304.4801
  34   2.0000     -11.188425      -304.4525
  35   2.0000     -11.187522      -304.4280
  36   2.0000     -11.186660      -304.4045
  37   2.0000     -11.186103      -304.3893
  38   2.0000     -11.184919      -304.3571
  39   2.0000     -11.174297      -304.0681
  40   2.0000     -11.174171      -304.0646
  41   2.0000     -11.169089      -303.9264
  42   2.0000     -11.169041      -303.9250
  43   2.0000     -11.161007      -303.7064
  44   2.0000     -11.159580      -303.6676
  45   2.0000     -11.158934      -303.6500
  46   2.0000     -11.156616      -303.5870
  47   2.0000     -11.154293      -303.5237
  48   2.0000     -11.146603      -303.3145
  49   2.0000     -11.137657      -303.0710
  50   2.0000     -11.132276      -302.9246
  51   2.0000     -11.122054      -302.6465
  52   2.0000      -1.357397       -36.9366
  53   2.0000      -1.323389       -36.0112
  54   2.0000      -1.317548       -35.8523
  55   2.0000      -1.282557       -34.9002
  56   2.0000      -1.226447       -33.3733
  57   2.0000      -1.209931       -32.9239
  58   2.0000      -1.171746       -31.8848
  59   2.0000      -1.152342       -31.3568
  60   2.0000      -1.141147       -31.0522
  61   2.0000      -1.112026       -30.2598
  62   2.0000      -1.107288       -30.1308
  63   2.0000      -1.079318       -29.3697
  64   2.0000      -1.078717       -29.3534
  65   2.0000      -1.047508       -28.5041
  66   2.0000      -1.042299       -28.3624
  67   2.0000      -1.039550       -28.2876
  68   2.0000      -1.015207       -27.6252
  69   2.0000      -1.012090       -27.5404
  70   2.0000      -1.009073       -27.4583
  71   2.0000      -0.993763       -27.0417
  72   2.0000      -0.986180       -26.8353
  73   2.0000      -0.980908       -26.6919
  74   2.0000      -0.971799       -26.4440
  75   2.0000      -0.960730       -26.1428
  76   2.0000      -0.953376       -25.9427
  77   2.0000      -0.945889       -25.7390
  78   2.0000      -0.935162       -25.4470
  79   2.0000      -0.918382       -24.9904
  80   2.0000      -0.908030       -24.7087
  81   2.0000      -0.894635       -24.3443
  82   2.0000      -0.875482       -23.8231
  83   2.0000      -0.873251       -23.7624
  84   2.0000      -0.868401       -23.6304
  85   2.0000      -0.856895       -23.3173
  86   2.0000      -0.839130       -22.8339
  87   2.0000      -0.836469       -22.7615
  88   2.0000      -0.824337       -22.4314
  89   2.0000      -0.797525       -21.7018
  90   2.0000      -0.790564       -21.5123
  91   2.0000      -0.751867       -20.4593
  92   2.0000      -0.744145       -20.2492
  93   2.0000      -0.733631       -19.9631
  94   2.0000      -0.724849       -19.7241
  95   2.0000      -0.721917       -19.6444
  96   2.0000      -0.716429       -19.4950
  97   2.0000      -0.712391       -19.3851
  98   2.0000      -0.707430       -19.2502
  99   2.0000      -0.697491       -18.9797
 100   2.0000      -0.696275       -18.9466
 101   2.0000      -0.684839       -18.6354
 102   2.0000      -0.681968       -18.5573
 103   2.0000      -0.679520       -18.4907
 104   2.0000      -0.678754       -18.4698
 105   2.0000      -0.672528       -18.3004
 106   2.0000      -0.670068       -18.2335
 107   2.0000      -0.661014       -17.9871
 108   2.0000      -0.655249       -17.8302
 109   2.0000      -0.654489       -17.8096
 110   2.0000      -0.649745       -17.6805
 111   2.0000      -0.643690       -17.5157
 112   2.0000      -0.643455       -17.5093
 113   2.0000      -0.639007       -17.3883
 114   2.0000      -0.636937       -17.3319
 115   2.0000      -0.626874       -17.0581
 116   2.0000      -0.622656       -16.9433
 117   2.0000      -0.618854       -16.8399
 118   2.0000      -0.614372       -16.7179
 119   2.0000      -0.613273       -16.6880
 120   2.0000      -0.609720       -16.5913
 121   2.0000      -0.609039       -16.5728
 122   2.0000      -0.599416       -16.3109
 123   2.0000      -0.586221       -15.9519
 124   2.0000      -0.582912       -15.8618
 125   2.0000      -0.580450       -15.7948
 126   2.0000      -0.578775       -15.7493
 127   2.0000      -0.574808       -15.6413
 128   2.0000      -0.568372       -15.4662
 129   2.0000      -0.559071       -15.2131
 130   2.0000      -0.550510       -14.9801
 131   2.0000      -0.547675       -14.9030
 132   2.0000      -0.543433       -14.7876
 133   2.0000      -0.541941       -14.7470
 134   2.0000      -0.539488       -14.6802
 135   2.0000      -0.534587       -14.5468
 136   2.0000      -0.528150       -14.3717
 137   2.0000      -0.521426       -14.1887
 138   2.0000      -0.518309       -14.1039
 139   2.0000      -0.514081       -13.9889
 140   2.0000      -0.511835       -13.9277
 141   2.0000      -0.510617       -13.8946
 142   2.0000      -0.510133       -13.8814
 143   2.0000      -0.503753       -13.7078
 144   2.0000      -0.500794       -13.6273
 145   2.0000      -0.495882       -13.4936
 146   2.0000      -0.493187       -13.4203
 147   2.0000      -0.482756       -13.1365
 148   2.0000      -0.478370       -13.0171
 149   2.0000      -0.466935       -12.7060
 150   2.0000      -0.465994       -12.6804
 151   2.0000      -0.457224       -12.4417
 152   2.0000      -0.450432       -12.2569
 153   2.0000      -0.445961       -12.1352
 154   2.0000      -0.441101       -12.0030
 155   2.0000      -0.428344       -11.6558
 156   2.0000      -0.425069       -11.5667
 157   2.0000      -0.415378       -11.3030
 158   2.0000      -0.406936       -11.0733
 159   2.0000      -0.387276       -10.5383
 160   2.0000      -0.385339       -10.4856
 161   2.0000      -0.378116       -10.2890
 162   2.0000      -0.371380       -10.1058
 163   2.0000      -0.358417        -9.7530
 164   2.0000      -0.354194        -9.6381
 165   2.0000      -0.340542        -9.2666
 166   2.0000      -0.337834        -9.1929
 167   2.0000      -0.326580        -8.8867
 168   2.0000      -0.322417        -8.7734
 169   2.0000      -0.305531        -8.3139
 170   2.0000      -0.299378        -8.1465
 171   2.0000      -0.285301        -7.7634
 172   2.0000      -0.280632        -7.6364
 173   2.0000      -0.262526        -7.1437
 174   2.0000      -0.242715        -6.6046
 175   2.0000      -0.190078        -5.1723
 176   2.0000      -0.180577        -4.9137
 177   2.0000      -0.077412        -2.1065
 178   2.0000      -0.058890        -1.6025
 179   0.0000       0.028246         0.7686
 180   0.0000       0.065687         1.7874
 181   0.0000       0.090999         2.4762
 182   0.0000       0.108434         2.9506
 183   0.0000       0.111876         3.0443

MULLIKEN ATOMIC CHARGES
-----------------------
   0 C :    0.214384
   1 N :   -0.455812
   2 C :   -0.070886
   3 N :   -0.338332
   4 C :   -0.056109
   5 N :   -0.563392
   6 C :   -0.116062
   7 N :   -0.340599
   8 C :    0.206228
   9 N :   -0.562567
  10 C :    0.118725
  11 N :   -0.437988
  12 C :   -0.075467
  13 N :   -0.430191
  14 C :    0.217784
  15 N :   -0.441421
  16 C :    0.231030
  17 C :   -0.127283
  18 C :   -0.157239
  19 C :    0.203717
  20 C :    0.214234
  21 C :   -0.088917
  22 C :   -0.089219
  23 C :   -0.040383
  24 C :    0.195327
  25 C :    0.114279
  26 C :   -0.081684
  27 C :    0.212408
  28 C :   -0.060833
  29 C :   -0.181597
  30 C :    0.245267
  31 C :    0.229723
  32 C :   -0.061366
  33 C :   -0.062062
  34 C :   -0.050041
  35 C :    0.225553
  36 C :    0.108690
  37 C :   -0.064424
  38 C :    0.232477
  39 C :   -0.058815
  40 C :   -0.181167
  41 C :    0.224404
  42 C :    0.197160
  43 C :   -0.072700
  44 C :   -0.090902
  45 C :   -0.061056
  46 C :    0.209923
  47 C :    0.115634
  48 C :   -0.067762
  49 C :    0.237626
  50 C :   -0.046754
  51 C :   -0.194436
  52 H :    0.038900
  53 H :   -0.017276
  54 H :    0.053793
  55 H :    0.036646
  56 H :    0.048680
  57 H :    0.048367
  58 H :    0.046740
  59 H :    0.000532
  60 H :    0.050107
  61 H :    0.170940
  62 H :    0.175579
  63 H :    0.056187
  64 H :   -0.004741
  65 H :    0.047000
  66 H :    0.056300
  67 H :    0.063160
  68 H :    0.057623
  69 H :    0.057003
  70 H :   -0.028928
  71 H :    0.045816
  72 H :    0.070336
  73 H :   -0.008183
  74 H :    0.059525
  75 H :    0.069634
  76 H :    0.074094
  77 H :    0.067319
  78 H :    0.066506
  79 H :   -0.015946
  80 H :    0.060202
  81 H :    0.053857
  82 H :   -0.025197
  83 H :    0.041132
  84 H :    0.053341
  85 H :    0.060157
  86 H :    0.055111
  87 H :    0.056833
  88 H :   -0.014903
  89 H :    0.046648
Sum of atomic charges:   -0.0000000

LOEWDIN ATOMIC CHARGES
----------------------
   0 C :   -0.018835
   1 N :    0.116647
   2 C :   -0.102517
   3 N :    0.183324
   4 C :   -0.011893
   5 N :   -0.130992
   6 C :   -0.039028
   7 N :    0.175423
   8 C :   -0.026285
   9 N :   -0.140517
  10 C :    0.023432
  11 N :    0.143130
  12 C :   -0.115372
  13 N :    0.164470
  14 C :   -0.027585
  15 N :    0.137689
  16 C :   -0.058314
  17 C :   -0.047527
  18 C :   -0.102973
  19 C :   -0.081535
  20 C :    0.005581
  21 C :   -0.121958
  22 C :    0.038710
  23 C :   -0.014884
  24 C :   -0.010875
  25 C :    0.030107
  26 C :   -0.108801
  27 C :   -0.116343
  28 C :   -0.026603
  29 C :   -0.098744
  30 C :   -0.031755
  31 C :    0.023498
  32 C :   -0.093594
  33 C :    0.078846
  34 C :   -0.014799
  35 C :    0.020127
  36 C :    0.034839
  37 C :   -0.094521
  38 C :   -0.049817
  39 C :   -0.018657
  40 C :   -0.108147
  41 C :   -0.093300
  42 C :   -0.010809
  43 C :   -0.099967
  44 C :    0.031619
  45 C :   -0.028280
  46 C :    0.000174
  47 C :    0.029247
  48 C :   -0.096216
  49 C :   -0.070348
  50 C :   -0.019239
  51 C :   -0.110009
  52 H :    0.023393
  53 H :    0.002756
  54 H :    0.040161
  55 H :    0.022872
  56 H :    0.021356
  57 H :    0.026596
  58 H :    0.026834
  59 H :    0.011543
  60 H :    0.037389
  61 H :    0.059973
  62 H :    0.061898
  63 H :    0.031137
  64 H :    0.008580
  65 H :    0.045822
  66 H :    0.029576
  67 H :    0.028588
  68 H :    0.031807
  69 H :    0.030594
  70 H :   -0.004284
  71 H :    0.043946
  72 H :    0.037287
  73 H :    0.007037
  74 H :    0.050371
  75 H :    0.036807
  76 H :    0.034363
  77 H :    0.035865
  78 H :    0.035506
  79 H :    0.003268
  80 H :    0.050215
  81 H :    0.028861
  82 H :   -0.002890
  83 H :    0.042190
  84 H :    0.029469
  85 H :    0.027028
  86 H :    0.029970
  87 H :    0.031228
  88 H :    0.002189
  89 H :    0.044878

  Mayer bond orders larger than 0.100000
B(  0-C ,  1-N ) :   1.0963 B(  0-C , 17-C ) :   1.7093 B(  0-C , 52-H ) :   0.9653
B(  1-N ,  8-C ) :   1.0835 B(  1-N , 10-C ) :   0.9784 B(  2-C , 12-C ) :   1.5014
B(  2-C , 16-C ) :   1.3604 B(  2-C , 53-H ) :   0.9752 B(  3-N , 14-C ) :   1.2186
B(  3-N , 16-C ) :   1.1893 B(  3-N , 61-H ) :   0.8993 B(  4-C ,  6-C ) :   1.2120
B(  4-C , 17-C ) :   1.2104 B(  4-C , 18-C ) :   1.4478 B(  5-N , 19-C ) :   1.4543
B(  5-N , 27-C ) :   1.3774 B(  6-C ,  8-C ) :   1.7142 B(  6-C , 54-H ) :   0.9470
B(  7-N , 30-C ) :   1.1942 B(  7-N , 38-C ) :   1.1915 B(  7-N , 62-H ) :   0.8967
B(  8-C , 55-H ) :   0.9669 B(  9-N , 41-C ) :   1.3927 B(  9-N , 49-C ) :   1.4276
B( 10-C , 56-H ) :   0.9770 B( 10-C , 57-H ) :   0.9832 B( 10-C , 58-H ) :   0.9835
B( 11-N , 20-C ) :   1.1320 B( 11-N , 24-C ) :   1.1095 B( 11-N , 25-C ) :   0.9592
B( 12-C , 14-C ) :   1.3575 B( 12-C , 59-H ) :   0.9699 B( 13-N , 31-C ) :   1.1598
B( 13-N , 35-C ) :   1.1555 B( 13-N , 36-C ) :   0.9427 B( 14-C , 18-C ) :   1.1256
B( 15-N , 42-C ) :   1.1068 B( 15-N , 46-C ) :   1.1219 B( 15-N , 47-C ) :   0.9621
B( 16-C , 51-C ) :   1.1699 B( 17-C , 60-H ) :   0.9469 B( 18-C , 19-C ) :   1.1262
B( 19-C , 21-C ) :   1.2476 B( 20-C , 28-C ) :   1.6265 B( 20-C , 63-H ) :   0.9702
B( 21-C , 26-C ) :   1.6032 B( 21-C , 64-H ) :   0.9684 B( 22-C , 23-C ) :   1.2907
B( 22-C , 28-C ) :   1.2663 B( 22-C , 29-C ) :   1.2218 B( 23-C , 24-C ) :   1.6180
B( 23-C , 65-H ) :   0.9704 B( 24-C , 66-H ) :   0.9695 B( 25-C , 67-H ) :   0.9760
B( 25-C , 68-H ) :   0.9828 B( 25-C , 69-H ) :   0.9823 B( 26-C , 27-C ) :   1.2440
B( 26-C , 70-H ) :   0.9695 B( 27-C , 29-C ) :   1.2113 B( 28-C , 71-H ) :   0.9719
B( 29-C , 30-C ) :   1.2447 B( 30-C , 32-C ) :   1.2801 B( 31-C , 39-C ) :   1.5912
B( 31-C , 72-H ) :   0.9682 B( 32-C , 37-C ) :   1.5793 B( 32-C , 73-H ) :   0.9785
B( 33-C , 34-C ) :   1.3060 B( 33-C , 39-C ) :   1.3005 B( 33-C , 40-C ) :   1.1800
B( 34-C , 35-C ) :   1.5879 B( 34-C , 74-H ) :   0.9696 B( 35-C , 75-H ) :   0.9683
B( 36-C , 76-H ) :   0.9767 B( 36-C , 77-H ) :   0.9816 B( 36-C , 78-H ) :   0.9824
B( 37-C , 38-C ) :   1.2848 B( 37-C , 79-H ) :   0.9766 B( 38-C , 40-C ) :   1.2335
B( 39-C , 80-H ) :   0.9706 B( 40-C , 41-C ) :   1.2483 B( 41-C , 43-C ) :   1.1882
B( 42-C , 50-C ) :   1.6355 B( 42-C , 81-H ) :   0.9697 B( 43-C , 48-C ) :   1.6640
B( 43-C , 82-H ) :   0.9722 B( 44-C , 45-C ) :   1.2622 B( 44-C , 50-C ) :   1.2699
B( 44-C , 51-C ) :   1.2646 B( 45-C , 46-C ) :   1.6366 B( 45-C , 83-H ) :   0.9718
B( 46-C , 84-H ) :   0.9701 B( 47-C , 85-H ) :   0.9762 B( 47-C , 86-H ) :   0.9829
B( 47-C , 87-H ) :   0.9825 B( 48-C , 49-C ) :   1.1918 B( 48-C , 88-H ) :   0.9749
B( 49-C , 51-C ) :   1.2392 B( 50-C , 89-H ) :   0.9709

MP2 TOTAL ENERGY:    -2130.876210873 Eh
FINAL SINGLE POINT ENERGY     -2130.876210872681

DIPOLE MOMENT
-------------
                                X             Y             Z
Electronic contribution:      2.41242      -4.21322      -0.06803
Nuclear contribution   :     -0.01316       0.17897       0.07758
                        -----------------------------------------
Total Dipole Moment    :      2.39926      -4.03424       0.00955
                        -----------------------------------------
Magnitude (a.u.)       :      4.69379
Magnitude (Debye)      :     11.93066

Rotational constants in cm-1:     0.001503     0.001477     0.000760
Rotational constants in MHz :    45.045364    44.267417    22.796858

                             ****ORCA TERMINATED NORMALLY****
TOTAL RUN TIME: 0 days 1 hours 5 minutes 12 seconds 844 msec
