                         Program Version 5.0.4 -  RELEASE  -
|  1> ! PAL2
|  2> ! mp2 cc-pvdz TightSCF  NoKeepInts
|  3>
|  4> %scf
|  5>   MaxCore 2000
|  6> end
|  7> %mp2
|  8>   MaxCore 2000
|  9> end
| 10> * xyz 0 1
| 11>    C       -4.84700         5.24500         0.61100
| 12>    C        1.47400         4.04100         0.05700
| 13>    C       -2.80200         4.09300         0.04900
| 14>    C       -2.33400         5.29700        -0.49900
| 15>    C       -3.12800         6.42600        -0.47200
| 16>    C       -5.17700         7.62600         0.12200
| 17>    C        0.13200         4.30700         0.06100
| 18>    C       -0.56900         3.05600         0.04700
| 19>    C        1.64900         2.61800         0.02300
| 20>    C       -4.08700         4.09100         0.61300
| 21>    N       -4.36600         6.39000         0.07400
| 22>    N        0.38800         2.06700         0.02500
| 23>    N       -2.01000         0.39500        -0.07500
| 24>    N       -0.38800        -2.07400        -0.02700
| 25>    N        2.01000        -0.40100         0.06500
| 26>    C       -1.96000         2.86100         0.02400
| 27>    C       -2.62300         1.61500        -0.01800
| 28>    C       -5.57300        -4.32900         1.06600
| 29>    C       -4.07300         1.47100         0.05600
| 30>    C       -4.10600        -2.75600        -0.02600
| 31>    C       -4.99500        -2.75700        -1.11100
| 32>    C       -6.13200        -3.54200        -1.07600
| 33>    C       -7.65100        -5.11300         0.04000
| 34>    C       -4.32400         0.14100         0.03700
| 35>    C       -3.02500        -0.52000        -0.04800
| 36>    C       -4.42200        -3.56600         1.07500
| 37>    N       -6.40700        -4.31300         0.00100
| 38>    C       -2.86700        -1.92200        -0.04000
| 39>    C       -1.65000        -2.62400        -0.02700
| 40>    C        3.56800        -6.14200        -1.04000
| 41>    C       -1.47600        -4.04900        -0.03400
| 42>    C        2.80300        -4.09900        -0.00800
| 43>    C        3.65700        -4.38400         1.06900
| 44>    C        4.42700        -5.53000         1.05900
| 45>    C        5.24500        -7.58800         0.01400
| 46>    C       -0.13400        -4.31500        -0.02200
| 47>    C        0.56800        -3.06400        -0.02700
| 48>    C        2.77500        -5.01200        -1.07400
| 49>    N        4.37600        -6.39100         0.01700
| 50>    C        1.95900        -2.86900        -0.00900
| 51>    C        2.62100        -1.62200         0.00900
| 52>    C        5.54300         4.33900        -1.13000
| 53>    C        4.07000        -1.47900        -0.09400
| 54>    C        4.10400         2.75100        -0.02100
| 55>    C        5.02700         2.72900         1.03600
| 56>    C        6.16600         3.50900         0.97800
| 57>    C        7.61900         5.15300        -0.11500
| 58>    C        4.32100        -0.14800        -0.09200
| 59>    C        3.02500         0.51400         0.01500
| 60>    C        4.38700         3.58200        -1.11500
| 61>    C        2.86600         1.91600         0.01300
| 62>    N        6.41300         4.29600        -0.09500
| 63>    H       -5.84700         5.28700         1.02400
| 64>    H        2.27400         4.76600         0.08100
| 65>    H       -1.34700         5.36500        -0.94000
| 66>    H       -2.80700         7.37900        -0.87300
| 67>    H       -4.91200         8.19100         1.01800
| 68>    H       -4.96900         8.21700        -0.77000
| 69>    H       -6.23200         7.35200         0.15000
| 70>    H       -0.33200         5.28200         0.06900
| 71>    H       -4.51000         3.18900         1.03900
| 72>    H        0.18200         1.07200         0.00500
| 73>    H       -0.18300        -1.08000        -0.02100
| 74>    H       -5.86400        -4.96200         1.89500
| 75>    H       -4.79400         2.27200         0.13900
| 76>    H       -4.80000        -2.16000        -1.99400
| 77>    H       -6.84100        -3.58200        -1.89300
| 78>    H       -8.42800        -4.53600         0.54600
| 79>    H       -7.95600        -5.33700        -0.98100
| 80>    H       -7.45600        -6.03700         0.58400
| 81>    H       -5.28700        -0.34400         0.10000
| 82>    H       -3.78000        -3.60100         1.94700
| 83>    H        3.58700        -6.86800        -1.84300
| 84>    H       -2.27600        -4.77400        -0.05000
| 85>    H        3.71400        -3.72400         1.92600
| 86>    H        5.09200        -5.79500         1.87100
| 87>    H        6.20500        -7.32900        -0.43900
| 88>    H        5.39300        -7.91700         1.04200
| 89>    H        4.75900        -8.37300        -0.56400
| 90>    H        0.32900        -5.29000        -0.00800
| 91>    H        2.14600        -4.84200        -1.94000
| 92>    H        5.80800         4.98600        -1.95600
| 93>    H        4.78800        -2.28100        -0.18500
| 94>    H        4.86000         2.11400         1.91200
| 95>    H        6.90100         3.53100         1.77200
| 96>    H        7.38300         6.10900         0.35600
| 97>    H        8.41400         4.65200         0.43500
| 98>    H        7.92100         5.31000        -1.15000
| 99>    H        5.28300         0.33600        -0.17900
|100>    H        3.72000         3.63200        -1.96700
|101> *
|102>
|103>                          ****END OF INPUT****

CARTESIAN COORDINATES (ANGSTROEM)
---------------------------------
  C     -4.847000    5.245000    0.611000
  C      1.474000    4.041000    0.057000
  C     -2.802000    4.093000    0.049000
  C     -2.334000    5.297000   -0.499000
  C     -3.128000    6.426000   -0.472000
  C     -5.177000    7.626000    0.122000
  C      0.132000    4.307000    0.061000
  C     -0.569000    3.056000    0.047000
  C      1.649000    2.618000    0.023000
  C     -4.087000    4.091000    0.613000
  N     -4.366000    6.390000    0.074000
  N      0.388000    2.067000    0.025000
  N     -2.010000    0.395000   -0.075000
  N     -0.388000   -2.074000   -0.027000
  N      2.010000   -0.401000    0.065000
  C     -1.960000    2.861000    0.024000
  C     -2.623000    1.615000   -0.018000
  C     -5.573000   -4.329000    1.066000
  C     -4.073000    1.471000    0.056000
  C     -4.106000   -2.756000   -0.026000
  C     -4.995000   -2.757000   -1.111000
  C     -6.132000   -3.542000   -1.076000
  C     -7.651000   -5.113000    0.040000
  C     -4.324000    0.141000    0.037000
  C     -3.025000   -0.520000   -0.048000
  C     -4.422000   -3.566000    1.075000
  N     -6.407000   -4.313000    0.001000
  C     -2.867000   -1.922000   -0.040000
  C     -1.650000   -2.624000   -0.027000
  C      3.568000   -6.142000   -1.040000
  C     -1.476000   -4.049000   -0.034000
  C      2.803000   -4.099000   -0.008000
  C      3.657000   -4.384000    1.069000
  C      4.427000   -5.530000    1.059000
  C      5.245000   -7.588000    0.014000
  C     -0.134000   -4.315000   -0.022000
  C      0.568000   -3.064000   -0.027000
  C      2.775000   -5.012000   -1.074000
  N      4.376000   -6.391000    0.017000
  C      1.959000   -2.869000   -0.009000
  C      2.621000   -1.622000    0.009000
  C      5.543000    4.339000   -1.130000
  C      4.070000   -1.479000   -0.094000
  C      4.104000    2.751000   -0.021000
  C      5.027000    2.729000    1.036000
  C      6.166000    3.509000    0.978000
  C      7.619000    5.153000   -0.115000
  C      4.321000   -0.148000   -0.092000
  C      3.025000    0.514000    0.015000
  C      4.387000    3.582000   -1.115000
  C      2.866000    1.916000    0.013000
  N      6.413000    4.296000   -0.095000
  H     -5.847000    5.287000    1.024000
  H      2.274000    4.766000    0.081000
  H     -1.347000    5.365000   -0.940000
  H     -2.807000    7.379000   -0.873000
  H     -4.912000    8.191000    1.018000
  H     -4.969000    8.217000   -0.770000
  H     -6.232000    7.352000    0.150000
  H     -0.332000    5.282000    0.069000
  H     -4.510000    3.189000    1.039000
  H      0.182000    1.072000    0.005000
  H     -0.183000   -1.080000   -0.021000
  H     -5.864000   -4.962000    1.895000
  H     -4.794000    2.272000    0.139000
  H     -4.800000   -2.160000   -1.994000
  H     -6.841000   -3.582000   -1.893000
  H     -8.428000   -4.536000    0.546000
  H     -7.956000   -5.337000   -0.981000
  H     -7.456000   -6.037000    0.584000
  H     -5.287000   -0.344000    0.100000
  H     -3.780000   -3.601000    1.947000
  H      3.587000   -6.868000   -1.843000
  H     -2.276000   -4.774000   -0.050000
  H      3.714000   -3.724000    1.926000
  H      5.092000   -5.795000    1.871000
  H      6.205000   -7.329000   -0.439000
  H      5.393000   -7.917000    1.042000
  H      4.759000   -8.373000   -0.564000
  H      0.329000   -5.290000   -0.008000
  H      2.146000   -4.842000   -1.940000
  H      5.808000    4.986000   -1.956000
  H      4.788000   -2.281000   -0.185000
  H      4.860000    2.114000    1.912000
  H      6.901000    3.531000    1.772000
  H      7.383000    6.109000    0.356000
  H      8.414000    4.652000    0.435000
  H      7.921000    5.310000   -1.150000
  H      5.283000    0.336000   -0.179000
  H      3.720000    3.632000   -1.967000

 Total Charge           Charge          ....    0
 Multiplicity           Mult            ....    1
 Number of Electrons    NEL             ....  358
 Basis Dimension        Dim             ....  918

ORBITAL ENERGIES
----------------

  NO   OCC          E(Eh)            E(eV)
   0   2.0000     -15.674192      -426.5164
   1   2.0000     -15.634674      -425.4411
   2   2.0000     -15.630946      -425.3397
   3   2.0000     -15.590982      -424.2522
   4   2.0000     -15.524723      -422.4492
   5   2.0000     -15.516176      -422.2166
   6   2.0000     -15.452666      -420.4884
   7   2.0000     -15.441123      -420.1743
   8   2.0000     -11.324918      -308.1667
   9   2.0000     -11.324478      -308.1547
  10   2.0000     -11.323509      -308.1284
  11   2.0000     -11.299763      -307.4822
  12   2.0000     -11.297784      -307.4283
  13   2.0000     -11.293315      -307.3067
  14   2.0000     -11.290098      -307.2192
  15   2.0000     -11.287446      -307.1470
  16   2.0000     -11.286126      -307.1111
  17   2.0000     -11.276806      -306.8575
  18   2.0000     -11.272874      -306.7505
  19   2.0000     -11.259471      -306.3858
  20   2.0000     -11.258506      -306.3595
  21   2.0000     -11.255188      -306.2692
  22   2.0000     -11.254964      -306.2631
  23   2.0000     -11.238336      -305.8107
  24   2.0000     -11.235735      -305.7399
  25   2.0000     -11.231708      -305.6303
  26   2.0000     -11.230903      -305.6084
  27   2.0000     -11.229093      -305.5591
  28   2.0000     -11.228990      -305.5563
  29   2.0000     -11.209934      -305.0378
  30   2.0000     -11.208666      -305.0033
  31   2.0000     -11.199477      -304.7533
  32   2.0000     -11.191605      -304.5391
  33   2.0000     -11.190418      -304.5067
  34   2.0000     -11.189179      -304.4730
  35   2.0000     -11.189128      -304.4717
  36   2.0000     -11.188529      -304.4553
  37   2.0000     -11.186171      -304.3912
  38   2.0000     -11.185016      -304.3598
  39   2.0000     -11.172817      -304.0278
  40   2.0000     -11.172575      -304.0212
  41   2.0000     -11.170194      -303.9564
  42   2.0000     -11.167436      -303.8814
  43   2.0000     -11.161101      -303.7090
  44   2.0000     -11.159424      -303.6634
  45   2.0000     -11.158759      -303.6453
  46   2.0000     -11.157094      -303.6000
  47   2.0000     -11.154635      -303.5331
  48   2.0000     -11.148032      -303.3534
  49   2.0000     -11.139279      -303.1152
  50   2.0000     -11.131964      -302.9161
  51   2.0000     -11.121783      -302.6391
  52   2.0000      -1.355625       -36.8884
  53   2.0000      -1.321825       -35.9687
  54   2.0000      -1.318846       -35.8876
  55   2.0000      -1.284540       -34.9541
  56   2.0000      -1.225361       -33.3438
  57   2.0000      -1.210635       -32.9430
  58   2.0000      -1.171720       -31.8841
  59   2.0000      -1.151906       -31.3449
  60   2.0000      -1.139680       -31.0123
  61   2.0000      -1.110671       -30.2229
  62   2.0000      -1.108373       -30.1604
  63   2.0000      -1.080734       -29.4083
  64   2.0000      -1.077669       -29.3249
  65   2.0000      -1.045975       -28.4624
  66   2.0000      -1.043563       -28.3968
  67   2.0000      -1.038481       -28.2585
  68   2.0000      -1.014519       -27.6065
  69   2.0000      -1.013882       -27.5891
  70   2.0000      -1.009648       -27.4739
  71   2.0000      -0.992795       -27.0153
  72   2.0000      -0.986814       -26.8526
  73   2.0000      -0.980000       -26.6671
  74   2.0000      -0.972446       -26.4616
  75   2.0000      -0.960943       -26.1486
  76   2.0000      -0.953311       -25.9409
  77   2.0000      -0.946386       -25.7525
  78   2.0000      -0.935132       -25.4462
  79   2.0000      -0.919061       -25.0089
  80   2.0000      -0.906583       -24.6694
  81   2.0000      -0.894055       -24.3285
  82   2.0000      -0.874705       -23.8019
  83   2.0000      -0.872031       -23.7292
  84   2.0000      -0.868964       -23.6457
  85   2.0000      -0.857007       -23.3203
  86   2.0000      -0.841424       -22.8963
  87   2.0000      -0.836055       -22.7502
  88   2.0000      -0.824363       -22.4321
  89   2.0000      -0.797764       -21.7083
  90   2.0000      -0.791539       -21.5389
  91   2.0000      -0.750703       -20.4277
  92   2.0000      -0.743598       -20.2343
  93   2.0000      -0.732877       -19.9426
  94   2.0000      -0.724335       -19.7102
  95   2.0000      -0.721905       -19.6440
  96   2.0000      -0.716001       -19.4834
  97   2.0000      -0.711719       -19.3669
  98   2.0000      -0.707328       -19.2474
  99   2.0000      -0.696776       -18.9602
 100   2.0000      -0.696183       -18.9441
 101   2.0000      -0.684810       -18.6346
 102   2.0000      -0.680761       -18.5244
 103   2.0000      -0.680135       -18.5074
 104   2.0000      -0.678411       -18.4605
 105   2.0000      -0.673287       -18.3211
 106   2.0000      -0.669606       -18.2209
 107   2.0000      -0.660813       -17.9816
 108   2.0000      -0.656209       -17.8563
 109   2.0000      -0.653552       -17.7840
 110   2.0000      -0.650776       -17.7085
 111   2.0000      -0.643463       -17.5095
 112   2.0000      -0.642089       -17.4721
 113   2.0000      -0.640006       -17.4155
 114   2.0000      -0.637721       -17.3533
 115   2.0000      -0.627668       -17.0797
 116   2.0000      -0.624444       -16.9920
 117   2.0000      -0.619389       -16.8544
 118   2.0000      -0.613005       -16.6807
 119   2.0000      -0.612479       -16.6664
 120   2.0000      -0.610803       -16.6208
 121   2.0000      -0.607828       -16.5398
 122   2.0000      -0.600474       -16.3397
 123   2.0000      -0.586665       -15.9640
 124   2.0000      -0.582150       -15.8411
 125   2.0000      -0.580334       -15.7917
 126   2.0000      -0.579611       -15.7720
 127   2.0000      -0.574509       -15.6332
 128   2.0000      -0.567448       -15.4411
 129   2.0000      -0.559177       -15.2160
 130   2.0000      -0.551373       -15.0036
 131   2.0000      -0.547563       -14.8999
 132   2.0000      -0.542414       -14.7598
 133   2.0000      -0.540932       -14.7195
 134   2.0000      -0.538413       -14.6510
 135   2.0000      -0.535554       -14.5732
 136   2.0000      -0.528586       -14.3836
 137   2.0000      -0.522814       -14.2265
 138   2.0000      -0.516932       -14.0664
 139   2.0000      -0.513808       -13.9814
 140   2.0000      -0.512134       -13.9359
 141   2.0000      -0.511213       -13.9108
 142   2.0000      -0.509286       -13.8584
 143   2.0000      -0.503687       -13.7060
 144   2.0000      -0.502013       -13.6605
 145   2.0000      -0.497062       -13.5257
 146   2.0000      -0.492645       -13.4055
 147   2.0000      -0.483629       -13.1602
 148   2.0000      -0.479655       -13.0521
 149   2.0000      -0.466759       -12.7012
 150   2.0000      -0.466181       -12.6854
 151   2.0000      -0.457177       -12.4404
 152   2.0000      -0.450561       -12.2604
 153   2.0000      -0.445172       -12.1137
 154   2.0000      -0.441411       -12.0114
 155   2.0000      -0.429987       -11.7005
 156   2.0000      -0.428158       -11.6508
 157   2.0000      -0.412897       -11.2355
 158   2.0000      -0.404613       -11.0101
 159   2.0000      -0.388478       -10.5710
 160   2.0000      -0.384003       -10.4493
 161   2.0000      -0.378339       -10.2951
 162   2.0000      -0.370200       -10.0736
 163   2.0000      -0.357095        -9.7171
 164   2.0000      -0.355266        -9.6673
 165   2.0000      -0.340612        -9.2685
 166   2.0000      -0.337541        -9.1850
 167   2.0000      -0.325995        -8.8708
 168   2.0000      -0.324391        -8.8271
 169   2.0000      -0.304252        -8.2791
 170   2.0000      -0.299679        -8.1547
 171   2.0000      -0.285934        -7.7807
 172   2.0000      -0.281596        -7.6626
 173   2.0000      -0.262802        -7.1512
 174   2.0000      -0.242654        -6.6030
 175   2.0000      -0.189889        -5.1672
 176   2.0000      -0.180321        -4.9068
 177   2.0000      -0.076168        -2.0726
 178   2.0000      -0.058538        -1.5929
 179   0.0000       0.028465         0.7746
 180   0.0000       0.066224         1.8020
 181   0.0000       0.091131         2.4798
 182   0.0000       0.109787         2.9875
 183   0.0000       0.110540         3.0080

MULLIKEN ATOMIC CHARGES
-----------------------
   0 C :    0.209073
   1 N :   -0.455556
   2 C :   -0.066863
   3 N :   -0.337598
   4 C :   -0.048231
   5 N :   -0.564747
   6 C :   -0.116329
   7 N :   -0.340263
   8 C :    0.207669
   9 N :   -0.562359
  10 C :    0.118692
  11 N :   -0.438297
  12 C :   -0.080618
  13 N :   -0.430731
  14 C :    0.231533
  15 N :   -0.441100
  16 C :    0.228566
  17 C :   -0.113564
  18 C :   -0.193462
  19 C :    0.224949
  20 C :    0.213000
  21 C :   -0.090752
  22 C :   -0.090968
  23 C :   -0.040359
  24 C :    0.194884
  25 C :    0.114516
  26 C :   -0.082494
  27 C :    0.213368
  28 C :   -0.060830
  29 C :   -0.180431
  30 C :    0.245012
  31 C :    0.228064
  32 C :   -0.062080
  33 C :   -0.062924
  34 C :   -0.050816
  35 C :    0.225239
  36 C :    0.108958
  37 C :   -0.064574
  38 C :    0.232020
  39 C :   -0.058254
  40 C :   -0.182101
  41 C :    0.225276
  42 C :    0.197820
  43 C :   -0.072426
  44 C :   -0.089689
  45 C :   -0.060411
  46 C :    0.210481
  47 C :    0.115440
  48 C :   -0.067758
  49 C :    0.237628
  50 C :   -0.047246
  51 C :   -0.192008
  52 H :    0.039611
  53 H :   -0.016688
  54 H :    0.048906
  55 H :    0.037935
  56 H :    0.049619
  57 H :    0.047722
  58 H :    0.048238
  59 H :    0.000964
  60 H :    0.051503
  61 H :    0.171274
  62 H :    0.175230
  63 H :    0.055395
  64 H :   -0.009426
  65 H :    0.047430
  66 H :    0.055985
  67 H :    0.062426
  68 H :    0.057388
  69 H :    0.056611
  70 H :   -0.029505
  71 H :    0.044995
  72 H :    0.069612
  73 H :   -0.008523
  74 H :    0.058821
  75 H :    0.068969
  76 H :    0.073419
  77 H :    0.066847
  78 H :    0.066123
  79 H :   -0.016188
  80 H :    0.059656
  81 H :    0.054007
  82 H :   -0.024700
  83 H :    0.041984
  84 H :    0.054003
  85 H :    0.060629
  86 H :    0.055561
  87 H :    0.057011
  88 H :   -0.015108
  89 H :    0.045915
Sum of atomic charges:   -0.0000000

LOEWDIN ATOMIC CHARGES
----------------------
   0 C :   -0.020246
   1 N :    0.117529
   2 C :   -0.101578
   3 N :    0.183394
   4 C :   -0.008167
   5 N :   -0.133048
   6 C :   -0.042008
   7 N :    0.175695
   8 C :   -0.021887
   9 N :   -0.140410
  10 C :    0.023586
  11 N :    0.142235
  12 C :   -0.115570
  13 N :    0.163272
  14 C :   -0.027399
  15 N :    0.138495
  16 C :   -0.058642
  17 C :   -0.040073
  18 C :   -0.103839
  19 C :   -0.080826
  20 C :    0.004236
  21 C :   -0.122226
  22 C :    0.037117
  23 C :   -0.014932
  24 C :   -0.011411
  25 C :    0.029882
  26 C :   -0.107874
  27 C :   -0.114832
  28 C :   -0.027009
  29 C :   -0.100377
  30 C :   -0.031494
  31 C :    0.021775
  32 C :   -0.094802
  33 C :    0.076834
  34 C :   -0.015529
  35 C :    0.019586
  36 C :    0.034577
  37 C :   -0.094921
  38 C :   -0.050753
  39 C :   -0.018546
  40 C :   -0.108273
  41 C :   -0.091801
  42 C :   -0.010161
  43 C :   -0.099781
  44 C :    0.032946
  45 C :   -0.027515
  46 C :    0.000906
  47 C :    0.029434
  48 C :   -0.095834
  49 C :   -0.071499
  50 C :   -0.019540
  51 C :   -0.108796
  52 H :    0.023717
  53 H :    0.003043
  54 H :    0.038692
  55 H :    0.023229
  56 H :    0.021731
  57 H :    0.026360
  58 H :    0.027572
  59 H :    0.011220
  60 H :    0.038882
  61 H :    0.060104
  62 H :    0.061727
  63 H :    0.030751
  64 H :    0.005580
  65 H :    0.045974
  66 H :    0.029433
  67 H :    0.028232
  68 H :    0.031696
  69 H :    0.030399
  70 H :   -0.004389
  71 H :    0.043588
  72 H :    0.036919
  73 H :    0.006872
  74 H :    0.050026
  75 H :    0.036517
  76 H :    0.034020
  77 H :    0.035643
  78 H :    0.035320
  79 H :    0.003158
  80 H :    0.050011
  81 H :    0.028940
  82 H :   -0.002641
  83 H :    0.042590
  84 H :    0.029769
  85 H :    0.027261
  86 H :    0.030181
  87 H :    0.031311
  88 H :    0.002087
  89 H :    0.044572

  Mayer bond orders larger than 0.100000
B(  0-C ,  1-N ) :   1.0909 B(  0-C , 17-C ) :   1.7065 B(  0-C , 52-H ) :   0.9664
B(  1-N ,  8-C ) :   1.0909 B(  1-N , 10-C ) :   0.9773 B(  2-C , 12-C ) :   1.5054
B(  2-C , 16-C ) :   1.3574 B(  2-C , 53-H ) :   0.9749 B(  3-N , 14-C ) :   1.2186
B(  3-N , 16-C ) :   1.1890 B(  3-N , 61-H ) :   0.8990 B(  4-C ,  6-C ) :   1.2141
B(  4-C , 17-C ) :   1.2128 B(  4-C , 18-C ) :   1.4373 B(  5-N , 19-C ) :   1.4519
B(  5-N , 27-C ) :   1.3787 B(  6-C ,  8-C ) :   1.7035 B(  6-C , 54-H ) :   0.9530
B(  7-N , 30-C ) :   1.1956 B(  7-N , 38-C ) :   1.1912 B(  7-N , 62-H ) :   0.8969
B(  8-C , 55-H ) :   0.9672 B(  9-N , 41-C ) :   1.3950 B(  9-N , 49-C ) :   1.4249
B( 10-C , 56-H ) :   0.9771 B( 10-C , 57-H ) :   0.9821 B( 10-C , 58-H ) :   0.9843
B( 11-N , 20-C ) :   1.1305 B( 11-N , 24-C ) :   1.1085 B( 11-N , 25-C ) :   0.9600
B( 12-C , 14-C ) :   1.3557 B( 12-C , 59-H ) :   0.9714 B( 13-N , 31-C ) :   1.1569
B( 13-N , 35-C ) :   1.1544 B( 13-N , 36-C ) :   0.9436 B( 14-C , 18-C ) :   1.1304
B( 15-N , 42-C ) :   1.1082 B( 15-N , 46-C ) :   1.1226 B( 15-N , 47-C ) :   0.9616
B( 16-C , 51-C ) :   1.1718 B( 17-C , 60-H ) :   0.9485 B( 18-C , 19-C ) :   1.1346
B( 19-C , 21-C ) :   1.2457 B( 20-C , 28-C ) :   1.6280 B( 20-C , 63-H ) :   0.9703
B( 21-C , 26-C ) :   1.6044 B( 21-C , 64-H ) :   0.9640 B( 22-C , 23-C ) :   1.2891
B( 22-C , 28-C ) :   1.2649 B( 22-C , 29-C ) :   1.2237 B( 23-C , 24-C ) :   1.6198
B( 23-C , 65-H ) :   0.9703 B( 24-C , 66-H ) :   0.9695 B( 25-C , 67-H ) :   0.9760
B( 25-C , 68-H ) :   0.9828 B( 25-C , 69-H ) :   0.9823 B( 26-C , 27-C ) :   1.2434
B( 26-C , 70-H ) :   0.9704 B( 27-C , 29-C ) :   1.2127 B( 28-C , 71-H ) :   0.9719
B( 29-C , 30-C ) :   1.2410 B( 30-C , 32-C ) :   1.2836 B( 31-C , 39-C ) :   1.5931
B( 31-C , 72-H ) :   0.9683 B( 32-C , 37-C ) :   1.5753 B( 32-C , 73-H ) :   0.9785
B( 33-C , 34-C ) :   1.3035 B( 33-C , 39-C ) :   1.2995 B( 33-C , 40-C ) :   1.1846
B( 34-C , 35-C ) :   1.5904 B( 34-C , 74-H ) :   0.9697 B( 35-C , 75-H ) :   0.9683
B( 36-C , 76-H ) :   0.9767 B( 36-C , 77-H ) :   0.9816 B( 36-C , 78-H ) :   0.9824
B( 37-C , 38-C ) :   1.2885 B( 37-C , 79-H ) :   0.9766 B( 38-C , 40-C ) :   1.2304
B( 39-C , 80-H ) :   0.9706 B( 40-C , 41-C ) :   1.2473 B( 41-C , 43-C ) :   1.1878
B( 42-C , 50-C ) :   1.6337 B( 42-C , 81-H ) :   0.9697 B( 43-C , 48-C ) :   1.6647
B( 43-C , 82-H ) :   0.9723 B( 44-C , 45-C ) :   1.2640 B( 44-C , 50-C ) :   1.2713
B( 44-C , 51-C ) :   1.2609 B( 45-C , 46-C ) :   1.6350 B( 45-C , 83-H ) :   0.9718
B( 46-C , 84-H ) :   0.9700 B( 47-C , 85-H ) :   0.9762 B( 47-C , 86-H ) :   0.9829
B( 47-C , 87-H ) :   0.9825 B( 48-C , 49-C ) :   1.1912 B( 48-C , 88-H ) :   0.9748
B( 49-C , 51-C ) :   1.2403 B( 50-C , 89-H ) :   0.9710

MP2 TOTAL ENERGY:    -2130.875206213 Eh
FINAL SINGLE POINT ENERGY     -2130.875206213056

DIPOLE MOMENT
-------------
                                X             Y             Z
Electronic contribution:      2.34173      -3.97045      -0.16625
Nuclear contribution   :      0.07825       0.23949       0.16598
                        -----------------------------------------
Total Dipole Moment    :      2.41998      -3.73096      -0.00027
                        -----------------------------------------
Magnitude (a.u.)       :      4.44706
Magnitude (Debye)      :     11.30354

Rotational constants in cm-1:     0.001501     0.001478     0.000760
Rotational constants in MHz :    44.983957    44.320397    22.798845

                             ****ORCA TERMINATED NORMALLY****
TOTAL RUN TIME: 0 days 1 hours 21 minutes 50 seconds 513 msec
