                         Program Version 5.0.4 -  RELEASE  -
|  1> ! PAL2
|  2> ! mp2 cc-pvdz TightSCF  NoKeepInts
|  3>
|  4> %scf
|  5>   MaxCore 2000
|  6> end
|  7> %mp2
|  8>   MaxCore 2000
|  9> end
| 10> * xyz 0 1
| 11>    C       -3.93700         5.90100        -1.07600
| 12>    C        1.47400         4.04100         0.05700
| 13>    C       -2.80200         4.09300         0.04900
| 14>    C       -3.25400         4.63300         1.26300
| 15>    C       -4.02800         5.77600         1.26800
| 16>    C       -5.21900         7.59700         0.14700
| 17>    C        0.13200         4.30700         0.06100
| 18>    C       -0.56900         3.05600         0.04700
| 19>    C        1.64900         2.61800         0.02300
| 20>    C       -3.16600         4.75600        -1.13300
| 21>    N       -4.35600         6.39500         0.11000
| 22>    N        0.38800         2.06700         0.02500
| 23>    N       -2.01000         0.39500        -0.07500
| 24>    N       -0.38800        -2.07400        -0.02700
| 25>    N        2.01000        -0.40100         0.06500
| 26>    C       -1.96000         2.86100         0.02400
| 27>    C       -2.62300         1.61500        -0.01800
| 28>    C       -5.57300        -4.32900         1.06600
| 29>    C       -4.07300         1.47100         0.05600
| 30>    C       -4.10600        -2.75600        -0.02600
| 31>    C       -4.99500        -2.75700        -1.11100
| 32>    C       -6.13200        -3.54200        -1.07600
| 33>    C       -7.65100        -5.11300         0.04000
| 34>    C       -4.32400         0.14100         0.03700
| 35>    C       -3.02500        -0.52000        -0.04800
| 36>    C       -4.42200        -3.56600         1.07500
| 37>    N       -6.40700        -4.31300         0.00100
| 38>    C       -2.86700        -1.92200        -0.04000
| 39>    C       -1.65000        -2.62400        -0.02700
| 40>    C        3.56800        -6.14200        -1.04000
| 41>    C       -1.47600        -4.04900        -0.03400
| 42>    C        2.80300        -4.09900        -0.00800
| 43>    C        3.65700        -4.38400         1.06900
| 44>    C        4.42700        -5.53000         1.05900
| 45>    C        5.24500        -7.58800         0.01400
| 46>    C       -0.13400        -4.31500        -0.02200
| 47>    C        0.56800        -3.06400        -0.02700
| 48>    C        2.77500        -5.01200        -1.07400
| 49>    N        4.37600        -6.39100         0.01700
| 50>    C        1.95900        -2.86900        -0.00900
| 51>    C        2.62100        -1.62200         0.00900
| 52>    C        5.54300         4.33900        -1.13000
| 53>    C        4.07000        -1.47900        -0.09400
| 54>    C        4.10400         2.75100        -0.02100
| 55>    C        5.02700         2.72900         1.03600
| 56>    C        6.16600         3.50900         0.97800
| 57>    C        7.61900         5.15300        -0.11500
| 58>    C        4.32100        -0.14800        -0.09200
| 59>    C        3.02500         0.51400         0.01500
| 60>    C        4.38700         3.58200        -1.11500
| 61>    C        2.86600         1.91600         0.01300
| 62>    N        6.41300         4.29600        -0.09500
| 63>    H       -4.23100         6.45200        -1.96100
| 64>    H        2.27400         4.76600         0.08100
| 65>    H       -3.01500         4.16100         2.20800
| 66>    H       -4.40700         6.22400         2.17800
| 67>    H       -6.26500         7.28400         0.15500
| 68>    H       -4.99100         8.16500         1.04900
| 69>    H       -5.01500         8.20200        -0.73600
| 70>    H       -0.33200         5.28200         0.06900
| 71>    H       -2.83600         4.39700        -2.10100
| 72>    H        0.18200         1.07200         0.00500
| 73>    H       -0.18300        -1.08000        -0.02100
| 74>    H       -5.86400        -4.96200         1.89500
| 75>    H       -4.79400         2.27200         0.13900
| 76>    H       -4.80000        -2.16000        -1.99400
| 77>    H       -6.84100        -3.58200        -1.89300
| 78>    H       -8.42800        -4.53600         0.54600
| 79>    H       -7.95600        -5.33700        -0.98100
| 80>    H       -7.45600        -6.03700         0.58400
| 81>    H       -5.28700        -0.34400         0.10000
| 82>    H       -3.78000        -3.60100         1.94700
| 83>    H        3.58700        -6.86800        -1.84300
| 84>    H       -2.27600        -4.77400        -0.05000
| 85>    H        3.71400        -3.72400         1.92600
| 86>    H        5.09200        -5.79500         1.87100
| 87>    H        6.20500        -7.32900        -0.43900
| 88>    H        5.39300        -7.91700         1.04200
| 89>    H        4.75900        -8.37300        -0.56400
| 90>    H        0.32900        -5.29000        -0.00800
| 91>    H        2.14600        -4.84200        -1.94000
| 92>    H        5.80800         4.98600        -1.95600
| 93>    H        4.78800        -2.28100        -0.18500
| 94>    H        4.86000         2.11400         1.91200
| 95>    H        6.90100         3.53100         1.77200
| 96>    H        7.38300         6.10900         0.35600
| 97>    H        8.41400         4.65200         0.43500
| 98>    H        7.92100         5.31000        -1.15000
| 99>    H        5.28300         0.33600        -0.17900
|100>    H        3.72000         3.63200        -1.96700
|101> *
|102>
|103>                          ****END OF INPUT****

CARTESIAN COORDINATES (ANGSTROEM)
---------------------------------
  C     -3.937000    5.901000   -1.076000
  C      1.474000    4.041000    0.057000
  C     -2.802000    4.093000    0.049000
  C     -3.254000    4.633000    1.263000
  C     -4.028000    5.776000    1.268000
  C     -5.219000    7.597000    0.147000
  C      0.132000    4.307000    0.061000
  C     -0.569000    3.056000    0.047000
  C      1.649000    2.618000    0.023000
  C     -3.166000    4.756000   -1.133000
  N     -4.356000    6.395000    0.110000
  N      0.388000    2.067000    0.025000
  N     -2.010000    0.395000   -0.075000
  N     -0.388000   -2.074000   -0.027000
  N      2.010000   -0.401000    0.065000
  C     -1.960000    2.861000    0.024000
  C     -2.623000    1.615000   -0.018000
  C     -5.573000   -4.329000    1.066000
  C     -4.073000    1.471000    0.056000
  C     -4.106000   -2.756000   -0.026000
  C     -4.995000   -2.757000   -1.111000
  C     -6.132000   -3.542000   -1.076000
  C     -7.651000   -5.113000    0.040000
  C     -4.324000    0.141000    0.037000
  C     -3.025000   -0.520000   -0.048000
  C     -4.422000   -3.566000    1.075000
  N     -6.407000   -4.313000    0.001000
  C     -2.867000   -1.922000   -0.040000
  C     -1.650000   -2.624000   -0.027000
  C      3.568000   -6.142000   -1.040000
  C     -1.476000   -4.049000   -0.034000
  C      2.803000   -4.099000   -0.008000
  C      3.657000   -4.384000    1.069000
  C      4.427000   -5.530000    1.059000
  C      5.245000   -7.588000    0.014000
  C     -0.134000   -4.315000   -0.022000
  C      0.568000   -3.064000   -0.027000
  C      2.775000   -5.012000   -1.074000
  N      4.376000   -6.391000    0.017000
  C      1.959000   -2.869000   -0.009000
  C      2.621000   -1.622000    0.009000
  C      5.543000    4.339000   -1.130000
  C      4.070000   -1.479000   -0.094000
  C      4.104000    2.751000   -0.021000
  C      5.027000    2.729000    1.036000
  C      6.166000    3.509000    0.978000
  C      7.619000    5.153000   -0.115000
  C      4.321000   -0.148000   -0.092000
  C      3.025000    0.514000    0.015000
  C      4.387000    3.582000   -1.115000
  C      2.866000    1.916000    0.013000
  N      6.413000    4.296000   -0.095000
  H     -4.231000    6.452000   -1.961000
  H      2.274000    4.766000    0.081000
  H     -3.015000    4.161000    2.208000
  H     -4.407000    6.224000    2.178000
  H     -6.265000    7.284000    0.155000
  H     -4.991000    8.165000    1.049000
  H     -5.015000    8.202000   -0.736000
  H     -0.332000    5.282000    0.069000
  H     -2.836000    4.397000   -2.101000
  H      0.182000    1.072000    0.005000
  H     -0.183000   -1.080000   -0.021000
  H     -5.864000   -4.962000    1.895000
  H     -4.794000    2.272000    0.139000
  H     -4.800000   -2.160000   -1.994000
  H     -6.841000   -3.582000   -1.893000
  H     -8.428000   -4.536000    0.546000
  H     -7.956000   -5.337000   -0.981000
  H     -7.456000   -6.037000    0.584000
  H     -5.287000   -0.344000    0.100000
  H     -3.780000   -3.601000    1.947000
  H      3.587000   -6.868000   -1.843000
  H     -2.276000   -4.774000   -0.050000
  H      3.714000   -3.724000    1.926000
  H      5.092000   -5.795000    1.871000
  H      6.205000   -7.329000   -0.439000
  H      5.393000   -7.917000    1.042000
  H      4.759000   -8.373000   -0.564000
  H      0.329000   -5.290000   -0.008000
  H      2.146000   -4.842000   -1.940000
  H      5.808000    4.986000   -1.956000
  H      4.788000   -2.281000   -0.185000
  H      4.860000    2.114000    1.912000
  H      6.901000    3.531000    1.772000
  H      7.383000    6.109000    0.356000
  H      8.414000    4.652000    0.435000
  H      7.921000    5.310000   -1.150000
  H      5.283000    0.336000   -0.179000
  H      3.720000    3.632000   -1.967000

 Total Charge           Charge          ....    0
 Multiplicity           Mult            ....    1
 Number of Electrons    NEL             ....  358
 Basis Dimension        Dim             ....  918

ORBITAL ENERGIES
----------------

  NO   OCC          E(Eh)            E(eV)
   0   2.0000     -15.721040      -427.7912
   1   2.0000     -15.627983      -425.2590
   2   2.0000     -15.618451      -424.9997
   3   2.0000     -15.575815      -423.8395
   4   2.0000     -15.520929      -422.3460
   5   2.0000     -15.503933      -421.8835
   6   2.0000     -15.451369      -420.4531
   7   2.0000     -15.426668      -419.7810
   8   2.0000     -11.358794      -309.0885
   9   2.0000     -11.356781      -309.0337
  10   2.0000     -11.350874      -308.8730
  11   2.0000     -11.314596      -307.8858
  12   2.0000     -11.296088      -307.3822
  13   2.0000     -11.290297      -307.2246
  14   2.0000     -11.289536      -307.2039
  15   2.0000     -11.287260      -307.1420
  16   2.0000     -11.286993      -307.1347
  17   2.0000     -11.281457      -306.9841
  18   2.0000     -11.279957      -306.9432
  19   2.0000     -11.271093      -306.7020
  20   2.0000     -11.262692      -306.4734
  21   2.0000     -11.242455      -305.9227
  22   2.0000     -11.238812      -305.8236
  23   2.0000     -11.231763      -305.6318
  24   2.0000     -11.226424      -305.4865
  25   2.0000     -11.225518      -305.4619
  26   2.0000     -11.222763      -305.3869
  27   2.0000     -11.218875      -305.2811
  28   2.0000     -11.218564      -305.2726
  29   2.0000     -11.211638      -305.0842
  30   2.0000     -11.209699      -305.0314
  31   2.0000     -11.195766      -304.6523
  32   2.0000     -11.194687      -304.6229
  33   2.0000     -11.193326      -304.5859
  34   2.0000     -11.187672      -304.4320
  35   2.0000     -11.186919      -304.4115
  36   2.0000     -11.182436      -304.2895
  37   2.0000     -11.179477      -304.2090
  38   2.0000     -11.179437      -304.2079
  39   2.0000     -11.178274      -304.1763
  40   2.0000     -11.170550      -303.9661
  41   2.0000     -11.165567      -303.8305
  42   2.0000     -11.164355      -303.7975
  43   2.0000     -11.162070      -303.7354
  44   2.0000     -11.160708      -303.6983
  45   2.0000     -11.144369      -303.2537
  46   2.0000     -11.143798      -303.2382
  47   2.0000     -11.140271      -303.1422
  48   2.0000     -11.136916      -303.0509
  49   2.0000     -11.130379      -302.8730
  50   2.0000     -11.116497      -302.4953
  51   2.0000     -11.110682      -302.3370
  52   2.0000      -1.392712       -37.8976
  53   2.0000      -1.316309       -35.8186
  54   2.0000      -1.307478       -35.5783
  55   2.0000      -1.271206       -34.5913
  56   2.0000      -1.224754       -33.3272
  57   2.0000      -1.199932       -32.6518
  58   2.0000      -1.178590       -32.0711
  59   2.0000      -1.165627       -31.7183
  60   2.0000      -1.136682       -30.9307
  61   2.0000      -1.110259       -30.2117
  62   2.0000      -1.105684       -30.0872
  63   2.0000      -1.097266       -29.8581
  64   2.0000      -1.065499       -28.9937
  65   2.0000      -1.058123       -28.7930
  66   2.0000      -1.040794       -28.3214
  67   2.0000      -1.032437       -28.0940
  68   2.0000      -1.015326       -27.6284
  69   2.0000      -1.003867       -27.3166
  70   2.0000      -0.998469       -27.1697
  71   2.0000      -0.995376       -27.0856
  72   2.0000      -0.985706       -26.8224
  73   2.0000      -0.975787       -26.5525
  74   2.0000      -0.964479       -26.2448
  75   2.0000      -0.961097       -26.1528
  76   2.0000      -0.950677       -25.8692
  77   2.0000      -0.940340       -25.5879
  78   2.0000      -0.936173       -25.4746
  79   2.0000      -0.919564       -25.0226
  80   2.0000      -0.912045       -24.8180
  81   2.0000      -0.891460       -24.2579
  82   2.0000      -0.886865       -24.1328
  83   2.0000      -0.867945       -23.6180
  84   2.0000      -0.859958       -23.4007
  85   2.0000      -0.846136       -23.0245
  86   2.0000      -0.828920       -22.5561
  87   2.0000      -0.826034       -22.4775
  88   2.0000      -0.820055       -22.3148
  89   2.0000      -0.794234       -21.6122
  90   2.0000      -0.785657       -21.3788
  91   2.0000      -0.772789       -21.0287
  92   2.0000      -0.741052       -20.1651
  93   2.0000      -0.733583       -19.9618
  94   2.0000      -0.729019       -19.8376
  95   2.0000      -0.724312       -19.7095
  96   2.0000      -0.716142       -19.4872
  97   2.0000      -0.710342       -19.3294
  98   2.0000      -0.707636       -19.2557
  99   2.0000      -0.704735       -19.1768
 100   2.0000      -0.695804       -18.9338
 101   2.0000      -0.688183       -18.7264
 102   2.0000      -0.684002       -18.6126
 103   2.0000      -0.675635       -18.3850
 104   2.0000      -0.672134       -18.2897
 105   2.0000      -0.671881       -18.2828
 106   2.0000      -0.666671       -18.1410
 107   2.0000      -0.661488       -18.0000
 108   2.0000      -0.651913       -17.7395
 109   2.0000      -0.648825       -17.6554
 110   2.0000      -0.648335       -17.6421
 111   2.0000      -0.641948       -17.4683
 112   2.0000      -0.640451       -17.4276
 113   2.0000      -0.635288       -17.2871
 114   2.0000      -0.633644       -17.2423
 115   2.0000      -0.629040       -17.1171
 116   2.0000      -0.627030       -17.0624
 117   2.0000      -0.614472       -16.7206
 118   2.0000      -0.610788       -16.6204
 119   2.0000      -0.608662       -16.5625
 120   2.0000      -0.608059       -16.5461
 121   2.0000      -0.600615       -16.3436
 122   2.0000      -0.593321       -16.1451
 123   2.0000      -0.589191       -16.0327
 124   2.0000      -0.584185       -15.8965
 125   2.0000      -0.577920       -15.7260
 126   2.0000      -0.574542       -15.6341
 127   2.0000      -0.571661       -15.5557
 128   2.0000      -0.570621       -15.5274
 129   2.0000      -0.569268       -15.4906
 130   2.0000      -0.556280       -15.1371
 131   2.0000      -0.542696       -14.7675
 132   2.0000      -0.542061       -14.7502
 133   2.0000      -0.538097       -14.6424
 134   2.0000      -0.533438       -14.5156
 135   2.0000      -0.529151       -14.3989
 136   2.0000      -0.519568       -14.1382
 137   2.0000      -0.515619       -14.0307
 138   2.0000      -0.513848       -13.9825
 139   2.0000      -0.511783       -13.9263
 140   2.0000      -0.509549       -13.8655
 141   2.0000      -0.503300       -13.6955
 142   2.0000      -0.501096       -13.6355
 143   2.0000      -0.497529       -13.5385
 144   2.0000      -0.495307       -13.4780
 145   2.0000      -0.492520       -13.4022
 146   2.0000      -0.488199       -13.2846
 147   2.0000      -0.472978       -12.8704
 148   2.0000      -0.469827       -12.7846
 149   2.0000      -0.465904       -12.6779
 150   2.0000      -0.462786       -12.5930
 151   2.0000      -0.460008       -12.5175
 152   2.0000      -0.451885       -12.2964
 153   2.0000      -0.440703       -11.9921
 154   2.0000      -0.432646       -11.7729
 155   2.0000      -0.430914       -11.7258
 156   2.0000      -0.418616       -11.3911
 157   2.0000      -0.416615       -11.3367
 158   2.0000      -0.410970       -11.1831
 159   2.0000      -0.410613       -11.1733
 160   2.0000      -0.381271       -10.3749
 161   2.0000      -0.369337       -10.0502
 162   2.0000      -0.353028        -9.6064
 163   2.0000      -0.351567        -9.5666
 164   2.0000      -0.345538        -9.4026
 165   2.0000      -0.341692        -9.2979
 166   2.0000      -0.337836        -9.1930
 167   2.0000      -0.316456        -8.6112
 168   2.0000      -0.311753        -8.4832
 169   2.0000      -0.305250        -8.3063
 170   2.0000      -0.298016        -8.1094
 171   2.0000      -0.282416        -7.6849
 172   2.0000      -0.275179        -7.4880
 173   2.0000      -0.266595        -7.2544
 174   2.0000      -0.228776        -6.2253
 175   2.0000      -0.182894        -4.9768
 176   2.0000      -0.173121        -4.7108
 177   2.0000      -0.062713        -1.7065
 178   2.0000      -0.050731        -1.3805
 179   0.0000       0.036437         0.9915
 180   0.0000       0.054001         1.4694
 181   0.0000       0.072837         1.9820
 182   0.0000       0.098742         2.6869
 183   0.0000       0.102264         2.7827

MULLIKEN ATOMIC CHARGES
-----------------------
   0 C :    0.239731
   1 N :   -0.409253
   2 C :   -0.066141
   3 N :   -0.344272
   4 C :   -0.065402
   5 N :   -0.566359
   6 C :   -0.024506
   7 N :   -0.336737
   8 C :    0.234037
   9 N :   -0.566503
  10 C :    0.102651
  11 N :   -0.440299
  12 C :   -0.058129
  13 N :   -0.452102
  14 C :    0.219425
  15 N :   -0.441851
  16 C :    0.258216
  17 C :   -0.032860
  18 C :   -0.175624
  19 C :    0.230863
  20 C :    0.185474
  21 C :   -0.067540
  22 C :   -0.092509
  23 C :   -0.069488
  24 C :    0.217612
  25 C :    0.115247
  26 C :   -0.064667
  27 C :    0.250397
  28 C :   -0.038698
  29 C :   -0.198107
  30 C :    0.219345
  31 C :    0.185617
  32 C :   -0.064410
  33 C :   -0.104583
  34 C :   -0.050616
  35 C :    0.176014
  36 C :    0.121713
  37 C :   -0.071040
  38 C :    0.245147
  39 C :   -0.065694
  40 C :   -0.206022
  41 C :    0.215997
  42 C :    0.212848
  43 C :   -0.077768
  44 C :   -0.093016
  45 C :   -0.036801
  46 C :    0.181664
  47 C :    0.116944
  48 C :   -0.082612
  49 C :    0.205799
  50 C :   -0.069263
  51 C :   -0.188389
  52 H :    0.084586
  53 H :   -0.005937
  54 H :    0.069718
  55 H :    0.083360
  56 H :    0.087665
  57 H :    0.078296
  58 H :    0.076320
  59 H :   -0.030105
  60 H :    0.068872
  61 H :    0.177696
  62 H :    0.167178
  63 H :    0.051638
  64 H :   -0.035962
  65 H :    0.039452
  66 H :    0.053944
  67 H :    0.057092
  68 H :    0.055339
  69 H :    0.058541
  70 H :   -0.011952
  71 H :    0.045840
  72 H :    0.035460
  73 H :   -0.019652
  74 H :    0.027519
  75 H :    0.034101
  76 H :    0.044532
  77 H :    0.044793
  78 H :    0.044055
  79 H :   -0.011545
  80 H :    0.027271
  81 H :    0.049741
  82 H :   -0.022921
  83 H :    0.042435
  84 H :    0.048622
  85 H :    0.053522
  86 H :    0.056248
  87 H :    0.054048
  88 H :   -0.031230
  89 H :    0.037942
Sum of atomic charges:   -0.0000000

LOEWDIN ATOMIC CHARGES
----------------------
   0 C :    0.043544
   1 N :    0.198994
   2 C :   -0.097862
   3 N :    0.170436
   4 C :    0.126927
   5 N :   -0.149082
   6 C :   -0.008663
   7 N :    0.177482
   8 C :    0.039778
   9 N :   -0.138451
  10 C :    0.041585
  11 N :    0.137789
  12 C :   -0.095997
  13 N :    0.110577
  14 C :   -0.062741
  15 N :    0.133876
  16 C :   -0.014053
  17 C :   -0.012363
  18 C :   -0.122257
  19 C :   -0.089357
  20 C :   -0.021244
  21 C :   -0.098583
  22 C :    0.030325
  23 C :   -0.035743
  24 C :    0.007286
  25 C :    0.028917
  26 C :   -0.090391
  27 C :   -0.050242
  28 C :   -0.014615
  29 C :   -0.119284
  30 C :   -0.066990
  31 C :   -0.029355
  32 C :   -0.100881
  33 C :   -0.011004
  34 C :   -0.027608
  35 C :   -0.037967
  36 C :    0.022433
  37 C :   -0.111177
  38 C :   -0.027933
  39 C :   -0.035437
  40 C :   -0.114037
  41 C :   -0.093356
  42 C :    0.001074
  43 C :   -0.115225
  44 C :    0.025471
  45 C :   -0.013477
  46 C :   -0.026061
  47 C :    0.027990
  48 C :   -0.115587
  49 C :   -0.120543
  50 C :   -0.035015
  51 C :   -0.107745
  52 H :    0.043360
  53 H :    0.008242
  54 H :    0.056998
  55 H :    0.043087
  56 H :    0.041395
  57 H :    0.040817
  58 H :    0.040428
  59 H :   -0.001045
  60 H :    0.056477
  61 H :    0.062903
  62 H :    0.057371
  63 H :    0.028112
  64 H :   -0.005834
  65 H :    0.041029
  66 H :    0.029522
  67 H :    0.025797
  68 H :    0.030715
  69 H :    0.031034
  70 H :    0.003877
  71 H :    0.045152
  72 H :    0.021124
  73 H :    0.001588
  74 H :    0.036957
  75 H :    0.020111
  76 H :    0.019164
  77 H :    0.025317
  78 H :    0.025017
  79 H :    0.005669
  80 H :    0.036026
  81 H :    0.027745
  82 H :   -0.001281
  83 H :    0.044090
  84 H :    0.026374
  85 H :    0.023919
  86 H :    0.030273
  87 H :    0.029888
  88 H :   -0.005617
  89 H :    0.040037

  Mayer bond orders larger than 0.100000
B(  0-C ,  1-N ) :   1.2178 B(  0-C , 17-C ) :   1.5057 B(  0-C , 52-H ) :   0.9665
B(  1-N ,  8-C ) :   1.2080 B(  1-N , 10-C ) :   0.9229 B(  2-C , 12-C ) :   1.5840
B(  2-C , 16-C ) :   1.2693 B(  2-C , 53-H ) :   0.9794 B(  3-N , 14-C ) :   1.1739
B(  3-N , 16-C ) :   1.2020 B(  3-N , 61-H ) :   0.8950 B(  4-C ,  6-C ) :   1.3652
B(  4-C , 17-C ) :   1.3657 B(  4-C , 18-C ) :   1.0438 B(  5-N , 19-C ) :   1.3622
B(  5-N , 27-C ) :   1.4502 B(  6-C ,  8-C ) :   1.5077 B(  6-C , 54-H ) :   0.9704
B(  7-N , 30-C ) :   1.1836 B(  7-N , 38-C ) :   1.2162 B(  7-N , 62-H ) :   0.9017
B(  8-C , 55-H ) :   0.9674 B(  9-N , 41-C ) :   1.4366 B(  9-N , 49-C ) :   1.3912
B( 10-C , 56-H ) :   0.9768 B( 10-C , 57-H ) :   0.9805 B( 10-C , 58-H ) :   0.9815
B( 11-N , 20-C ) :   1.0945 B( 11-N , 24-C ) :   1.1342 B( 11-N , 25-C ) :   0.9630
B( 12-C , 14-C ) :   1.2695 B( 12-C , 59-H ) :   0.9767 B( 13-N , 31-C ) :   1.0800
B( 13-N , 35-C ) :   1.0697 B( 13-N , 36-C ) :   0.9836 B( 14-C , 18-C ) :   1.2654
B( 15-N , 42-C ) :   1.1267 B( 15-N , 46-C ) :   1.0874 B( 15-N , 47-C ) :   0.9668
B( 16-C , 51-C ) :   1.2514 B( 17-C , 60-H ) :   0.9709 B( 18-C , 19-C ) :   1.3168
B( 19-C , 21-C ) :   1.1591 B( 20-C , 28-C ) :   1.6303 B( 20-C , 63-H ) :   0.9710
B( 21-C , 26-C ) :   1.6856 B( 21-C , 64-H ) :   0.9714 B( 22-C , 23-C ) :   1.2533
B( 22-C , 28-C ) :   1.2793 B( 22-C , 29-C ) :   1.2590 B( 23-C , 24-C ) :   1.6366
B( 23-C , 65-H ) :   0.9723 B( 24-C , 66-H ) :   0.9691 B( 25-C , 67-H ) :   0.9762
B( 25-C , 68-H ) :   0.9834 B( 25-C , 69-H ) :   0.9819 B( 26-C , 27-C ) :   1.1693
B( 26-C , 70-H ) :   0.9759 B( 27-C , 29-C ) :   1.2443 B( 28-C , 71-H ) :   0.9709
B( 29-C , 30-C ) :   1.1722 B( 30-C , 32-C ) :   1.3538 B( 31-C , 39-C ) :   1.6878
B( 31-C , 72-H ) :   0.9709 B( 32-C , 37-C ) :   1.5064 B( 32-C , 73-H ) :   0.9771
B( 33-C , 34-C ) :   1.2301 B( 33-C , 39-C ) :   1.2225 B( 33-C , 40-C ) :   1.3645
B( 34-C , 35-C ) :   1.6865 B( 34-C , 74-H ) :   0.9710 B( 35-C , 75-H ) :   0.9709
B( 36-C , 76-H ) :   0.9754 B( 36-C , 77-H ) :   0.9826 B( 36-C , 78-H ) :   0.9838
B( 37-C , 38-C ) :   1.3469 B( 37-C , 79-H ) :   0.9793 B( 38-C , 40-C ) :   1.1763
B( 39-C , 80-H ) :   0.9721 B( 40-C , 41-C ) :   1.1658 B( 41-C , 43-C ) :   1.2583
B( 42-C , 50-C ) :   1.6428 B( 42-C , 81-H ) :   0.9696 B( 43-C , 48-C ) :   1.5928
B( 43-C , 82-H ) :   0.9757 B( 44-C , 45-C ) :   1.2815 B( 44-C , 50-C ) :   1.2476
B( 44-C , 51-C ) :   1.2460 B( 45-C , 46-C ) :   1.6332 B( 45-C , 83-H ) :   0.9702
B( 46-C , 84-H ) :   0.9710 B( 47-C , 85-H ) :   0.9759 B( 47-C , 86-H ) :   0.9825
B( 47-C , 87-H ) :   0.9830 B( 48-C , 49-C ) :   1.2524 B( 48-C , 88-H ) :   0.9725
B( 49-C , 51-C ) :   1.1882 B( 50-C , 89-H ) :   0.9723

MP2 TOTAL ENERGY:    -2130.868885897 Eh
FINAL SINGLE POINT ENERGY     -2130.868885896826

DIPOLE MOMENT
-------------
                                X             Y             Z
Electronic contribution:     -4.71825       5.63686      -0.15137
Nuclear contribution   :     -0.02987       0.16564       0.20776
                        -----------------------------------------
Total Dipole Moment    :     -4.74812       5.80250       0.05639
                        -----------------------------------------
Magnitude (a.u.)       :      7.49779
Magnitude (Debye)      :     19.05787

Rotational constants in cm-1:     0.001498     0.001472     0.000763
Rotational constants in MHz :    44.902280    44.138338    22.868849

                             ****ORCA TERMINATED NORMALLY****
TOTAL RUN TIME: 0 days 2 hours 14 minutes 43 seconds 200 msec
