                         Program Version 5.0.4 -  RELEASE  -
|  1> ! PAL2
|  2> ! mp2 cc-pvdz TightSCF  NoKeepInts
|  3>
|  4> %scf
|  5>   MaxCore 2000
|  6> end
|  7> %mp2
|  8>   MaxCore 2000
|  9> end
| 10> * xyz 0 1
| 11>    C       -3.12700         6.44100        -0.40400
| 12>    C        1.47400         4.04100         0.05700
| 13>    C       -2.80200         4.09300         0.04900
| 14>    C       -4.10000         4.06800         0.58100
| 15>    C       -4.86400         5.21900         0.60100
| 16>    C       -5.23100         7.59000         0.11800
| 17>    C        0.13200         4.30700         0.06100
| 18>    C       -0.56900         3.05600         0.04700
| 19>    C        1.64900         2.61800         0.02300
| 20>    C       -2.32700         5.31600        -0.45100
| 21>    N       -4.37400         6.38300         0.11700
| 22>    N        0.38800         2.06700         0.02500
| 23>    N       -2.01000         0.39500        -0.07500
| 24>    N       -0.38800        -2.07400        -0.02700
| 25>    N        2.01000        -0.40100         0.06500
| 26>    C       -1.96000         2.86100         0.02400
| 27>    C       -2.62300         1.61500        -0.01800
| 28>    C       -5.57300        -4.32900         1.06600
| 29>    C       -4.07300         1.47100         0.05600
| 30>    C       -4.10600        -2.75600        -0.02600
| 31>    C       -4.99500        -2.75700        -1.11100
| 32>    C       -6.13200        -3.54200        -1.07600
| 33>    C       -7.65100        -5.11300         0.04000
| 34>    C       -4.32400         0.14100         0.03700
| 35>    C       -3.02500        -0.52000        -0.04800
| 36>    C       -4.42200        -3.56600         1.07500
| 37>    N       -6.40700        -4.31300         0.00100
| 38>    C       -2.86700        -1.92200        -0.04000
| 39>    C       -1.65000        -2.62400        -0.02700
| 40>    C        3.56800        -6.14200        -1.04000
| 41>    C       -1.47600        -4.04900        -0.03400
| 42>    C        2.80300        -4.09900        -0.00800
| 43>    C        3.65700        -4.38400         1.06900
| 44>    C        4.42700        -5.53000         1.05900
| 45>    C        5.24500        -7.58800         0.01400
| 46>    C       -0.13400        -4.31500        -0.02200
| 47>    C        0.56800        -3.06400        -0.02700
| 48>    C        2.77500        -5.01200        -1.07400
| 49>    N        4.37600        -6.39100         0.01700
| 50>    C        1.95900        -2.86900        -0.00900
| 51>    C        2.62100        -1.62200         0.00900
| 52>    C        5.54300         4.33900        -1.13000
| 53>    C        4.07000        -1.47900        -0.09400
| 54>    C        4.10400         2.75100        -0.02100
| 55>    C        5.02700         2.72900         1.03600
| 56>    C        6.16600         3.50900         0.97800
| 57>    C        7.61900         5.15300        -0.11500
| 58>    C        4.32100        -0.14800        -0.09200
| 59>    C        3.02500         0.51400         0.01500
| 60>    C        4.38700         3.58200        -1.11500
| 61>    C        2.86600         1.91600         0.01300
| 62>    N        6.41300         4.29600        -0.09500
| 63>    H       -2.79800         7.40700        -0.76600
| 64>    H        2.27400         4.76600         0.08100
| 65>    H       -4.52600         3.15300         0.97300
| 66>    H       -5.87200         5.24600         0.99300
| 67>    H       -5.84300         7.59200        -0.78700
| 68>    H       -5.86800         7.56700         1.00200
| 69>    H       -4.59300         8.47300         0.14000
| 70>    H       -0.33200         5.28200         0.06900
| 71>    H       -1.32800         5.40300        -0.86200
| 72>    H        0.18200         1.07200         0.00500
| 73>    H       -0.18300        -1.08000        -0.02100
| 74>    H       -5.86400        -4.96200         1.89500
| 75>    H       -4.79400         2.27200         0.13900
| 76>    H       -4.80000        -2.16000        -1.99400
| 77>    H       -6.84100        -3.58200        -1.89300
| 78>    H       -8.42800        -4.53600         0.54600
| 79>    H       -7.95600        -5.33700        -0.98100
| 80>    H       -7.45600        -6.03700         0.58400
| 81>    H       -5.28700        -0.34400         0.10000
| 82>    H       -3.78000        -3.60100         1.94700
| 83>    H        3.58700        -6.86800        -1.84300
| 84>    H       -2.27600        -4.77400        -0.05000
| 85>    H        3.71400        -3.72400         1.92600
| 86>    H        5.09200        -5.79500         1.87100
| 87>    H        6.20500        -7.32900        -0.43900
| 88>    H        5.39300        -7.91700         1.04200
| 89>    H        4.75900        -8.37300        -0.56400
| 90>    H        0.32900        -5.29000        -0.00800
| 91>    H        2.14600        -4.84200        -1.94000
| 92>    H        5.80800         4.98600        -1.95600
| 93>    H        4.78800        -2.28100        -0.18500
| 94>    H        4.86000         2.11400         1.91200
| 95>    H        6.90100         3.53100         1.77200
| 96>    H        7.38300         6.10900         0.35600
| 97>    H        8.41400         4.65200         0.43500
| 98>    H        7.92100         5.31000        -1.15000
| 99>    H        5.28300         0.33600        -0.17900
|100>    H        3.72000         3.63200        -1.96700
|101> *
|102>
|103>                          ****END OF INPUT****

CARTESIAN COORDINATES (ANGSTROEM)
---------------------------------
  C     -3.127000    6.441000   -0.404000
  C      1.474000    4.041000    0.057000
  C     -2.802000    4.093000    0.049000
  C     -4.100000    4.068000    0.581000
  C     -4.864000    5.219000    0.601000
  C     -5.231000    7.590000    0.118000
  C      0.132000    4.307000    0.061000
  C     -0.569000    3.056000    0.047000
  C      1.649000    2.618000    0.023000
  C     -2.327000    5.316000   -0.451000
  N     -4.374000    6.383000    0.117000
  N      0.388000    2.067000    0.025000
  N     -2.010000    0.395000   -0.075000
  N     -0.388000   -2.074000   -0.027000
  N      2.010000   -0.401000    0.065000
  C     -1.960000    2.861000    0.024000
  C     -2.623000    1.615000   -0.018000
  C     -5.573000   -4.329000    1.066000
  C     -4.073000    1.471000    0.056000
  C     -4.106000   -2.756000   -0.026000
  C     -4.995000   -2.757000   -1.111000
  C     -6.132000   -3.542000   -1.076000
  C     -7.651000   -5.113000    0.040000
  C     -4.324000    0.141000    0.037000
  C     -3.025000   -0.520000   -0.048000
  C     -4.422000   -3.566000    1.075000
  N     -6.407000   -4.313000    0.001000
  C     -2.867000   -1.922000   -0.040000
  C     -1.650000   -2.624000   -0.027000
  C      3.568000   -6.142000   -1.040000
  C     -1.476000   -4.049000   -0.034000
  C      2.803000   -4.099000   -0.008000
  C      3.657000   -4.384000    1.069000
  C      4.427000   -5.530000    1.059000
  C      5.245000   -7.588000    0.014000
  C     -0.134000   -4.315000   -0.022000
  C      0.568000   -3.064000   -0.027000
  C      2.775000   -5.012000   -1.074000
  N      4.376000   -6.391000    0.017000
  C      1.959000   -2.869000   -0.009000
  C      2.621000   -1.622000    0.009000
  C      5.543000    4.339000   -1.130000
  C      4.070000   -1.479000   -0.094000
  C      4.104000    2.751000   -0.021000
  C      5.027000    2.729000    1.036000
  C      6.166000    3.509000    0.978000
  C      7.619000    5.153000   -0.115000
  C      4.321000   -0.148000   -0.092000
  C      3.025000    0.514000    0.015000
  C      4.387000    3.582000   -1.115000
  C      2.866000    1.916000    0.013000
  N      6.413000    4.296000   -0.095000
  H     -2.798000    7.407000   -0.766000
  H      2.274000    4.766000    0.081000
  H     -4.526000    3.153000    0.973000
  H     -5.872000    5.246000    0.993000
  H     -5.843000    7.592000   -0.787000
  H     -5.868000    7.567000    1.002000
  H     -4.593000    8.473000    0.140000
  H     -0.332000    5.282000    0.069000
  H     -1.328000    5.403000   -0.862000
  H      0.182000    1.072000    0.005000
  H     -0.183000   -1.080000   -0.021000
  H     -5.864000   -4.962000    1.895000
  H     -4.794000    2.272000    0.139000
  H     -4.800000   -2.160000   -1.994000
  H     -6.841000   -3.582000   -1.893000
  H     -8.428000   -4.536000    0.546000
  H     -7.956000   -5.337000   -0.981000
  H     -7.456000   -6.037000    0.584000
  H     -5.287000   -0.344000    0.100000
  H     -3.780000   -3.601000    1.947000
  H      3.587000   -6.868000   -1.843000
  H     -2.276000   -4.774000   -0.050000
  H      3.714000   -3.724000    1.926000
  H      5.092000   -5.795000    1.871000
  H      6.205000   -7.329000   -0.439000
  H      5.393000   -7.917000    1.042000
  H      4.759000   -8.373000   -0.564000
  H      0.329000   -5.290000   -0.008000
  H      2.146000   -4.842000   -1.940000
  H      5.808000    4.986000   -1.956000
  H      4.788000   -2.281000   -0.185000
  H      4.860000    2.114000    1.912000
  H      6.901000    3.531000    1.772000
  H      7.383000    6.109000    0.356000
  H      8.414000    4.652000    0.435000
  H      7.921000    5.310000   -1.150000
  H      5.283000    0.336000   -0.179000
  H      3.720000    3.632000   -1.967000

 Total Charge           Charge          ....    0
 Multiplicity           Mult            ....    1
 Number of Electrons    NEL             ....  358
 Basis Dimension        Dim             ....  918

ORBITAL ENERGIES
----------------

  NO   OCC          E(Eh)            E(eV)
   0   2.0000     -15.675410      -426.5496
   1   2.0000     -15.633932      -425.4209
   2   2.0000     -15.631541      -425.3559
   3   2.0000     -15.590493      -424.2389
   4   2.0000     -15.524701      -422.4486
   5   2.0000     -15.516073      -422.2138
   6   2.0000     -15.453054      -420.4990
   7   2.0000     -15.440733      -420.1637
   8   2.0000     -11.325842      -308.1918
   9   2.0000     -11.325231      -308.1752
  10   2.0000     -11.324630      -308.1588
  11   2.0000     -11.299301      -307.4696
  12   2.0000     -11.298162      -307.4386
  13   2.0000     -11.292755      -307.2915
  14   2.0000     -11.290690      -307.2353
  15   2.0000     -11.286749      -307.1281
  16   2.0000     -11.286545      -307.1225
  17   2.0000     -11.277946      -306.8885
  18   2.0000     -11.272475      -306.7396
  19   2.0000     -11.260323      -306.4090
  20   2.0000     -11.259350      -306.3825
  21   2.0000     -11.255440      -306.2761
  22   2.0000     -11.253001      -306.2097
  23   2.0000     -11.237640      -305.7917
  24   2.0000     -11.236305      -305.7554
  25   2.0000     -11.231155      -305.6153
  26   2.0000     -11.230346      -305.5933
  27   2.0000     -11.229540      -305.5713
  28   2.0000     -11.229430      -305.5683
  29   2.0000     -11.209994      -305.0394
  30   2.0000     -11.208739      -305.0053
  31   2.0000     -11.198458      -304.7255
  32   2.0000     -11.190488      -304.5087
  33   2.0000     -11.189671      -304.4864
  34   2.0000     -11.189586      -304.4841
  35   2.0000     -11.189004      -304.4683
  36   2.0000     -11.186874      -304.4103
  37   2.0000     -11.186141      -304.3904
  38   2.0000     -11.185650      -304.3770
  39   2.0000     -11.173104      -304.0356
  40   2.0000     -11.172136      -304.0093
  41   2.0000     -11.170617      -303.9679
  42   2.0000     -11.167394      -303.8802
  43   2.0000     -11.160676      -303.6974
  44   2.0000     -11.160142      -303.6829
  45   2.0000     -11.158075      -303.6267
  46   2.0000     -11.156292      -303.5781
  47   2.0000     -11.155326      -303.5518
  48   2.0000     -11.147941      -303.3509
  49   2.0000     -11.138489      -303.0937
  50   2.0000     -11.131164      -302.8944
  51   2.0000     -11.120397      -302.6014
  52   2.0000      -1.356662       -36.9166
  53   2.0000      -1.321189       -35.9514
  54   2.0000      -1.319358       -35.9016
  55   2.0000      -1.284029       -34.9402
  56   2.0000      -1.225411       -33.3451
  57   2.0000      -1.210546       -32.9406
  58   2.0000      -1.172252       -31.8986
  59   2.0000      -1.151471       -31.3331
  60   2.0000      -1.140559       -31.0362
  61   2.0000      -1.110245       -30.2113
  62   2.0000      -1.108706       -30.1694
  63   2.0000      -1.079870       -29.3847
  64   2.0000      -1.078630       -29.3510
  65   2.0000      -1.045375       -28.4461
  66   2.0000      -1.044045       -28.4099
  67   2.0000      -1.039042       -28.2738
  68   2.0000      -1.014551       -27.6073
  69   2.0000      -1.013534       -27.5797
  70   2.0000      -1.009572       -27.4719
  71   2.0000      -0.992808       -27.0157
  72   2.0000      -0.986606       -26.8469
  73   2.0000      -0.980304       -26.6754
  74   2.0000      -0.972383       -26.4599
  75   2.0000      -0.961270       -26.1575
  76   2.0000      -0.953665       -25.9505
  77   2.0000      -0.946181       -25.7469
  78   2.0000      -0.935233       -25.4490
  79   2.0000      -0.918740       -25.0002
  80   2.0000      -0.907410       -24.6919
  81   2.0000      -0.894451       -24.3392
  82   2.0000      -0.874922       -23.8078
  83   2.0000      -0.871808       -23.7231
  84   2.0000      -0.869507       -23.6605
  85   2.0000      -0.857404       -23.3312
  86   2.0000      -0.841519       -22.8989
  87   2.0000      -0.835727       -22.7413
  88   2.0000      -0.824767       -22.4431
  89   2.0000      -0.797567       -21.7029
  90   2.0000      -0.791081       -21.5264
  91   2.0000      -0.751523       -20.4500
  92   2.0000      -0.745262       -20.2796
  93   2.0000      -0.732911       -19.9435
  94   2.0000      -0.724693       -19.7199
  95   2.0000      -0.722014       -19.6470
  96   2.0000      -0.716415       -19.4946
  97   2.0000      -0.712507       -19.3883
  98   2.0000      -0.708266       -19.2729
  99   2.0000      -0.696985       -18.9659
 100   2.0000      -0.696258       -18.9461
 101   2.0000      -0.685580       -18.6556
 102   2.0000      -0.681751       -18.5514
 103   2.0000      -0.681355       -18.5406
 104   2.0000      -0.678236       -18.4558
 105   2.0000      -0.673678       -18.3317
 106   2.0000      -0.670226       -18.2378
 107   2.0000      -0.660513       -17.9735
 108   2.0000      -0.656841       -17.8736
 109   2.0000      -0.653063       -17.7707
 110   2.0000      -0.651273       -17.7221
 111   2.0000      -0.643697       -17.5159
 112   2.0000      -0.642951       -17.4956
 113   2.0000      -0.639236       -17.3945
 114   2.0000      -0.637584       -17.3496
 115   2.0000      -0.627908       -17.0862
 116   2.0000      -0.623904       -16.9773
 117   2.0000      -0.619936       -16.8693
 118   2.0000      -0.612619       -16.6702
 119   2.0000      -0.612225       -16.6595
 120   2.0000      -0.611249       -16.6329
 121   2.0000      -0.608560       -16.5597
 122   2.0000      -0.600670       -16.3451
 123   2.0000      -0.586683       -15.9645
 124   2.0000      -0.581686       -15.8285
 125   2.0000      -0.580585       -15.7985
 126   2.0000      -0.579572       -15.7709
 127   2.0000      -0.573820       -15.6144
 128   2.0000      -0.568084       -15.4583
 129   2.0000      -0.559349       -15.2207
 130   2.0000      -0.551491       -15.0068
 131   2.0000      -0.547524       -14.8989
 132   2.0000      -0.542196       -14.7539
 133   2.0000      -0.541405       -14.7324
 134   2.0000      -0.538174       -14.6445
 135   2.0000      -0.535822       -14.5805
 136   2.0000      -0.528997       -14.3948
 137   2.0000      -0.521779       -14.1983
 138   2.0000      -0.516705       -14.0602
 139   2.0000      -0.514102       -13.9894
 140   2.0000      -0.512552       -13.9473
 141   2.0000      -0.511330       -13.9140
 142   2.0000      -0.509008       -13.8508
 143   2.0000      -0.504197       -13.7199
 144   2.0000      -0.501892       -13.6572
 145   2.0000      -0.496748       -13.5172
 146   2.0000      -0.491986       -13.3876
 147   2.0000      -0.483210       -13.1488
 148   2.0000      -0.479372       -13.0444
 149   2.0000      -0.466620       -12.6974
 150   2.0000      -0.466432       -12.6923
 151   2.0000      -0.457218       -12.4415
 152   2.0000      -0.450896       -12.2695
 153   2.0000      -0.445018       -12.1096
 154   2.0000      -0.440877       -11.9969
 155   2.0000      -0.428662       -11.6645
 156   2.0000      -0.425815       -11.5870
 157   2.0000      -0.409609       -11.1460
 158   2.0000      -0.404005       -10.9935
 159   2.0000      -0.388436       -10.5699
 160   2.0000      -0.384804       -10.4711
 161   2.0000      -0.378443       -10.2980
 162   2.0000      -0.370077       -10.0703
 163   2.0000      -0.356621        -9.7042
 164   2.0000      -0.355654        -9.6778
 165   2.0000      -0.341017        -9.2795
 166   2.0000      -0.337544        -9.1850
 167   2.0000      -0.325577        -8.8594
 168   2.0000      -0.323603        -8.8057
 169   2.0000      -0.304350        -8.2818
 170   2.0000      -0.299673        -8.1545
 171   2.0000      -0.285725        -7.7750
 172   2.0000      -0.281103        -7.6492
 173   2.0000      -0.263173        -7.1613
 174   2.0000      -0.242212        -6.5909
 175   2.0000      -0.189876        -5.1668
 176   2.0000      -0.180373        -4.9082
 177   2.0000      -0.076677        -2.0865
 178   2.0000      -0.058746        -1.5986
 179   0.0000       0.028436         0.7738
 180   0.0000       0.066043         1.7971
 181   0.0000       0.090981         2.4757
 182   0.0000       0.109061         2.9677
 183   0.0000       0.111389         3.0310

MULLIKEN ATOMIC CHARGES
-----------------------
   0 C :    0.211134
   1 N :   -0.455211
   2 C :   -0.067581
   3 N :   -0.338053
   4 C :   -0.048573
   5 N :   -0.565286
   6 C :   -0.109989
   7 N :   -0.340387
   8 C :    0.207287
   9 N :   -0.562227
  10 C :    0.118739
  11 N :   -0.438465
  12 C :   -0.079167
  13 N :   -0.430439
  14 C :    0.230819
  15 N :   -0.440971
  16 C :    0.228525
  17 C :   -0.121377
  18 C :   -0.191957
  19 C :    0.223173
  20 C :    0.212868
  21 C :   -0.088349
  22 C :   -0.091201
  23 C :   -0.040180
  24 C :    0.194345
  25 C :    0.114611
  26 C :   -0.084454
  27 C :    0.213412
  28 C :   -0.061100
  29 C :   -0.180695
  30 C :    0.245423
  31 C :    0.228373
  32 C :   -0.062096
  33 C :   -0.062308
  34 C :   -0.051090
  35 C :    0.226172
  36 C :    0.108792
  37 C :   -0.064462
  38 C :    0.231590
  39 C :   -0.057948
  40 C :   -0.181961
  41 C :    0.225646
  42 C :    0.197819
  43 C :   -0.072353
  44 C :   -0.089484
  45 C :   -0.060680
  46 C :    0.210991
  47 C :    0.115368
  48 C :   -0.067450
  49 C :    0.237967
  50 C :   -0.046956
  51 C :   -0.191961
  52 H :    0.038617
  53 H :   -0.016986
  54 H :    0.051604
  55 H :    0.037698
  56 H :    0.049769
  57 H :    0.048205
  58 H :    0.047505
  59 H :    0.000453
  60 H :    0.047704
  61 H :    0.171248
  62 H :    0.175249
  63 H :    0.055142
  64 H :   -0.010766
  65 H :    0.047220
  66 H :    0.055712
  67 H :    0.062243
  68 H :    0.057229
  69 H :    0.056407
  70 H :   -0.029723
  71 H :    0.044711
  72 H :    0.070010
  73 H :   -0.008368
  74 H :    0.059179
  75 H :    0.069405
  76 H :    0.073768
  77 H :    0.067119
  78 H :    0.066424
  79 H :   -0.016358
  80 H :    0.060078
  81 H :    0.054225
  82 H :   -0.024651
  83 H :    0.042121
  84 H :    0.054211
  85 H :    0.060824
  86 H :    0.055652
  87 H :    0.057152
  88 H :   -0.014914
  89 H :    0.046238
Sum of atomic charges:   -0.0000000

LOEWDIN ATOMIC CHARGES
----------------------
   0 C :   -0.019883
   1 N :    0.118164
   2 C :   -0.101349
   3 N :    0.183320
   4 C :   -0.009197
   5 N :   -0.133180
   6 C :   -0.036240
   7 N :    0.175562
   8 C :   -0.022751
   9 N :   -0.140394
  10 C :    0.023992
  11 N :    0.141830
  12 C :   -0.116189
  13 N :    0.163959
  14 C :   -0.025636
  15 N :    0.138803
  16 C :   -0.059340
  17 C :   -0.045285
  18 C :   -0.104783
  19 C :   -0.080311
  20 C :    0.004015
  21 C :   -0.122645
  22 C :    0.036585
  23 C :   -0.014911
  24 C :   -0.011999
  25 C :    0.029789
  26 C :   -0.108304
  27 C :   -0.115306
  28 C :   -0.027287
  29 C :   -0.100428
  30 C :   -0.030852
  31 C :    0.022208
  32 C :   -0.094862
  33 C :    0.078008
  34 C :   -0.015557
  35 C :    0.020579
  36 C :    0.034732
  37 C :   -0.094681
  38 C :   -0.051439
  39 C :   -0.018211
  40 C :   -0.108326
  41 C :   -0.091325
  42 C :   -0.010064
  43 C :   -0.099571
  44 C :    0.033426
  45 C :   -0.027615
  46 C :    0.001433
  47 C :    0.029505
  48 C :   -0.095417
  49 C :   -0.071012
  50 C :   -0.019249
  51 C :   -0.108498
  52 H :    0.023328
  53 H :    0.002920
  54 H :    0.036230
  55 H :    0.023175
  56 H :    0.021947
  57 H :    0.026557
  58 H :    0.027069
  59 H :    0.011087
  60 H :    0.037126
  61 H :    0.060101
  62 H :    0.061738
  63 H :    0.030641
  64 H :    0.005597
  65 H :    0.045899
  66 H :    0.029299
  67 H :    0.028137
  68 H :    0.031623
  69 H :    0.030304
  70 H :   -0.004500
  71 H :    0.043457
  72 H :    0.037098
  73 H :    0.006949
  74 H :    0.050163
  75 H :    0.036739
  76 H :    0.034204
  77 H :    0.035772
  78 H :    0.035460
  79 H :    0.003078
  80 H :    0.050208
  81 H :    0.029031
  82 H :   -0.002622
  83 H :    0.042631
  84 H :    0.029875
  85 H :    0.027359
  86 H :    0.030227
  87 H :    0.031376
  88 H :    0.002180
  89 H :    0.044721

  Mayer bond orders larger than 0.100000
B(  0-C ,  1-N ) :   1.0951 B(  0-C , 17-C ) :   1.7037 B(  0-C , 52-H ) :   0.9664
B(  1-N ,  8-C ) :   1.0886 B(  1-N , 10-C ) :   0.9770 B(  2-C , 12-C ) :   1.5041
B(  2-C , 16-C ) :   1.3588 B(  2-C , 53-H ) :   0.9747 B(  3-N , 14-C ) :   1.2195
B(  3-N , 16-C ) :   1.1878 B(  3-N , 61-H ) :   0.8990 B(  4-C ,  6-C ) :   1.2127
B(  4-C , 17-C ) :   1.2131 B(  4-C , 18-C ) :   1.4432 B(  5-N , 19-C ) :   1.4526
B(  5-N , 27-C ) :   1.3778 B(  6-C ,  8-C ) :   1.7097 B(  6-C , 54-H ) :   0.9416
B(  7-N , 30-C ) :   1.1958 B(  7-N , 38-C ) :   1.1906 B(  7-N , 62-H ) :   0.8969
B(  8-C , 55-H ) :   0.9663 B(  9-N , 41-C ) :   1.3952 B(  9-N , 49-C ) :   1.4246
B( 10-C , 56-H ) :   0.9772 B( 10-C , 57-H ) :   0.9822 B( 10-C , 58-H ) :   0.9843
B( 11-N , 20-C ) :   1.1301 B( 11-N , 24-C ) :   1.1076 B( 11-N , 25-C ) :   0.9603
B( 12-C , 14-C ) :   1.3558 B( 12-C , 59-H ) :   0.9695 B( 13-N , 31-C ) :   1.1577
B( 13-N , 35-C ) :   1.1560 B( 13-N , 36-C ) :   0.9431 B( 14-C , 18-C ) :   1.1286
B( 15-N , 42-C ) :   1.1083 B( 15-N , 46-C ) :   1.1234 B( 15-N , 47-C ) :   0.9613
B( 16-C , 51-C ) :   1.1713 B( 17-C , 60-H ) :   0.9500 B( 18-C , 19-C ) :   1.1318
B( 19-C , 21-C ) :   1.2476 B( 20-C , 28-C ) :   1.6287 B( 20-C , 63-H ) :   0.9703
B( 21-C , 26-C ) :   1.5995 B( 21-C , 64-H ) :   0.9606 B( 22-C , 23-C ) :   1.2886
B( 22-C , 28-C ) :   1.2642 B( 22-C , 29-C ) :   1.2252 B( 23-C , 24-C ) :   1.6205
B( 23-C , 65-H ) :   0.9703 B( 24-C , 66-H ) :   0.9695 B( 25-C , 67-H ) :   0.9760
B( 25-C , 68-H ) :   0.9828 B( 25-C , 69-H ) :   0.9823 B( 26-C , 27-C ) :   1.2469
B( 26-C , 70-H ) :   0.9701 B( 27-C , 29-C ) :   1.2106 B( 28-C , 71-H ) :   0.9719
B( 29-C , 30-C ) :   1.2420 B( 30-C , 32-C ) :   1.2828 B( 31-C , 39-C ) :   1.5919
B( 31-C , 72-H ) :   0.9683 B( 32-C , 37-C ) :   1.5759 B( 32-C , 73-H ) :   0.9786
B( 33-C , 34-C ) :   1.3041 B( 33-C , 39-C ) :   1.3007 B( 33-C , 40-C ) :   1.1828
B( 34-C , 35-C ) :   1.5893 B( 34-C , 74-H ) :   0.9697 B( 35-C , 75-H ) :   0.9683
B( 36-C , 76-H ) :   0.9767 B( 36-C , 77-H ) :   0.9816 B( 36-C , 78-H ) :   0.9824
B( 37-C , 38-C ) :   1.2881 B( 37-C , 79-H ) :   0.9766 B( 38-C , 40-C ) :   1.2310
B( 39-C , 80-H ) :   0.9706 B( 40-C , 41-C ) :   1.2482 B( 41-C , 43-C ) :   1.1866
B( 42-C , 50-C ) :   1.6331 B( 42-C , 81-H ) :   0.9697 B( 43-C , 48-C ) :   1.6660
B( 43-C , 82-H ) :   0.9723 B( 44-C , 45-C ) :   1.2642 B( 44-C , 50-C ) :   1.2720
B( 44-C , 51-C ) :   1.2598 B( 45-C , 46-C ) :   1.6345 B( 45-C , 83-H ) :   0.9718
B( 46-C , 84-H ) :   0.9700 B( 47-C , 85-H ) :   0.9762 B( 47-C , 86-H ) :   0.9829
B( 47-C , 87-H ) :   0.9825 B( 48-C , 49-C ) :   1.1900 B( 48-C , 88-H ) :   0.9748
B( 49-C , 51-C ) :   1.2418 B( 50-C , 89-H ) :   0.9709

MP2 TOTAL ENERGY:    -2130.866139276 Eh
FINAL SINGLE POINT ENERGY     -2130.866139276346

DIPOLE MOMENT
-------------
                                X             Y             Z
Electronic contribution:      2.59703      -3.93448      -0.11064
Nuclear contribution   :     -0.04848       0.15378       0.13017
                        -----------------------------------------
Total Dipole Moment    :      2.54855      -3.78070       0.01953
                        -----------------------------------------
Magnitude (a.u.)       :      4.55951
Magnitude (Debye)      :     11.58936

Rotational constants in cm-1:     0.001502     0.001477     0.000760
Rotational constants in MHz :    45.036099    44.278137    22.796327

                             ****ORCA TERMINATED NORMALLY****
TOTAL RUN TIME: 0 days 2 hours 1 minutes 36 seconds 109 msec
