                         Program Version 5.0.4 -  RELEASE  -
|  1> ! PAL2
|  2> ! mp2 cc-pvdz TightSCF  NoKeepInts
|  3>
|  4> %scf
|  5>   MaxCore 2000
|  6> end
|  7> %mp2
|  8>   MaxCore 2000
|  9> end
| 10> * xyz 0 1
| 11>    C       -4.24400         5.69100        -1.04300
| 12>    C        1.47400         4.04100         0.05700
| 13>    C       -2.80200         4.09300         0.04900
| 14>    C       -2.93800         4.85000         1.22300
| 15>    C       -3.71600         5.99000         1.22700
| 16>    C       -5.21100         7.60300         0.15200
| 17>    C        0.13200         4.30700         0.06100
| 18>    C       -0.56900         3.05600         0.04700
| 19>    C        1.64900         2.61800         0.02300
| 20>    C       -3.48100         4.54000        -1.09500
| 21>    N       -4.35300         6.39800         0.10500
| 22>    N        0.38800         2.06700         0.02500
| 23>    N       -2.01000         0.39500        -0.07500
| 24>    N       -0.38800        -2.07400        -0.02700
| 25>    N        2.01000        -0.40100         0.06500
| 26>    C       -1.96000         2.86100         0.02400
| 27>    C       -2.62300         1.61500        -0.01800
| 28>    C       -5.57300        -4.32900         1.06600
| 29>    C       -4.07300         1.47100         0.05600
| 30>    C       -4.10600        -2.75600        -0.02600
| 31>    C       -4.99500        -2.75700        -1.11100
| 32>    C       -6.13200        -3.54200        -1.07600
| 33>    C       -7.65100        -5.11300         0.04000
| 34>    C       -4.32400         0.14100         0.03700
| 35>    C       -3.02500        -0.52000        -0.04800
| 36>    C       -4.42200        -3.56600         1.07500
| 37>    N       -6.40700        -4.31300         0.00100
| 38>    C       -2.86700        -1.92200        -0.04000
| 39>    C       -1.65000        -2.62400        -0.02700
| 40>    C        3.56800        -6.14200        -1.04000
| 41>    C       -1.47600        -4.04900        -0.03400
| 42>    C        2.80300        -4.09900        -0.00800
| 43>    C        3.65700        -4.38400         1.06900
| 44>    C        4.42700        -5.53000         1.05900
| 45>    C        5.24500        -7.58800         0.01400
| 46>    C       -0.13400        -4.31500        -0.02200
| 47>    C        0.56800        -3.06400        -0.02700
| 48>    C        2.77500        -5.01200        -1.07400
| 49>    N        4.37600        -6.39100         0.01700
| 50>    C        1.95900        -2.86900        -0.00900
| 51>    C        2.62100        -1.62200         0.00900
| 52>    C        5.54300         4.33900        -1.13000
| 53>    C        4.07000        -1.47900        -0.09400
| 54>    C        4.10400         2.75100        -0.02100
| 55>    C        5.02700         2.72900         1.03600
| 56>    C        6.16600         3.50900         0.97800
| 57>    C        7.61900         5.15300        -0.11500
| 58>    C        4.32100        -0.14800        -0.09200
| 59>    C        3.02500         0.51400         0.01500
| 60>    C        4.38700         3.58200        -1.11500
| 61>    C        2.86600         1.91600         0.01300
| 62>    N        6.41300         4.29600        -0.09500
| 63>    H       -4.77500         6.07900        -1.90300
| 64>    H        2.27400         4.76600         0.08100
| 65>    H       -2.44600         4.55100         2.14100
| 66>    H       -3.85800         6.60100         2.10900
| 67>    H       -6.21000         7.31500         0.48900
| 68>    H       -4.77200         8.31900         0.84600
| 69>    H       -5.26300         8.03500        -0.84700
| 70>    H       -0.33200         5.28200         0.06900
| 71>    H       -3.40500         4.00700        -2.03600
| 72>    H        0.18200         1.07200         0.00500
| 73>    H       -0.18300        -1.08000        -0.02100
| 74>    H       -5.86400        -4.96200         1.89500
| 75>    H       -4.79400         2.27200         0.13900
| 76>    H       -4.80000        -2.16000        -1.99400
| 77>    H       -6.84100        -3.58200        -1.89300
| 78>    H       -8.42800        -4.53600         0.54600
| 79>    H       -7.95600        -5.33700        -0.98100
| 80>    H       -7.45600        -6.03700         0.58400
| 81>    H       -5.28700        -0.34400         0.10000
| 82>    H       -3.78000        -3.60100         1.94700
| 83>    H        3.58700        -6.86800        -1.84300
| 84>    H       -2.27600        -4.77400        -0.05000
| 85>    H        3.71400        -3.72400         1.92600
| 86>    H        5.09200        -5.79500         1.87100
| 87>    H        6.20500        -7.32900        -0.43900
| 88>    H        5.39300        -7.91700         1.04200
| 89>    H        4.75900        -8.37300        -0.56400
| 90>    H        0.32900        -5.29000        -0.00800
| 91>    H        2.14600        -4.84200        -1.94000
| 92>    H        5.80800         4.98600        -1.95600
| 93>    H        4.78800        -2.28100        -0.18500
| 94>    H        4.86000         2.11400         1.91200
| 95>    H        6.90100         3.53100         1.77200
| 96>    H        7.38300         6.10900         0.35600
| 97>    H        8.41400         4.65200         0.43500
| 98>    H        7.92100         5.31000        -1.15000
| 99>    H        5.28300         0.33600        -0.17900
|100>    H        3.72000         3.63200        -1.96700
|101> *
|102>
|103>                          ****END OF INPUT****

CARTESIAN COORDINATES (ANGSTROEM)
---------------------------------
  C     -4.244000    5.691000   -1.043000
  C      1.474000    4.041000    0.057000
  C     -2.802000    4.093000    0.049000
  C     -2.938000    4.850000    1.223000
  C     -3.716000    5.990000    1.227000
  C     -5.211000    7.603000    0.152000
  C      0.132000    4.307000    0.061000
  C     -0.569000    3.056000    0.047000
  C      1.649000    2.618000    0.023000
  C     -3.481000    4.540000   -1.095000
  N     -4.353000    6.398000    0.105000
  N      0.388000    2.067000    0.025000
  N     -2.010000    0.395000   -0.075000
  N     -0.388000   -2.074000   -0.027000
  N      2.010000   -0.401000    0.065000
  C     -1.960000    2.861000    0.024000
  C     -2.623000    1.615000   -0.018000
  C     -5.573000   -4.329000    1.066000
  C     -4.073000    1.471000    0.056000
  C     -4.106000   -2.756000   -0.026000
  C     -4.995000   -2.757000   -1.111000
  C     -6.132000   -3.542000   -1.076000
  C     -7.651000   -5.113000    0.040000
  C     -4.324000    0.141000    0.037000
  C     -3.025000   -0.520000   -0.048000
  C     -4.422000   -3.566000    1.075000
  N     -6.407000   -4.313000    0.001000
  C     -2.867000   -1.922000   -0.040000
  C     -1.650000   -2.624000   -0.027000
  C      3.568000   -6.142000   -1.040000
  C     -1.476000   -4.049000   -0.034000
  C      2.803000   -4.099000   -0.008000
  C      3.657000   -4.384000    1.069000
  C      4.427000   -5.530000    1.059000
  C      5.245000   -7.588000    0.014000
  C     -0.134000   -4.315000   -0.022000
  C      0.568000   -3.064000   -0.027000
  C      2.775000   -5.012000   -1.074000
  N      4.376000   -6.391000    0.017000
  C      1.959000   -2.869000   -0.009000
  C      2.621000   -1.622000    0.009000
  C      5.543000    4.339000   -1.130000
  C      4.070000   -1.479000   -0.094000
  C      4.104000    2.751000   -0.021000
  C      5.027000    2.729000    1.036000
  C      6.166000    3.509000    0.978000
  C      7.619000    5.153000   -0.115000
  C      4.321000   -0.148000   -0.092000
  C      3.025000    0.514000    0.015000
  C      4.387000    3.582000   -1.115000
  C      2.866000    1.916000    0.013000
  N      6.413000    4.296000   -0.095000
  H     -4.775000    6.079000   -1.903000
  H      2.274000    4.766000    0.081000
  H     -2.446000    4.551000    2.141000
  H     -3.858000    6.601000    2.109000
  H     -6.210000    7.315000    0.489000
  H     -4.772000    8.319000    0.846000
  H     -5.263000    8.035000   -0.847000
  H     -0.332000    5.282000    0.069000
  H     -3.405000    4.007000   -2.036000
  H      0.182000    1.072000    0.005000
  H     -0.183000   -1.080000   -0.021000
  H     -5.864000   -4.962000    1.895000
  H     -4.794000    2.272000    0.139000
  H     -4.800000   -2.160000   -1.994000
  H     -6.841000   -3.582000   -1.893000
  H     -8.428000   -4.536000    0.546000
  H     -7.956000   -5.337000   -0.981000
  H     -7.456000   -6.037000    0.584000
  H     -5.287000   -0.344000    0.100000
  H     -3.780000   -3.601000    1.947000
  H      3.587000   -6.868000   -1.843000
  H     -2.276000   -4.774000   -0.050000
  H      3.714000   -3.724000    1.926000
  H      5.092000   -5.795000    1.871000
  H      6.205000   -7.329000   -0.439000
  H      5.393000   -7.917000    1.042000
  H      4.759000   -8.373000   -0.564000
  H      0.329000   -5.290000   -0.008000
  H      2.146000   -4.842000   -1.940000
  H      5.808000    4.986000   -1.956000
  H      4.788000   -2.281000   -0.185000
  H      4.860000    2.114000    1.912000
  H      6.901000    3.531000    1.772000
  H      7.383000    6.109000    0.356000
  H      8.414000    4.652000    0.435000
  H      7.921000    5.310000   -1.150000
  H      5.283000    0.336000   -0.179000
  H      3.720000    3.632000   -1.967000

 Total Charge           Charge          ....    0
 Multiplicity           Mult            ....    1
 Number of Electrons    NEL             ....  358
 Basis Dimension        Dim             ....  918

ORBITAL ENERGIES
----------------

  NO   OCC          E(Eh)            E(eV)
   0   2.0000     -15.673072      -426.4860
   1   2.0000     -15.637275      -425.5119
   2   2.0000     -15.624423      -425.1622
   3   2.0000     -15.603079      -424.5814
   4   2.0000     -15.517405      -422.2500
   5   2.0000     -15.510827      -422.0711
   6   2.0000     -15.447780      -420.3555
   7   2.0000     -15.433978      -419.9799
   8   2.0000     -11.322932      -308.1126
   9   2.0000     -11.321772      -308.0811
  10   2.0000     -11.320497      -308.0464
  11   2.0000     -11.301469      -307.5286
  12   2.0000     -11.295471      -307.3654
  13   2.0000     -11.293140      -307.3020
  14   2.0000     -11.290054      -307.2180
  15   2.0000     -11.284157      -307.0575
  16   2.0000     -11.279999      -306.9444
  17   2.0000     -11.278921      -306.9150
  18   2.0000     -11.272275      -306.7342
  19   2.0000     -11.265627      -306.5533
  20   2.0000     -11.262188      -306.4597
  21   2.0000     -11.257042      -306.3197
  22   2.0000     -11.256949      -306.3172
  23   2.0000     -11.240636      -305.8732
  24   2.0000     -11.232811      -305.6603
  25   2.0000     -11.231995      -305.6381
  26   2.0000     -11.228579      -305.5452
  27   2.0000     -11.222954      -305.3921
  28   2.0000     -11.222801      -305.3880
  29   2.0000     -11.209213      -305.0182
  30   2.0000     -11.207731      -304.9779
  31   2.0000     -11.206924      -304.9559
  32   2.0000     -11.201858      -304.8180
  33   2.0000     -11.201734      -304.8147
  34   2.0000     -11.189202      -304.4737
  35   2.0000     -11.189092      -304.4707
  36   2.0000     -11.183130      -304.3084
  37   2.0000     -11.182929      -304.3030
  38   2.0000     -11.180663      -304.2413
  39   2.0000     -11.168888      -303.9209
  40   2.0000     -11.165156      -303.8193
  41   2.0000     -11.162681      -303.7520
  42   2.0000     -11.158298      -303.6327
  43   2.0000     -11.156420      -303.5816
  44   2.0000     -11.155815      -303.5652
  45   2.0000     -11.155300      -303.5511
  46   2.0000     -11.152499      -303.4749
  47   2.0000     -11.152224      -303.4674
  48   2.0000     -11.149718      -303.3993
  49   2.0000     -11.143580      -303.2322
  50   2.0000     -11.127057      -302.7826
  51   2.0000     -11.124264      -302.7066
  52   2.0000      -1.353545       -36.8318
  53   2.0000      -1.324066       -36.0297
  54   2.0000      -1.312636       -35.7186
  55   2.0000      -1.294686       -35.2302
  56   2.0000      -1.218107       -33.1464
  57   2.0000      -1.207801       -32.8659
  58   2.0000      -1.168211       -31.7886
  59   2.0000      -1.146047       -31.1855
  60   2.0000      -1.136191       -30.9173
  61   2.0000      -1.111966       -30.2581
  62   2.0000      -1.101930       -29.9850
  63   2.0000      -1.085983       -29.5511
  64   2.0000      -1.075114       -29.2553
  65   2.0000      -1.047939       -28.5159
  66   2.0000      -1.037259       -28.2252
  67   2.0000      -1.034518       -28.1507
  68   2.0000      -1.020627       -27.7727
  69   2.0000      -1.013653       -27.5829
  70   2.0000      -1.005709       -27.3667
  71   2.0000      -0.990396       -26.9501
  72   2.0000      -0.983564       -26.7641
  73   2.0000      -0.975840       -26.5540
  74   2.0000      -0.970674       -26.4134
  75   2.0000      -0.959681       -26.1142
  76   2.0000      -0.950566       -25.8662
  77   2.0000      -0.946226       -25.7481
  78   2.0000      -0.928283       -25.2599
  79   2.0000      -0.919854       -25.0305
  80   2.0000      -0.902225       -24.5508
  81   2.0000      -0.888634       -24.1810
  82   2.0000      -0.875162       -23.8144
  83   2.0000      -0.867315       -23.6008
  84   2.0000      -0.864243       -23.5172
  85   2.0000      -0.853250       -23.2181
  86   2.0000      -0.846757       -23.0414
  87   2.0000      -0.833102       -22.6699
  88   2.0000      -0.822373       -22.3779
  89   2.0000      -0.796456       -21.6727
  90   2.0000      -0.793484       -21.5918
  91   2.0000      -0.747454       -20.3393
  92   2.0000      -0.733644       -19.9635
  93   2.0000      -0.726780       -19.7767
  94   2.0000      -0.722323       -19.6554
  95   2.0000      -0.716023       -19.4840
  96   2.0000      -0.710022       -19.3207
  97   2.0000      -0.706387       -19.2218
  98   2.0000      -0.701374       -19.0854
  99   2.0000      -0.694081       -18.8869
 100   2.0000      -0.693333       -18.8665
 101   2.0000      -0.682324       -18.5670
 102   2.0000      -0.678965       -18.4756
 103   2.0000      -0.678258       -18.4563
 104   2.0000      -0.672672       -18.3043
 105   2.0000      -0.668449       -18.1894
 106   2.0000      -0.665340       -18.1048
 107   2.0000      -0.657126       -17.8813
 108   2.0000      -0.655204       -17.8290
 109   2.0000      -0.652826       -17.7643
 110   2.0000      -0.649045       -17.6614
 111   2.0000      -0.646442       -17.5906
 112   2.0000      -0.640416       -17.4266
 113   2.0000      -0.639725       -17.4078
 114   2.0000      -0.634415       -17.2633
 115   2.0000      -0.630977       -17.1698
 116   2.0000      -0.622400       -16.9364
 117   2.0000      -0.616218       -16.7681
 118   2.0000      -0.614297       -16.7159
 119   2.0000      -0.609222       -16.5778
 120   2.0000      -0.605805       -16.4848
 121   2.0000      -0.604983       -16.4624
 122   2.0000      -0.596074       -16.2200
 123   2.0000      -0.590121       -16.0580
 124   2.0000      -0.589353       -16.0371
 125   2.0000      -0.583487       -15.8775
 126   2.0000      -0.575559       -15.6618
 127   2.0000      -0.572840       -15.5878
 128   2.0000      -0.565945       -15.4001
 129   2.0000      -0.561435       -15.2774
 130   2.0000      -0.557643       -15.1742
 131   2.0000      -0.547607       -14.9011
 132   2.0000      -0.540041       -14.6953
 133   2.0000      -0.539340       -14.6762
 134   2.0000      -0.534231       -14.5372
 135   2.0000      -0.531516       -14.4633
 136   2.0000      -0.522159       -14.2087
 137   2.0000      -0.519888       -14.1469
 138   2.0000      -0.515844       -14.0368
 139   2.0000      -0.512684       -13.9508
 140   2.0000      -0.510038       -13.8789
 141   2.0000      -0.507763       -13.8169
 142   2.0000      -0.502074       -13.6621
 143   2.0000      -0.499662       -13.5965
 144   2.0000      -0.496372       -13.5070
 145   2.0000      -0.495704       -13.4888
 146   2.0000      -0.493344       -13.4246
 147   2.0000      -0.487235       -13.2583
 148   2.0000      -0.483538       -13.1577
 149   2.0000      -0.464864       -12.6496
 150   2.0000      -0.462049       -12.5730
 151   2.0000      -0.455038       -12.3822
 152   2.0000      -0.449233       -12.2242
 153   2.0000      -0.442154       -12.0316
 154   2.0000      -0.439871       -11.9695
 155   2.0000      -0.438578       -11.9343
 156   2.0000      -0.428675       -11.6649
 157   2.0000      -0.421539       -11.4707
 158   2.0000      -0.397813       -10.8251
 159   2.0000      -0.384725       -10.4689
 160   2.0000      -0.381538       -10.3822
 161   2.0000      -0.372736       -10.1427
 162   2.0000      -0.362724        -9.8702
 163   2.0000      -0.358572        -9.7572
 164   2.0000      -0.349408        -9.5079
 165   2.0000      -0.338914        -9.2223
 166   2.0000      -0.336460        -9.1555
 167   2.0000      -0.335252        -9.1227
 168   2.0000      -0.319712        -8.6998
 169   2.0000      -0.299540        -8.1509
 170   2.0000      -0.296714        -8.0740
 171   2.0000      -0.285691        -7.7740
 172   2.0000      -0.283772        -7.7218
 173   2.0000      -0.260603        -7.0914
 174   2.0000      -0.238218        -6.4822
 175   2.0000      -0.185437        -5.0460
 176   2.0000      -0.175159        -4.7663
 177   2.0000      -0.062496        -1.7006
 178   2.0000      -0.052043        -1.4162
 179   0.0000       0.033552         0.9130
 180   0.0000       0.064453         1.7539
 181   0.0000       0.091819         2.4985
 182   0.0000       0.096515         2.6263
 183   0.0000       0.112561         3.0629

MULLIKEN ATOMIC CHARGES
-----------------------
   0 C :    0.220676
   1 N :   -0.427305
   2 C :   -0.067436
   3 N :   -0.341466
   4 C :   -0.083535
   5 N :   -0.564080
   6 C :   -0.034478
   7 N :   -0.337356
   8 C :    0.218060
   9 N :   -0.564715
  10 C :    0.108822
  11 N :   -0.437987
  12 C :   -0.060724
  13 N :   -0.446523
  14 C :    0.225113
  15 N :   -0.440976
  16 C :    0.247987
  17 C :   -0.039477
  18 C :   -0.181190
  19 C :    0.226177
  20 C :    0.198197
  21 C :   -0.067306
  22 C :   -0.086573
  23 C :   -0.059517
  24 C :    0.214797
  25 C :    0.113965
  26 C :   -0.070706
  27 C :    0.237224
  28 C :   -0.044343
  29 C :   -0.191780
  30 C :    0.226754
  31 C :    0.197304
  32 C :   -0.065158
  33 C :   -0.094426
  34 C :   -0.049863
  35 C :    0.188226
  36 C :    0.118260
  37 C :   -0.068736
  38 C :    0.241936
  39 C :   -0.064142
  40 C :   -0.197689
  41 C :    0.217223
  42 C :    0.208887
  43 C :   -0.075804
  44 C :   -0.089574
  45 C :   -0.044286
  46 C :    0.193096
  47 C :    0.116107
  48 C :   -0.080040
  49 C :    0.215184
  50 C :   -0.060768
  51 C :   -0.190211
  52 H :    0.069062
  53 H :   -0.010724
  54 H :    0.056881
  55 H :    0.067989
  56 H :    0.073130
  57 H :    0.067143
  58 H :    0.065867
  59 H :   -0.022701
  60 H :    0.055097
  61 H :    0.175068
  62 H :    0.170147
  63 H :    0.055644
  64 H :   -0.029247
  65 H :    0.044147
  66 H :    0.057219
  67 H :    0.061306
  68 H :    0.057578
  69 H :    0.059721
  70 H :   -0.019029
  71 H :    0.048486
  72 H :    0.045078
  73 H :   -0.017727
  74 H :    0.036376
  75 H :    0.043867
  76 H :    0.052507
  77 H :    0.050874
  78 H :    0.050050
  79 H :   -0.012253
  80 H :    0.036261
  81 H :    0.052127
  82 H :   -0.023479
  83 H :    0.043176
  84 H :    0.051246
  85 H :    0.056567
  86 H :    0.056549
  87 H :    0.055658
  88 H :   -0.027650
  89 H :    0.042156
Sum of atomic charges:   -0.0000000

LOEWDIN ATOMIC CHARGES
----------------------
   0 C :    0.019160
   1 N :    0.165930
   2 C :   -0.100755
   3 N :    0.173785
   4 C :    0.076468
   5 N :   -0.143464
   6 C :   -0.013304
   7 N :    0.177484
   8 C :    0.016810
   9 N :   -0.138488
  10 C :    0.034888
  11 N :    0.143590
  12 C :   -0.098121
  13 N :    0.124792
  14 C :   -0.055894
  15 N :    0.136971
  16 C :   -0.029148
  17 C :   -0.016071
  18 C :   -0.114477
  19 C :   -0.089183
  20 C :   -0.008368
  21 C :   -0.100522
  22 C :    0.041686
  23 C :   -0.027795
  24 C :    0.006451
  25 C :    0.030203
  26 C :   -0.098681
  27 C :   -0.071909
  28 C :   -0.016562
  29 C :   -0.113404
  30 C :   -0.057907
  31 C :   -0.015142
  32 C :   -0.100109
  33 C :    0.012313
  34 C :   -0.023664
  35 C :   -0.023135
  36 C :    0.025740
  37 C :   -0.106013
  38 C :   -0.033417
  39 C :   -0.030979
  40 C :   -0.111320
  41 C :   -0.094880
  42 C :   -0.001200
  43 C :   -0.110438
  44 C :    0.032034
  45 C :   -0.017515
  46 C :   -0.014933
  47 C :    0.028775
  48 C :   -0.111956
  49 C :   -0.106080
  50 C :   -0.028595
  51 C :   -0.109374
  52 H :    0.035952
  53 H :    0.005905
  54 H :    0.050628
  55 H :    0.036098
  56 H :    0.033877
  57 H :    0.035275
  58 H :    0.035602
  59 H :    0.001518
  60 H :    0.049804
  61 H :    0.061616
  62 H :    0.059006
  63 H :    0.030283
  64 H :   -0.003220
  65 H :    0.043609
  66 H :    0.030758
  67 H :    0.027853
  68 H :    0.031766
  69 H :    0.031688
  70 H :    0.000437
  71 H :    0.046003
  72 H :    0.025518
  73 H :    0.002482
  74 H :    0.040651
  75 H :    0.024592
  76 H :    0.023234
  77 H :    0.028151
  78 H :    0.027809
  79 H :    0.005241
  80 H :    0.039832
  81 H :    0.028583
  82 H :   -0.001683
  83 H :    0.044018
  84 H :    0.027920
  85 H :    0.025391
  86 H :    0.030490
  87 H :    0.030654
  88 H :   -0.003890
  89 H :    0.042274

  Mayer bond orders larger than 0.100000
B(  0-C ,  1-N ) :   1.1594 B(  0-C , 17-C ) :   1.5745 B(  0-C , 52-H ) :   0.9682
B(  1-N ,  8-C ) :   1.1539 B(  1-N , 10-C ) :   0.9436 B(  2-C , 12-C ) :   1.5579
B(  2-C , 16-C ) :   1.2967 B(  2-C , 53-H ) :   0.9787 B(  3-N , 14-C ) :   1.1858
B(  3-N , 16-C ) :   1.2006 B(  3-N , 61-H ) :   0.8969 B(  4-C ,  6-C ) :   1.3127
B(  4-C , 17-C ) :   1.3168 B(  4-C , 18-C ) :   1.1455 B(  5-N , 19-C ) :   1.3873
B(  5-N , 27-C ) :   1.4310 B(  6-C ,  8-C ) :   1.5787 B(  6-C , 54-H ) :   0.9712
B(  7-N , 30-C ) :   1.1873 B(  7-N , 38-C ) :   1.2102 B(  7-N , 62-H ) :   0.8999
B(  8-C , 55-H ) :   0.9693 B(  9-N , 41-C ) :   1.4220 B(  9-N , 49-C ) :   1.4047
B( 10-C , 56-H ) :   0.9763 B( 10-C , 57-H ) :   0.9816 B( 10-C , 58-H ) :   0.9823
B( 11-N , 20-C ) :   1.1123 B( 11-N , 24-C ) :   1.1335 B( 11-N , 25-C ) :   0.9588
B( 12-C , 14-C ) :   1.2976 B( 12-C , 59-H ) :   0.9779 B( 13-N , 31-C ) :   1.0999
B( 13-N , 35-C ) :   1.0900 B( 13-N , 36-C ) :   0.9728 B( 14-C , 18-C ) :   1.2356
B( 15-N , 42-C ) :   1.1226 B( 15-N , 46-C ) :   1.1020 B( 15-N , 47-C ) :   0.9640
B( 16-C , 51-C ) :   1.2251 B( 17-C , 60-H ) :   0.9713 B( 18-C , 19-C ) :   1.2691
B( 19-C , 21-C ) :   1.1869 B( 20-C , 28-C ) :   1.6228 B( 20-C , 63-H ) :   0.9705
B( 21-C , 26-C ) :   1.6618 B( 21-C , 64-H ) :   0.9734 B( 22-C , 23-C ) :   1.2703
B( 22-C , 28-C ) :   1.2808 B( 22-C , 29-C ) :   1.2413 B( 23-C , 24-C ) :   1.6240
B( 23-C , 65-H ) :   0.9716 B( 24-C , 66-H ) :   0.9689 B( 25-C , 67-H ) :   0.9763
B( 25-C , 68-H ) :   0.9831 B( 25-C , 69-H ) :   0.9819 B( 26-C , 27-C ) :   1.1898
B( 26-C , 70-H ) :   0.9745 B( 27-C , 29-C ) :   1.2341 B( 28-C , 71-H ) :   0.9711
B( 29-C , 30-C ) :   1.1941 B( 30-C , 32-C ) :   1.3319 B( 31-C , 39-C ) :   1.6612
B( 31-C , 72-H ) :   0.9704 B( 32-C , 37-C ) :   1.5269 B( 32-C , 73-H ) :   0.9773
B( 33-C , 34-C ) :   1.2513 B( 33-C , 39-C ) :   1.2431 B( 33-C , 40-C ) :   1.3086
B( 34-C , 35-C ) :   1.6588 B( 34-C , 74-H ) :   0.9708 B( 35-C , 75-H ) :   0.9704
B( 36-C , 76-H ) :   0.9758 B( 36-C , 77-H ) :   0.9824 B( 36-C , 78-H ) :   0.9835
B( 37-C , 38-C ) :   1.3296 B( 37-C , 79-H ) :   0.9787 B( 38-C , 40-C ) :   1.1929
B( 39-C , 80-H ) :   0.9719 B( 40-C , 41-C ) :   1.1893 B( 41-C , 43-C ) :   1.2396
B( 42-C , 50-C ) :   1.6371 B( 42-C , 81-H ) :   0.9696 B( 43-C , 48-C ) :   1.6114
B( 43-C , 82-H ) :   0.9747 B( 44-C , 45-C ) :   1.2769 B( 44-C , 50-C ) :   1.2582
B( 44-C , 51-C ) :   1.2522 B( 45-C , 46-C ) :   1.6318 B( 45-C , 83-H ) :   0.9706
B( 46-C , 84-H ) :   0.9706 B( 47-C , 85-H ) :   0.9761 B( 47-C , 86-H ) :   0.9827
B( 47-C , 87-H ) :   0.9828 B( 48-C , 49-C ) :   1.2360 B( 48-C , 88-H ) :   0.9730
B( 49-C , 51-C ) :   1.2006 B( 50-C , 89-H ) :   0.9718

MP2 TOTAL ENERGY:    -2130.898329736 Eh
FINAL SINGLE POINT ENERGY     -2130.898329736124

DIPOLE MOMENT
-------------
                                X             Y             Z
Electronic contribution:     -2.66657       2.41980      -0.18068
Nuclear contribution   :     -0.01346       0.17598       0.22077
                        -----------------------------------------
Total Dipole Moment    :     -2.68003       2.59578       0.04009
                        -----------------------------------------
Magnitude (a.u.)       :      3.73125
Magnitude (Debye)      :      9.48409

Rotational constants in cm-1:     0.001498     0.001473     0.000763
Rotational constants in MHz :    44.900946    44.158792    22.862876

                             ****ORCA TERMINATED NORMALLY****
TOTAL RUN TIME: 0 days 2 hours 16 minutes 27 seconds 563 msec
