                         Program Version 5.0.4 -  RELEASE  -
|  1> ! PAL2
|  2> ! mp2 cc-pvdz TightSCF  NoKeepInts
|  3>
|  4> %scf
|  5>   MaxCore 2000
|  6> end
|  7> %mp2
|  8>   MaxCore 2000
|  9> end
| 10> * xyz 0 1
| 11>    C       -4.02100         5.84400        -1.07900
| 12>    C        1.47400         4.04100         0.05700
| 13>    C       -2.80200         4.09300         0.04900
| 14>    C       -3.16800         4.69200         1.26400
| 15>    C       -3.94300         5.83400         1.26900
| 16>    C       -5.21700         7.59900         0.14900
| 17>    C        0.13200         4.30700         0.06100
| 18>    C       -0.56900         3.05600         0.04700
| 19>    C        1.64900         2.61800         0.02300
| 20>    C       -3.25200         4.69800        -1.13500
| 21>    N       -4.35500         6.39600         0.10900
| 22>    N        0.38800         2.06700         0.02500
| 23>    N       -2.01000         0.39500        -0.07500
| 24>    N       -0.38800        -2.07400        -0.02700
| 25>    N        2.01000        -0.40100         0.06500
| 26>    C       -1.96000         2.86100         0.02400
| 27>    C       -2.62300         1.61500        -0.01800
| 28>    C       -5.57300        -4.32900         1.06600
| 29>    C       -4.07300         1.47100         0.05600
| 30>    C       -4.10600        -2.75600        -0.02600
| 31>    C       -4.99500        -2.75700        -1.11100
| 32>    C       -6.13200        -3.54200        -1.07600
| 33>    C       -7.65100        -5.11300         0.04000
| 34>    C       -4.32400         0.14100         0.03700
| 35>    C       -3.02500        -0.52000        -0.04800
| 36>    C       -4.42200        -3.56600         1.07500
| 37>    N       -6.40700        -4.31300         0.00100
| 38>    C       -2.86700        -1.92200        -0.04000
| 39>    C       -1.65000        -2.62400        -0.02700
| 40>    C        3.56800        -6.14200        -1.04000
| 41>    C       -1.47600        -4.04900        -0.03400
| 42>    C        2.80300        -4.09900        -0.00800
| 43>    C        3.65700        -4.38400         1.06900
| 44>    C        4.42700        -5.53000         1.05900
| 45>    C        5.24500        -7.58800         0.01400
| 46>    C       -0.13400        -4.31500        -0.02200
| 47>    C        0.56800        -3.06400        -0.02700
| 48>    C        2.77500        -5.01200        -1.07400
| 49>    N        4.37600        -6.39100         0.01700
| 50>    C        1.95900        -2.86900        -0.00900
| 51>    C        2.62100        -1.62200         0.00900
| 52>    C        5.54300         4.33900        -1.13000
| 53>    C        4.07000        -1.47900        -0.09400
| 54>    C        4.10400         2.75100        -0.02100
| 55>    C        5.02700         2.72900         1.03600
| 56>    C        6.16600         3.50900         0.97800
| 57>    C        7.61900         5.15300        -0.11500
| 58>    C        4.32100        -0.14800        -0.09200
| 59>    C        3.02500         0.51400         0.01500
| 60>    C        4.38700         3.58200        -1.11500
| 61>    C        2.86600         1.91600         0.01300
| 62>    N        6.41300         4.29600        -0.09500
| 63>    H       -4.37900         6.35100        -1.96700
| 64>    H        2.27400         4.76600         0.08100
| 65>    H       -2.86000         4.26700         2.21200
| 66>    H       -4.25800         6.32600         2.18000
| 67>    H       -6.25900         7.28700         0.24600
| 68>    H       -4.92700         8.21000         1.00300
| 69>    H       -5.07900         8.15900        -0.77600
| 70>    H       -0.33200         5.28200         0.06900
| 71>    H       -2.99100         4.29200        -2.10500
| 72>    H        0.18200         1.07200         0.00500
| 73>    H       -0.18300        -1.08000        -0.02100
| 74>    H       -5.86400        -4.96200         1.89500
| 75>    H       -4.79400         2.27200         0.13900
| 76>    H       -4.80000        -2.16000        -1.99400
| 77>    H       -6.84100        -3.58200        -1.89300
| 78>    H       -8.42800        -4.53600         0.54600
| 79>    H       -7.95600        -5.33700        -0.98100
| 80>    H       -7.45600        -6.03700         0.58400
| 81>    H       -5.28700        -0.34400         0.10000
| 82>    H       -3.78000        -3.60100         1.94700
| 83>    H        3.58700        -6.86800        -1.84300
| 84>    H       -2.27600        -4.77400        -0.05000
| 85>    H        3.71400        -3.72400         1.92600
| 86>    H        5.09200        -5.79500         1.87100
| 87>    H        6.20500        -7.32900        -0.43900
| 88>    H        5.39300        -7.91700         1.04200
| 89>    H        4.75900        -8.37300        -0.56400
| 90>    H        0.32900        -5.29000        -0.00800
| 91>    H        2.14600        -4.84200        -1.94000
| 92>    H        5.80800         4.98600        -1.95600
| 93>    H        4.78800        -2.28100        -0.18500
| 94>    H        4.86000         2.11400         1.91200
| 95>    H        6.90100         3.53100         1.77200
| 96>    H        7.38300         6.10900         0.35600
| 97>    H        8.41400         4.65200         0.43500
| 98>    H        7.92100         5.31000        -1.15000
| 99>    H        5.28300         0.33600        -0.17900
|100>    H        3.72000         3.63200        -1.96700
|101> *
|102>
|103>                          ****END OF INPUT****

CARTESIAN COORDINATES (ANGSTROEM)
---------------------------------
  C     -4.021000    5.844000   -1.079000
  C      1.474000    4.041000    0.057000
  C     -2.802000    4.093000    0.049000
  C     -3.168000    4.692000    1.264000
  C     -3.943000    5.834000    1.269000
  C     -5.217000    7.599000    0.149000
  C      0.132000    4.307000    0.061000
  C     -0.569000    3.056000    0.047000
  C      1.649000    2.618000    0.023000
  C     -3.252000    4.698000   -1.135000
  N     -4.355000    6.396000    0.109000
  N      0.388000    2.067000    0.025000
  N     -2.010000    0.395000   -0.075000
  N     -0.388000   -2.074000   -0.027000
  N      2.010000   -0.401000    0.065000
  C     -1.960000    2.861000    0.024000
  C     -2.623000    1.615000   -0.018000
  C     -5.573000   -4.329000    1.066000
  C     -4.073000    1.471000    0.056000
  C     -4.106000   -2.756000   -0.026000
  C     -4.995000   -2.757000   -1.111000
  C     -6.132000   -3.542000   -1.076000
  C     -7.651000   -5.113000    0.040000
  C     -4.324000    0.141000    0.037000
  C     -3.025000   -0.520000   -0.048000
  C     -4.422000   -3.566000    1.075000
  N     -6.407000   -4.313000    0.001000
  C     -2.867000   -1.922000   -0.040000
  C     -1.650000   -2.624000   -0.027000
  C      3.568000   -6.142000   -1.040000
  C     -1.476000   -4.049000   -0.034000
  C      2.803000   -4.099000   -0.008000
  C      3.657000   -4.384000    1.069000
  C      4.427000   -5.530000    1.059000
  C      5.245000   -7.588000    0.014000
  C     -0.134000   -4.315000   -0.022000
  C      0.568000   -3.064000   -0.027000
  C      2.775000   -5.012000   -1.074000
  N      4.376000   -6.391000    0.017000
  C      1.959000   -2.869000   -0.009000
  C      2.621000   -1.622000    0.009000
  C      5.543000    4.339000   -1.130000
  C      4.070000   -1.479000   -0.094000
  C      4.104000    2.751000   -0.021000
  C      5.027000    2.729000    1.036000
  C      6.166000    3.509000    0.978000
  C      7.619000    5.153000   -0.115000
  C      4.321000   -0.148000   -0.092000
  C      3.025000    0.514000    0.015000
  C      4.387000    3.582000   -1.115000
  C      2.866000    1.916000    0.013000
  N      6.413000    4.296000   -0.095000
  H     -4.379000    6.351000   -1.967000
  H      2.274000    4.766000    0.081000
  H     -2.860000    4.267000    2.212000
  H     -4.258000    6.326000    2.180000
  H     -6.259000    7.287000    0.246000
  H     -4.927000    8.210000    1.003000
  H     -5.079000    8.159000   -0.776000
  H     -0.332000    5.282000    0.069000
  H     -2.991000    4.292000   -2.105000
  H      0.182000    1.072000    0.005000
  H     -0.183000   -1.080000   -0.021000
  H     -5.864000   -4.962000    1.895000
  H     -4.794000    2.272000    0.139000
  H     -4.800000   -2.160000   -1.994000
  H     -6.841000   -3.582000   -1.893000
  H     -8.428000   -4.536000    0.546000
  H     -7.956000   -5.337000   -0.981000
  H     -7.456000   -6.037000    0.584000
  H     -5.287000   -0.344000    0.100000
  H     -3.780000   -3.601000    1.947000
  H      3.587000   -6.868000   -1.843000
  H     -2.276000   -4.774000   -0.050000
  H      3.714000   -3.724000    1.926000
  H      5.092000   -5.795000    1.871000
  H      6.205000   -7.329000   -0.439000
  H      5.393000   -7.917000    1.042000
  H      4.759000   -8.373000   -0.564000
  H      0.329000   -5.290000   -0.008000
  H      2.146000   -4.842000   -1.940000
  H      5.808000    4.986000   -1.956000
  H      4.788000   -2.281000   -0.185000
  H      4.860000    2.114000    1.912000
  H      6.901000    3.531000    1.772000
  H      7.383000    6.109000    0.356000
  H      8.414000    4.652000    0.435000
  H      7.921000    5.310000   -1.150000
  H      5.283000    0.336000   -0.179000
  H      3.720000    3.632000   -1.967000

 Total Charge           Charge          ....    0
 Multiplicity           Mult            ....    1
 Number of Electrons    NEL             ....  358
 Basis Dimension        Dim             ....  918

ORBITAL ENERGIES
----------------

  NO   OCC          E(Eh)            E(eV)
   0   2.0000     -15.719041      -427.7368
   1   2.0000     -15.628753      -425.2800
   2   2.0000     -15.618385      -424.9979
   3   2.0000     -15.576902      -423.8691
   4   2.0000     -15.520533      -422.3352
   5   2.0000     -15.504284      -421.8930
   6   2.0000     -15.451352      -420.4527
   7   2.0000     -15.426775      -419.7839
   8   2.0000     -11.357288      -309.0475
   9   2.0000     -11.355291      -308.9932
  10   2.0000     -11.349770      -308.8429
  11   2.0000     -11.312860      -307.8386
  12   2.0000     -11.296550      -307.3947
  13   2.0000     -11.290879      -307.2404
  14   2.0000     -11.289482      -307.2024
  15   2.0000     -11.285966      -307.1068
  16   2.0000     -11.285855      -307.1037
  17   2.0000     -11.281274      -306.9791
  18   2.0000     -11.280655      -306.9622
  19   2.0000     -11.271160      -306.7039
  20   2.0000     -11.263375      -306.4920
  21   2.0000     -11.243432      -305.9494
  22   2.0000     -11.239661      -305.8467
  23   2.0000     -11.232499      -305.6518
  24   2.0000     -11.226993      -305.5020
  25   2.0000     -11.226093      -305.4775
  26   2.0000     -11.222695      -305.3851
  27   2.0000     -11.218752      -305.2778
  28   2.0000     -11.218464      -305.2699
  29   2.0000     -11.210965      -305.0659
  30   2.0000     -11.209224      -305.0185
  31   2.0000     -11.195286      -304.6392
  32   2.0000     -11.194103      -304.6070
  33   2.0000     -11.193040      -304.5781
  34   2.0000     -11.188476      -304.4539
  35   2.0000     -11.187719      -304.4333
  36   2.0000     -11.183469      -304.3177
  37   2.0000     -11.180128      -304.2268
  38   2.0000     -11.179963      -304.2223
  39   2.0000     -11.177620      -304.1585
  40   2.0000     -11.170049      -303.9525
  41   2.0000     -11.165004      -303.8152
  42   2.0000     -11.164955      -303.8139
  43   2.0000     -11.161818      -303.7285
  44   2.0000     -11.160380      -303.6894
  45   2.0000     -11.144509      -303.2575
  46   2.0000     -11.143870      -303.2401
  47   2.0000     -11.141010      -303.1623
  48   2.0000     -11.137494      -303.0666
  49   2.0000     -11.131108      -302.8929
  50   2.0000     -11.116494      -302.4952
  51   2.0000     -11.110900      -302.3429
  52   2.0000      -1.390995       -37.8509
  53   2.0000      -1.316959       -35.8363
  54   2.0000      -1.307414       -35.5765
  55   2.0000      -1.272134       -34.6165
  56   2.0000      -1.224268       -33.3140
  57   2.0000      -1.200384       -32.6641
  58   2.0000      -1.178043       -32.0562
  59   2.0000      -1.164641       -31.6915
  60   2.0000      -1.136774       -30.9332
  61   2.0000      -1.108882       -30.1742
  62   2.0000      -1.106250       -30.1026
  63   2.0000      -1.097177       -29.8557
  64   2.0000      -1.066279       -29.0149
  65   2.0000      -1.057038       -28.7635
  66   2.0000      -1.041404       -28.3381
  67   2.0000      -1.032360       -28.0919
  68   2.0000      -1.015167       -27.6241
  69   2.0000      -1.003947       -27.3188
  70   2.0000      -0.999334       -27.1933
  71   2.0000      -0.994801       -27.0699
  72   2.0000      -0.985394       -26.8139
  73   2.0000      -0.976242       -26.5649
  74   2.0000      -0.964325       -26.2406
  75   2.0000      -0.961603       -26.1666
  76   2.0000      -0.950821       -25.8731
  77   2.0000      -0.940451       -25.5910
  78   2.0000      -0.934702       -25.4345
  79   2.0000      -0.919686       -25.0259
  80   2.0000      -0.912278       -24.8243
  81   2.0000      -0.890955       -24.2441
  82   2.0000      -0.886574       -24.1249
  83   2.0000      -0.868486       -23.6327
  84   2.0000      -0.859879       -23.3985
  85   2.0000      -0.846498       -23.0344
  86   2.0000      -0.829065       -22.5600
  87   2.0000      -0.826646       -22.4942
  88   2.0000      -0.820198       -22.3187
  89   2.0000      -0.794338       -21.6150
  90   2.0000      -0.785808       -21.3829
  91   2.0000      -0.771867       -21.0036
  92   2.0000      -0.739653       -20.1270
  93   2.0000      -0.733520       -19.9601
  94   2.0000      -0.728728       -19.8297
  95   2.0000      -0.723805       -19.6957
  96   2.0000      -0.716360       -19.4932
  97   2.0000      -0.709268       -19.3002
  98   2.0000      -0.707265       -19.2456
  99   2.0000      -0.704468       -19.1696
 100   2.0000      -0.695776       -18.9330
 101   2.0000      -0.688255       -18.7284
 102   2.0000      -0.684134       -18.6162
 103   2.0000      -0.675445       -18.3798
 104   2.0000      -0.672583       -18.3019
 105   2.0000      -0.670718       -18.2512
 106   2.0000      -0.666840       -18.1456
 107   2.0000      -0.661777       -18.0079
 108   2.0000      -0.652146       -17.7458
 109   2.0000      -0.649017       -17.6606
 110   2.0000      -0.648366       -17.6429
 111   2.0000      -0.641906       -17.4672
 112   2.0000      -0.640377       -17.4256
 113   2.0000      -0.634289       -17.2599
 114   2.0000      -0.634057       -17.2536
 115   2.0000      -0.629361       -17.1258
 116   2.0000      -0.627017       -17.0620
 117   2.0000      -0.615026       -16.7357
 118   2.0000      -0.610845       -16.6219
 119   2.0000      -0.609103       -16.5745
 120   2.0000      -0.608547       -16.5594
 121   2.0000      -0.600544       -16.3416
 122   2.0000      -0.592193       -16.1144
 123   2.0000      -0.589242       -16.0341
 124   2.0000      -0.584184       -15.8964
 125   2.0000      -0.578338       -15.7374
 126   2.0000      -0.574849       -15.6424
 127   2.0000      -0.570696       -15.5294
 128   2.0000      -0.570164       -15.5149
 129   2.0000      -0.570056       -15.5120
 130   2.0000      -0.556313       -15.1380
 131   2.0000      -0.543221       -14.7818
 132   2.0000      -0.541879       -14.7453
 133   2.0000      -0.538558       -14.6549
 134   2.0000      -0.533541       -14.5184
 135   2.0000      -0.529202       -14.4003
 136   2.0000      -0.519285       -14.1305
 137   2.0000      -0.515651       -14.0316
 138   2.0000      -0.513539       -13.9741
 139   2.0000      -0.512281       -13.9399
 140   2.0000      -0.509856       -13.8739
 141   2.0000      -0.503247       -13.6941
 142   2.0000      -0.501138       -13.6367
 143   2.0000      -0.497504       -13.5378
 144   2.0000      -0.495247       -13.4764
 145   2.0000      -0.492889       -13.4122
 146   2.0000      -0.488616       -13.2959
 147   2.0000      -0.473406       -12.8820
 148   2.0000      -0.470306       -12.7977
 149   2.0000      -0.465816       -12.6755
 150   2.0000      -0.462746       -12.5919
 151   2.0000      -0.460066       -12.5190
 152   2.0000      -0.451941       -12.2979
 153   2.0000      -0.440918       -11.9980
 154   2.0000      -0.432742       -11.7755
 155   2.0000      -0.431008       -11.7283
 156   2.0000      -0.418245       -11.3810
 157   2.0000      -0.416599       -11.3362
 158   2.0000      -0.411154       -11.1881
 159   2.0000      -0.409539       -11.1441
 160   2.0000      -0.381613       -10.3842
 161   2.0000      -0.369306       -10.0493
 162   2.0000      -0.353493        -9.6190
 163   2.0000      -0.351770        -9.5722
 164   2.0000      -0.345497        -9.4015
 165   2.0000      -0.341621        -9.2960
 166   2.0000      -0.338002        -9.1975
 167   2.0000      -0.317186        -8.6311
 168   2.0000      -0.311855        -8.4860
 169   2.0000      -0.304727        -8.2920
 170   2.0000      -0.298134        -8.1126
 171   2.0000      -0.282440        -7.6856
 172   2.0000      -0.275658        -7.5010
 173   2.0000      -0.266514        -7.2522
 174   2.0000      -0.228879        -6.2281
 175   2.0000      -0.182989        -4.9794
 176   2.0000      -0.173159        -4.7119
 177   2.0000      -0.062604        -1.7035
 178   2.0000      -0.050809        -1.3826
 179   0.0000       0.036152         0.9837
 180   0.0000       0.054516         1.4834
 181   0.0000       0.074173         2.0183
 182   0.0000       0.098639         2.6841
 183   0.0000       0.102299         2.7837

MULLIKEN ATOMIC CHARGES
-----------------------
   0 C :    0.238779
   1 N :   -0.410435
   2 C :   -0.066506
   3 N :   -0.344331
   4 C :   -0.067765
   5 N :   -0.566040
   6 C :   -0.024379
   7 N :   -0.336831
   8 C :    0.233904
   9 N :   -0.566424
  10 C :    0.103030
  11 N :   -0.440117
  12 C :   -0.057964
  13 N :   -0.451865
  14 C :    0.218675
  15 N :   -0.441866
  16 C :    0.258201
  17 C :   -0.032180
  18 C :   -0.173819
  19 C :    0.229364
  20 C :    0.186028
  21 C :   -0.066621
  22 C :   -0.092168
  23 C :   -0.069172
  24 C :    0.217765
  25 C :    0.115145
  26 C :   -0.065001
  27 C :    0.249733
  28 C :   -0.038812
  29 C :   -0.197395
  30 C :    0.219449
  31 C :    0.186284
  32 C :   -0.064104
  33 C :   -0.104171
  34 C :   -0.050325
  35 C :    0.176265
  36 C :    0.121575
  37 C :   -0.070951
  38 C :    0.245396
  39 C :   -0.065855
  40 C :   -0.205596
  41 C :    0.215628
  42 C :    0.212568
  43 C :   -0.077828
  44 C :   -0.092844
  45 C :   -0.037131
  46 C :    0.182075
  47 C :    0.116940
  48 C :   -0.082821
  49 C :    0.206044
  50 C :   -0.068881
  51 C :   -0.188863
  52 H :    0.084133
  53 H :   -0.006208
  54 H :    0.069470
  55 H :    0.082424
  56 H :    0.087054
  57 H :    0.077802
  58 H :    0.075961
  59 H :   -0.029971
  60 H :    0.067901
  61 H :    0.177507
  62 H :    0.167371
  63 H :    0.051944
  64 H :   -0.035888
  65 H :    0.039666
  66 H :    0.054193
  67 H :    0.057394
  68 H :    0.055491
  69 H :    0.058677
  70 H :   -0.012233
  71 H :    0.046111
  72 H :    0.035858
  73 H :   -0.019478
  74 H :    0.027909
  75 H :    0.034477
  76 H :    0.044870
  77 H :    0.045038
  78 H :    0.044272
  79 H :   -0.011460
  80 H :    0.027607
  81 H :    0.049773
  82 H :   -0.023148
  83 H :    0.042361
  84 H :    0.048619
  85 H :    0.053555
  86 H :    0.056197
  87 H :    0.054073
  88 H :   -0.031265
  89 H :    0.038153
Sum of atomic charges:   -0.0000000

LOEWDIN ATOMIC CHARGES
----------------------
   0 C :    0.042610
   1 N :    0.197434
   2 C :   -0.098220
   3 N :    0.170389
   4 C :    0.124795
   5 N :   -0.148679
   6 C :   -0.008785
   7 N :    0.177411
   8 C :    0.038958
   9 N :   -0.138394
  10 C :    0.041445
  11 N :    0.138231
  12 C :   -0.095899
  13 N :    0.111159
  14 C :   -0.062950
  15 N :    0.133873
  16 C :   -0.014381
  17 C :   -0.012382
  18 C :   -0.122030
  19 C :   -0.089191
  20 C :   -0.020641
  21 C :   -0.098597
  22 C :    0.031024
  23 C :   -0.035449
  24 C :    0.007531
  25 C :    0.029016
  26 C :   -0.090753
  27 C :   -0.051294
  28 C :   -0.014556
  29 C :   -0.118495
  30 C :   -0.066960
  31 C :   -0.028606
  32 C :   -0.100340
  33 C :   -0.010033
  34 C :   -0.027283
  35 C :   -0.037580
  36 C :    0.022564
  37 C :   -0.110904
  38 C :   -0.027632
  39 C :   -0.035390
  40 C :   -0.113888
  41 C :   -0.094037
  42 C :    0.000864
  43 C :   -0.115274
  44 C :    0.025699
  45 C :   -0.013696
  46 C :   -0.025683
  47 C :    0.027988
  48 C :   -0.115927
  49 C :   -0.120006
  50 C :   -0.034731
  51 C :   -0.108188
  52 H :    0.043123
  53 H :    0.008105
  54 H :    0.056971
  55 H :    0.042688
  56 H :    0.041118
  57 H :    0.040396
  58 H :    0.040363
  59 H :   -0.000961
  60 H :    0.056048
  61 H :    0.062798
  62 H :    0.057474
  63 H :    0.028262
  64 H :   -0.005667
  65 H :    0.041139
  66 H :    0.029632
  67 H :    0.025946
  68 H :    0.030786
  69 H :    0.031103
  70 H :    0.003738
  71 H :    0.045259
  72 H :    0.021312
  73 H :    0.001675
  74 H :    0.037135
  75 H :    0.020274
  76 H :    0.019334
  77 H :    0.025431
  78 H :    0.025120
  79 H :    0.005706
  80 H :    0.036156
  81 H :    0.027748
  82 H :   -0.001391
  83 H :    0.044045
  84 H :    0.026390
  85 H :    0.023936
  86 H :    0.030252
  87 H :    0.029901
  88 H :   -0.005630
  89 H :    0.040146

  Mayer bond orders larger than 0.100000
B(  0-C ,  1-N ) :   1.2146 B(  0-C , 17-C ) :   1.5090 B(  0-C , 52-H ) :   0.9665
B(  1-N ,  8-C ) :   1.2058 B(  1-N , 10-C ) :   0.9236 B(  2-C , 12-C ) :   1.5828
B(  2-C , 16-C ) :   1.2701 B(  2-C , 53-H ) :   0.9793 B(  3-N , 14-C ) :   1.1739
B(  3-N , 16-C ) :   1.2022 B(  3-N , 61-H ) :   0.8951 B(  4-C ,  6-C ) :   1.3631
B(  4-C , 17-C ) :   1.3633 B(  4-C , 18-C ) :   1.0469 B(  5-N , 19-C ) :   1.3636
B(  5-N , 27-C ) :   1.4490 B(  6-C ,  8-C ) :   1.5109 B(  6-C , 54-H ) :   0.9704
B(  7-N , 30-C ) :   1.1832 B(  7-N , 38-C ) :   1.2164 B(  7-N , 62-H ) :   0.9015
B(  8-C , 55-H ) :   0.9675 B(  9-N , 41-C ) :   1.4354 B(  9-N , 49-C ) :   1.3925
B( 10-C , 56-H ) :   0.9767 B( 10-C , 57-H ) :   0.9806 B( 10-C , 58-H ) :   0.9815
B( 11-N , 20-C ) :   1.0954 B( 11-N , 24-C ) :   1.1346 B( 11-N , 25-C ) :   0.9626
B( 12-C , 14-C ) :   1.2706 B( 12-C , 59-H ) :   0.9768 B( 13-N , 31-C ) :   1.0810
B( 13-N , 35-C ) :   1.0702 B( 13-N , 36-C ) :   0.9832 B( 14-C , 18-C ) :   1.2652
B( 15-N , 42-C ) :   1.1263 B( 15-N , 46-C ) :   1.0879 B( 15-N , 47-C ) :   0.9667
B( 16-C , 51-C ) :   1.2506 B( 17-C , 60-H ) :   0.9709 B( 18-C , 19-C ) :   1.3145
B( 19-C , 21-C ) :   1.1605 B( 20-C , 28-C ) :   1.6296 B( 20-C , 63-H ) :   0.9710
B( 21-C , 26-C ) :   1.6844 B( 21-C , 64-H ) :   0.9716 B( 22-C , 23-C ) :   1.2542
B( 22-C , 28-C ) :   1.2799 B( 22-C , 29-C ) :   1.2571 B( 23-C , 24-C ) :   1.6357
B( 23-C , 65-H ) :   0.9723 B( 24-C , 66-H ) :   0.9691 B( 25-C , 67-H ) :   0.9762
B( 25-C , 68-H ) :   0.9834 B( 25-C , 69-H ) :   0.9818 B( 26-C , 27-C ) :   1.1701
B( 26-C , 70-H ) :   0.9758 B( 27-C , 29-C ) :   1.2438 B( 28-C , 71-H ) :   0.9709
B( 29-C , 30-C ) :   1.1743 B( 30-C , 32-C ) :   1.3518 B( 31-C , 39-C ) :   1.6867
B( 31-C , 72-H ) :   0.9709 B( 32-C , 37-C ) :   1.5084 B( 32-C , 73-H ) :   0.9771
B( 33-C , 34-C ) :   1.2312 B( 33-C , 39-C ) :   1.2232 B( 33-C , 40-C ) :   1.3619
B( 34-C , 35-C ) :   1.6853 B( 34-C , 74-H ) :   0.9709 B( 35-C , 75-H ) :   0.9709
B( 36-C , 76-H ) :   0.9755 B( 36-C , 77-H ) :   0.9826 B( 36-C , 78-H ) :   0.9838
B( 37-C , 38-C ) :   1.3450 B( 37-C , 79-H ) :   0.9793 B( 38-C , 40-C ) :   1.1778
B( 39-C , 80-H ) :   0.9721 B( 40-C , 41-C ) :   1.1662 B( 41-C , 43-C ) :   1.2586
B( 42-C , 50-C ) :   1.6429 B( 42-C , 81-H ) :   0.9696 B( 43-C , 48-C ) :   1.5924
B( 43-C , 82-H ) :   0.9757 B( 44-C , 45-C ) :   1.2810 B( 44-C , 50-C ) :   1.2479
B( 44-C , 51-C ) :   1.2474 B( 45-C , 46-C ) :   1.6334 B( 45-C , 83-H ) :   0.9702
B( 46-C , 84-H ) :   0.9709 B( 47-C , 85-H ) :   0.9759 B( 47-C , 86-H ) :   0.9826
B( 47-C , 87-H ) :   0.9830 B( 48-C , 49-C ) :   1.2528 B( 48-C , 88-H ) :   0.9725
B( 49-C , 51-C ) :   1.1873 B( 50-C , 89-H ) :   0.9723

MP2 TOTAL ENERGY:    -2130.870251730 Eh
FINAL SINGLE POINT ENERGY     -2130.870251729721

DIPOLE MOMENT
-------------
                                X             Y             Z
Electronic contribution:     -4.67458       5.48387      -0.15350
Nuclear contribution   :     -0.02630       0.16858       0.21001
                        -----------------------------------------
Total Dipole Moment    :     -4.70088       5.65245       0.05651
                        -----------------------------------------
Magnitude (a.u.)       :      7.35198
Magnitude (Debye)      :     18.68725

Rotational constants in cm-1:     0.001498     0.001472     0.000763
Rotational constants in MHz :    44.899559    44.138545    22.868772

                             ****ORCA TERMINATED NORMALLY****
TOTAL RUN TIME: 0 days 1 hours 31 minutes 48 seconds 221 msec
