                         Program Version 5.0.4 -  RELEASE  -
|  1> ! PAL2
|  2> ! mp2 cc-pvdz TightSCF  NoKeepInts
|  3>
|  4> %scf
|  5>   MaxCore 2000
|  6> end
|  7> %mp2
|  8>   MaxCore 2000
|  9> end
| 10> * xyz 0 1
| 11>    C       -4.53700         5.48800        -0.88400
| 12>    C        1.47400         4.04100         0.05700
| 13>    C       -2.80200         4.09300         0.04900
| 14>    C       -2.63700         5.05900         1.05400
| 15>    C       -3.42100         6.19500         1.05900
| 16>    C       -5.20200         7.60900         0.15300
| 17>    C        0.13200         4.30700         0.06100
| 18>    C       -0.56900         3.05600         0.04700
| 19>    C        1.64900         2.61800         0.02300
| 20>    C       -3.78000         4.33200        -0.92800
| 21>    N       -4.35200         6.39900         0.09800
| 22>    N        0.38800         2.06700         0.02500
| 23>    N       -2.01000         0.39500        -0.07500
| 24>    N       -0.38800        -2.07400        -0.02700
| 25>    N        2.01000        -0.40100         0.06500
| 26>    C       -1.96000         2.86100         0.02400
| 27>    C       -2.62300         1.61500        -0.01800
| 28>    C       -5.57300        -4.32900         1.06600
| 29>    C       -4.07300         1.47100         0.05600
| 30>    C       -4.10600        -2.75600        -0.02600
| 31>    C       -4.99500        -2.75700        -1.11100
| 32>    C       -6.13200        -3.54200        -1.07600
| 33>    C       -7.65100        -5.11300         0.04000
| 34>    C       -4.32400         0.14100         0.03700
| 35>    C       -3.02500        -0.52000        -0.04800
| 36>    C       -4.42200        -3.56600         1.07500
| 37>    N       -6.40700        -4.31300         0.00100
| 38>    C       -2.86700        -1.92200        -0.04000
| 39>    C       -1.65000        -2.62400        -0.02700
| 40>    C        3.56800        -6.14200        -1.04000
| 41>    C       -1.47600        -4.04900        -0.03400
| 42>    C        2.80300        -4.09900        -0.00800
| 43>    C        3.65700        -4.38400         1.06900
| 44>    C        4.42700        -5.53000         1.05900
| 45>    C        5.24500        -7.58800         0.01400
| 46>    C       -0.13400        -4.31500        -0.02200
| 47>    C        0.56800        -3.06400        -0.02700
| 48>    C        2.77500        -5.01200        -1.07400
| 49>    N        4.37600        -6.39100         0.01700
| 50>    C        1.95900        -2.86900        -0.00900
| 51>    C        2.62100        -1.62200         0.00900
| 52>    C        5.54300         4.33900        -1.13000
| 53>    C        4.07000        -1.47900        -0.09400
| 54>    C        4.10400         2.75100        -0.02100
| 55>    C        5.02700         2.72900         1.03600
| 56>    C        6.16600         3.50900         0.97800
| 57>    C        7.61900         5.15300        -0.11500
| 58>    C        4.32100        -0.14800        -0.09200
| 59>    C        3.02500         0.51400         0.01500
| 60>    C        4.38700         3.58200        -1.11500
| 61>    C        2.86600         1.91600         0.01300
| 62>    N        6.41300         4.29600        -0.09500
| 63>    H       -5.29300         5.71900        -1.62400
| 64>    H        2.27400         4.76600         0.08100
| 65>    H       -1.90500         4.92700         1.84100
| 66>    H       -3.33700         6.96300         1.81700
| 67>    H       -6.06200         7.41000         0.79700
| 68>    H       -4.61400         8.43300         0.55600
| 69>    H       -5.53700         7.84800        -0.85600
| 70>    H       -0.33200         5.28200         0.06900
| 71>    H       -3.94600         3.63100        -1.73800
| 72>    H        0.18200         1.07200         0.00500
| 73>    H       -0.18300        -1.08000        -0.02100
| 74>    H       -5.86400        -4.96200         1.89500
| 75>    H       -4.79400         2.27200         0.13900
| 76>    H       -4.80000        -2.16000        -1.99400
| 77>    H       -6.84100        -3.58200        -1.89300
| 78>    H       -8.42800        -4.53600         0.54600
| 79>    H       -7.95600        -5.33700        -0.98100
| 80>    H       -7.45600        -6.03700         0.58400
| 81>    H       -5.28700        -0.34400         0.10000
| 82>    H       -3.78000        -3.60100         1.94700
| 83>    H        3.58700        -6.86800        -1.84300
| 84>    H       -2.27600        -4.77400        -0.05000
| 85>    H        3.71400        -3.72400         1.92600
| 86>    H        5.09200        -5.79500         1.87100
| 87>    H        6.20500        -7.32900        -0.43900
| 88>    H        5.39300        -7.91700         1.04200
| 89>    H        4.75900        -8.37300        -0.56400
| 90>    H        0.32900        -5.29000        -0.00800
| 91>    H        2.14600        -4.84200        -1.94000
| 92>    H        5.80800         4.98600        -1.95600
| 93>    H        4.78800        -2.28100        -0.18500
| 94>    H        4.86000         2.11400         1.91200
| 95>    H        6.90100         3.53100         1.77200
| 96>    H        7.38300         6.10900         0.35600
| 97>    H        8.41400         4.65200         0.43500
| 98>    H        7.92100         5.31000        -1.15000
| 99>    H        5.28300         0.33600        -0.17900
|100>    H        3.72000         3.63200        -1.96700
|101> *
|102>
|103>                          ****END OF INPUT****

CARTESIAN COORDINATES (ANGSTROEM)
---------------------------------
  C     -4.537000    5.488000   -0.884000
  C      1.474000    4.041000    0.057000
  C     -2.802000    4.093000    0.049000
  C     -2.637000    5.059000    1.054000
  C     -3.421000    6.195000    1.059000
  C     -5.202000    7.609000    0.153000
  C      0.132000    4.307000    0.061000
  C     -0.569000    3.056000    0.047000
  C      1.649000    2.618000    0.023000
  C     -3.780000    4.332000   -0.928000
  N     -4.352000    6.399000    0.098000
  N      0.388000    2.067000    0.025000
  N     -2.010000    0.395000   -0.075000
  N     -0.388000   -2.074000   -0.027000
  N      2.010000   -0.401000    0.065000
  C     -1.960000    2.861000    0.024000
  C     -2.623000    1.615000   -0.018000
  C     -5.573000   -4.329000    1.066000
  C     -4.073000    1.471000    0.056000
  C     -4.106000   -2.756000   -0.026000
  C     -4.995000   -2.757000   -1.111000
  C     -6.132000   -3.542000   -1.076000
  C     -7.651000   -5.113000    0.040000
  C     -4.324000    0.141000    0.037000
  C     -3.025000   -0.520000   -0.048000
  C     -4.422000   -3.566000    1.075000
  N     -6.407000   -4.313000    0.001000
  C     -2.867000   -1.922000   -0.040000
  C     -1.650000   -2.624000   -0.027000
  C      3.568000   -6.142000   -1.040000
  C     -1.476000   -4.049000   -0.034000
  C      2.803000   -4.099000   -0.008000
  C      3.657000   -4.384000    1.069000
  C      4.427000   -5.530000    1.059000
  C      5.245000   -7.588000    0.014000
  C     -0.134000   -4.315000   -0.022000
  C      0.568000   -3.064000   -0.027000
  C      2.775000   -5.012000   -1.074000
  N      4.376000   -6.391000    0.017000
  C      1.959000   -2.869000   -0.009000
  C      2.621000   -1.622000    0.009000
  C      5.543000    4.339000   -1.130000
  C      4.070000   -1.479000   -0.094000
  C      4.104000    2.751000   -0.021000
  C      5.027000    2.729000    1.036000
  C      6.166000    3.509000    0.978000
  C      7.619000    5.153000   -0.115000
  C      4.321000   -0.148000   -0.092000
  C      3.025000    0.514000    0.015000
  C      4.387000    3.582000   -1.115000
  C      2.866000    1.916000    0.013000
  N      6.413000    4.296000   -0.095000
  H     -5.293000    5.719000   -1.624000
  H      2.274000    4.766000    0.081000
  H     -1.905000    4.927000    1.841000
  H     -3.337000    6.963000    1.817000
  H     -6.062000    7.410000    0.797000
  H     -4.614000    8.433000    0.556000
  H     -5.537000    7.848000   -0.856000
  H     -0.332000    5.282000    0.069000
  H     -3.946000    3.631000   -1.738000
  H      0.182000    1.072000    0.005000
  H     -0.183000   -1.080000   -0.021000
  H     -5.864000   -4.962000    1.895000
  H     -4.794000    2.272000    0.139000
  H     -4.800000   -2.160000   -1.994000
  H     -6.841000   -3.582000   -1.893000
  H     -8.428000   -4.536000    0.546000
  H     -7.956000   -5.337000   -0.981000
  H     -7.456000   -6.037000    0.584000
  H     -5.287000   -0.344000    0.100000
  H     -3.780000   -3.601000    1.947000
  H      3.587000   -6.868000   -1.843000
  H     -2.276000   -4.774000   -0.050000
  H      3.714000   -3.724000    1.926000
  H      5.092000   -5.795000    1.871000
  H      6.205000   -7.329000   -0.439000
  H      5.393000   -7.917000    1.042000
  H      4.759000   -8.373000   -0.564000
  H      0.329000   -5.290000   -0.008000
  H      2.146000   -4.842000   -1.940000
  H      5.808000    4.986000   -1.956000
  H      4.788000   -2.281000   -0.185000
  H      4.860000    2.114000    1.912000
  H      6.901000    3.531000    1.772000
  H      7.383000    6.109000    0.356000
  H      8.414000    4.652000    0.435000
  H      7.921000    5.310000   -1.150000
  H      5.283000    0.336000   -0.179000
  H      3.720000    3.632000   -1.967000

 Total Charge           Charge          ....    0
 Multiplicity           Mult            ....    1
 Number of Electrons    NEL             ....  358
 Basis Dimension        Dim             ....  918

ORBITAL ENERGIES
----------------

  NO   OCC          E(Eh)            E(eV)
   0   2.0000     -15.646966      -425.7756
   1   2.0000     -15.639700      -425.5779
   2   2.0000     -15.628467      -425.2722
   3   2.0000     -15.615386      -424.9163
   4   2.0000     -15.520461      -422.3332
   5   2.0000     -15.515546      -422.1995
   6   2.0000     -15.445646      -420.2974
   7   2.0000     -15.443938      -420.2509
   8   2.0000     -11.307561      -307.6944
   9   2.0000     -11.302795      -307.5647
  10   2.0000     -11.302548      -307.5580
  11   2.0000     -11.299919      -307.4864
  12   2.0000     -11.295912      -307.3774
  13   2.0000     -11.295670      -307.3708
  14   2.0000     -11.293660      -307.3161
  15   2.0000     -11.288521      -307.1763
  16   2.0000     -11.286185      -307.1127
  17   2.0000     -11.284898      -307.0777
  18   2.0000     -11.276177      -306.8404
  19   2.0000     -11.275507      -306.8221
  20   2.0000     -11.250995      -306.1551
  21   2.0000     -11.243089      -305.9400
  22   2.0000     -11.240011      -305.8562
  23   2.0000     -11.239125      -305.8321
  24   2.0000     -11.234934      -305.7181
  25   2.0000     -11.234318      -305.7013
  26   2.0000     -11.232904      -305.6629
  27   2.0000     -11.226576      -305.4907
  28   2.0000     -11.226429      -305.4867
  29   2.0000     -11.222888      -305.3903
  30   2.0000     -11.217253      -305.2370
  31   2.0000     -11.216731      -305.2228
  32   2.0000     -11.203039      -304.8502
  33   2.0000     -11.202335      -304.8310
  34   2.0000     -11.192868      -304.5734
  35   2.0000     -11.192407      -304.5609
  36   2.0000     -11.175884      -304.1113
  37   2.0000     -11.173939      -304.0583
  38   2.0000     -11.173846      -304.0558
  39   2.0000     -11.173061      -304.0345
  40   2.0000     -11.168472      -303.9096
  41   2.0000     -11.167904      -303.8941
  42   2.0000     -11.166814      -303.8645
  43   2.0000     -11.164635      -303.8052
  44   2.0000     -11.163029      -303.7615
  45   2.0000     -11.161558      -303.7214
  46   2.0000     -11.151369      -303.4442
  47   2.0000     -11.149149      -303.3838
  48   2.0000     -11.146169      -303.3027
  49   2.0000     -11.143555      -303.2315
  50   2.0000     -11.140370      -303.1449
  51   2.0000     -11.137062      -303.0549
  52   2.0000      -1.332366       -36.2555
  53   2.0000      -1.326082       -36.0845
  54   2.0000      -1.316427       -35.8218
  55   2.0000      -1.306008       -35.5383
  56   2.0000      -1.219689       -33.1894
  57   2.0000      -1.211891       -32.9772
  58   2.0000      -1.162661       -31.6376
  59   2.0000      -1.156797       -31.4780
  60   2.0000      -1.119954       -30.4755
  61   2.0000      -1.113937       -30.3118
  62   2.0000      -1.105638       -30.0859
  63   2.0000      -1.097251       -29.8577
  64   2.0000      -1.055974       -28.7345
  65   2.0000      -1.049908       -28.5695
  66   2.0000      -1.041047       -28.3283
  67   2.0000      -1.031753       -28.0754
  68   2.0000      -1.028060       -27.9749
  69   2.0000      -1.011118       -27.5139
  70   2.0000      -1.009293       -27.4643
  71   2.0000      -0.996403       -27.1135
  72   2.0000      -0.984060       -26.7776
  73   2.0000      -0.974817       -26.5261
  74   2.0000      -0.970908       -26.4198
  75   2.0000      -0.959147       -26.0997
  76   2.0000      -0.952261       -25.9123
  77   2.0000      -0.944050       -25.6889
  78   2.0000      -0.939490       -25.5648
  79   2.0000      -0.923101       -25.1189
  80   2.0000      -0.894022       -24.3276
  81   2.0000      -0.881931       -23.9986
  82   2.0000      -0.876533       -23.8517
  83   2.0000      -0.868558       -23.6347
  84   2.0000      -0.862436       -23.4681
  85   2.0000      -0.856608       -23.3095
  86   2.0000      -0.848540       -23.0900
  87   2.0000      -0.842650       -22.9297
  88   2.0000      -0.821696       -22.3595
  89   2.0000      -0.798646       -21.7322
  90   2.0000      -0.797319       -21.6962
  91   2.0000      -0.739943       -20.1349
  92   2.0000      -0.731615       -19.9083
  93   2.0000      -0.729788       -19.8586
  94   2.0000      -0.721541       -19.6341
  95   2.0000      -0.719646       -19.5826
  96   2.0000      -0.712356       -19.3842
  97   2.0000      -0.707608       -19.2550
  98   2.0000      -0.699223       -19.0268
  99   2.0000      -0.693759       -18.8781
 100   2.0000      -0.686569       -18.6825
 101   2.0000      -0.681013       -18.5313
 102   2.0000      -0.679305       -18.4848
 103   2.0000      -0.673116       -18.3164
 104   2.0000      -0.668951       -18.2031
 105   2.0000      -0.665302       -18.1038
 106   2.0000      -0.662961       -18.0401
 107   2.0000      -0.660873       -17.9833
 108   2.0000      -0.657714       -17.8973
 109   2.0000      -0.657120       -17.8811
 110   2.0000      -0.651969       -17.7410
 111   2.0000      -0.649760       -17.6809
 112   2.0000      -0.645997       -17.5785
 113   2.0000      -0.641225       -17.4486
 114   2.0000      -0.634928       -17.2773
 115   2.0000      -0.622831       -16.9481
 116   2.0000      -0.622107       -16.9284
 117   2.0000      -0.616649       -16.7799
 118   2.0000      -0.611106       -16.6290
 119   2.0000      -0.609632       -16.5889
 120   2.0000      -0.608200       -16.5500
 121   2.0000      -0.603605       -16.4249
 122   2.0000      -0.599270       -16.3070
 123   2.0000      -0.592509       -16.1230
 124   2.0000      -0.590290       -16.0626
 125   2.0000      -0.585306       -15.9270
 126   2.0000      -0.578194       -15.7335
 127   2.0000      -0.573440       -15.6041
 128   2.0000      -0.569811       -15.5054
 129   2.0000      -0.560026       -15.2391
 130   2.0000      -0.553834       -15.0706
 131   2.0000      -0.545826       -14.8527
 132   2.0000      -0.541785       -14.7427
 133   2.0000      -0.535902       -14.5826
 134   2.0000      -0.533842       -14.5266
 135   2.0000      -0.529032       -14.3957
 136   2.0000      -0.524937       -14.2843
 137   2.0000      -0.522437       -14.2162
 138   2.0000      -0.519825       -14.1452
 139   2.0000      -0.517197       -14.0736
 140   2.0000      -0.509387       -13.8611
 141   2.0000      -0.506007       -13.7691
 142   2.0000      -0.505066       -13.7435
 143   2.0000      -0.501728       -13.6527
 144   2.0000      -0.499972       -13.6049
 145   2.0000      -0.498488       -13.5646
 146   2.0000      -0.495417       -13.4810
 147   2.0000      -0.492332       -13.3970
 148   2.0000      -0.490125       -13.3370
 149   2.0000      -0.469190       -12.7673
 150   2.0000      -0.460957       -12.5433
 151   2.0000      -0.452109       -12.3025
 152   2.0000      -0.448483       -12.2038
 153   2.0000      -0.446212       -12.1420
 154   2.0000      -0.445611       -12.1257
 155   2.0000      -0.439091       -11.9483
 156   2.0000      -0.435426       -11.8485
 157   2.0000      -0.431479       -11.7412
 158   2.0000      -0.392764       -10.6877
 159   2.0000      -0.382696       -10.4137
 160   2.0000      -0.379719       -10.3327
 161   2.0000      -0.372196       -10.1280
 162   2.0000      -0.365460        -9.9447
 163   2.0000      -0.360208        -9.8018
 164   2.0000      -0.352791        -9.5999
 165   2.0000      -0.344401        -9.3716
 166   2.0000      -0.337206        -9.1758
 167   2.0000      -0.333178        -9.0662
 168   2.0000      -0.329394        -8.9633
 169   2.0000      -0.300147        -8.1674
 170   2.0000      -0.297523        -8.0960
 171   2.0000      -0.288269        -7.8442
 172   2.0000      -0.286934        -7.8079
 173   2.0000      -0.255587        -6.9549
 174   2.0000      -0.247832        -6.7438
 175   2.0000      -0.188399        -5.1266
 176   2.0000      -0.178330        -4.8526
 177   2.0000      -0.067613        -1.8398
 178   2.0000      -0.055290        -1.5045
 179   0.0000       0.030454         0.8287
 180   0.0000       0.070218         1.9107
 181   0.0000       0.093029         2.5315
 182   0.0000       0.098881         2.6907
 183   0.0000       0.128673         3.5014

MULLIKEN ATOMIC CHARGES
-----------------------
   0 C :    0.204400
   1 N :   -0.446099
   2 C :   -0.064555
   3 N :   -0.337065
   4 C :   -0.068174
   5 N :   -0.561596
   6 C :   -0.075956
   7 N :   -0.338752
   8 C :    0.203171
   9 N :   -0.562885
  10 C :    0.116122
  11 N :   -0.437221
  12 C :   -0.072372
  13 N :   -0.437058
  14 C :    0.235200
  15 N :   -0.440964
  16 C :    0.232985
  17 C :   -0.075683
  18 C :   -0.193765
  19 C :    0.224109
  20 C :    0.210487
  21 C :   -0.079557
  22 C :   -0.086359
  23 C :   -0.046445
  24 C :    0.203628
  25 C :    0.113745
  26 C :   -0.073431
  27 C :    0.219223
  28 C :   -0.054452
  29 C :   -0.183447
  30 C :    0.238173
  31 C :    0.216619
  32 C :   -0.063894
  33 C :   -0.075875
  34 C :   -0.049628
  35 C :    0.209951
  36 C :    0.112565
  37 C :   -0.065958
  38 C :    0.236120
  39 C :   -0.060993
  40 C :   -0.186640
  41 C :    0.221207
  42 C :    0.201192
  43 C :   -0.073564
  44 C :   -0.089657
  45 C :   -0.055271
  46 C :    0.205095
  47 C :    0.115668
  48 C :   -0.073029
  49 C :    0.229099
  50 C :   -0.051020
  51 C :   -0.190959
  52 H :    0.049732
  53 H :   -0.014804
  54 H :    0.046220
  55 H :    0.048467
  56 H :    0.056137
  57 H :    0.053755
  58 H :    0.053040
  59 H :   -0.008920
  60 H :    0.044105
  61 H :    0.172155
  62 H :    0.173717
  63 H :    0.057180
  64 H :   -0.016345
  65 H :    0.046828
  66 H :    0.057693
  67 H :    0.063492
  68 H :    0.058288
  69 H :    0.058718
  70 H :   -0.025681
  71 H :    0.047984
  72 H :    0.060364
  73 H :   -0.012480
  74 H :    0.050359
  75 H :    0.059432
  76 H :    0.065417
  77 H :    0.060725
  78 H :    0.059886
  79 H :   -0.014245
  80 H :    0.050701
  81 H :    0.053561
  82 H :   -0.024312
  83 H :    0.042272
  84 H :    0.053012
  85 H :    0.059166
  86 H :    0.055846
  87 H :    0.056670
  88 H :   -0.020046
  89 H :    0.045476
Sum of atomic charges:    0.0000000

LOEWDIN ATOMIC CHARGES
----------------------
   0 C :   -0.010570
   1 N :    0.129302
   2 C :   -0.100695
   3 N :    0.179622
   4 C :    0.020997
   5 N :   -0.135489
   6 C :   -0.027610
   7 N :    0.176903
   8 C :   -0.011903
   9 N :   -0.139234
  10 C :    0.027196
  11 N :    0.145180
  12 C :   -0.102919
  13 N :    0.148250
  14 C :   -0.041567
  15 N :    0.138113
  16 C :   -0.050103
  17 C :   -0.028774
  18 C :   -0.105743
  19 C :   -0.086874
  20 C :    0.002900
  21 C :   -0.106364
  22 C :    0.043366
  23 C :   -0.018659
  24 C :   -0.003031
  25 C :    0.030553
  26 C :   -0.104968
  27 C :   -0.101210
  28 C :   -0.022203
  29 C :   -0.104391
  30 C :   -0.042099
  31 C :    0.008011
  32 C :   -0.097166
  33 C :    0.051490
  34 C :   -0.018049
  35 C :    0.002326
  36 C :    0.031159
  37 C :   -0.098982
  38 C :   -0.043328
  39 C :   -0.023525
  40 C :   -0.108456
  41 C :   -0.094493
  42 C :   -0.007319
  43 C :   -0.103743
  44 C :    0.033004
  45 C :   -0.024291
  46 C :   -0.003961
  47 C :    0.029214
  48 C :   -0.102805
  49 C :   -0.084120
  50 C :   -0.021908
  51 C :   -0.109124
  52 H :    0.027366
  53 H :    0.003968
  54 H :    0.042250
  55 H :    0.027456
  56 H :    0.025090
  57 H :    0.028986
  58 H :    0.029696
  59 H :    0.005589
  60 H :    0.041944
  61 H :    0.060307
  62 H :    0.060932
  63 H :    0.031407
  64 H :    0.000537
  65 H :    0.045459
  66 H :    0.030488
  67 H :    0.028829
  68 H :    0.032109
  69 H :    0.031340
  70 H :   -0.002740
  71 H :    0.045232
  72 H :    0.032604
  73 H :    0.004963
  74 H :    0.046509
  75 H :    0.031905
  76 H :    0.029870
  77 H :    0.032763
  78 H :    0.032403
  79 H :    0.004148
  80 H :    0.046059
  81 H :    0.028884
  82 H :   -0.002316
  83 H :    0.043012
  84 H :    0.029137
  85 H :    0.026591
  86 H :    0.030261
  87 H :    0.031143
  88 H :   -0.000261
  89 H :    0.044167

  Mayer bond orders larger than 0.100000
B(  0-C ,  1-N ) :   1.1062 B(  0-C , 17-C ) :   1.6584 B(  0-C , 52-H ) :   0.9691
B(  1-N ,  8-C ) :   1.1025 B(  1-N , 10-C ) :   0.9677 B(  2-C , 12-C ) :   1.5297
B(  2-C , 16-C ) :   1.3312 B(  2-C , 53-H ) :   0.9775 B(  3-N , 14-C ) :   1.2080
B(  3-N , 16-C ) :   1.1941 B(  3-N , 61-H ) :   0.8988 B(  4-C ,  6-C ) :   1.2437
B(  4-C , 17-C ) :   1.2469 B(  4-C , 18-C ) :   1.3208 B(  5-N , 19-C ) :   1.4304
B(  5-N , 27-C ) :   1.3970 B(  6-C ,  8-C ) :   1.6612 B(  6-C , 54-H ) :   0.9701
B(  7-N , 30-C ) :   1.1928 B(  7-N , 38-C ) :   1.1992 B(  7-N , 62-H ) :   0.8978
B(  8-C , 55-H ) :   0.9702 B(  9-N , 41-C ) :   1.4026 B(  9-N , 49-C ) :   1.4206
B( 10-C , 56-H ) :   0.9764 B( 10-C , 57-H ) :   0.9827 B( 10-C , 58-H ) :   0.9832
B( 11-N , 20-C ) :   1.1281 B( 11-N , 24-C ) :   1.1206 B( 11-N , 25-C ) :   0.9578
B( 12-C , 14-C ) :   1.3336 B( 12-C , 59-H ) :   0.9763 B( 13-N , 31-C ) :   1.1345
B( 13-N , 35-C ) :   1.1272 B( 13-N , 36-C ) :   0.9549 B( 14-C , 18-C ) :   1.1782
B( 15-N , 42-C ) :   1.1126 B( 15-N , 46-C ) :   1.1164 B( 15-N , 47-C ) :   0.9624
B( 16-C , 51-C ) :   1.1930 B( 17-C , 60-H ) :   0.9698 B( 18-C , 19-C ) :   1.1899
B( 19-C , 21-C ) :   1.2219 B( 20-C , 28-C ) :   1.6224 B( 20-C , 63-H ) :   0.9702
B( 21-C , 26-C ) :   1.6347 B( 21-C , 64-H ) :   0.9727 B( 22-C , 23-C ) :   1.2870
B( 22-C , 28-C ) :   1.2737 B( 22-C , 29-C ) :   1.2239 B( 23-C , 24-C ) :   1.6164
B( 23-C , 65-H ) :   0.9708 B( 24-C , 66-H ) :   0.9692 B( 25-C , 67-H ) :   0.9761
B( 25-C , 68-H ) :   0.9829 B( 25-C , 69-H ) :   0.9821 B( 26-C , 27-C ) :   1.2174
B( 26-C , 70-H ) :   0.9727 B( 27-C , 29-C ) :   1.2252 B( 28-C , 71-H ) :   0.9715
B( 29-C , 30-C ) :   1.2220 B( 30-C , 32-C ) :   1.3018 B( 31-C , 39-C ) :   1.6194
B( 31-C , 72-H ) :   0.9692 B( 32-C , 37-C ) :   1.5568 B( 32-C , 73-H ) :   0.9780
B( 33-C , 34-C ) :   1.2844 B( 33-C , 39-C ) :   1.2770 B( 33-C , 40-C ) :   1.2285
B( 34-C , 35-C ) :   1.6161 B( 34-C , 74-H ) :   0.9702 B( 35-C , 75-H ) :   0.9693
B( 36-C , 76-H ) :   0.9764 B( 36-C , 77-H ) :   0.9819 B( 36-C , 78-H ) :   0.9829
B( 37-C , 38-C ) :   1.3040 B( 37-C , 79-H ) :   0.9775 B( 38-C , 40-C ) :   1.2163
B( 39-C , 80-H ) :   0.9713 B( 40-C , 41-C ) :   1.2263 B( 41-C , 43-C ) :   1.2081
B( 42-C , 50-C ) :   1.6344 B( 42-C , 81-H ) :   0.9696 B( 43-C , 48-C ) :   1.6433
B( 43-C , 82-H ) :   0.9732 B( 44-C , 45-C ) :   1.2677 B( 44-C , 50-C ) :   1.2677
B( 44-C , 51-C ) :   1.2592 B( 45-C , 46-C ) :   1.6342 B( 45-C , 83-H ) :   0.9714
B( 46-C , 84-H ) :   0.9702 B( 47-C , 85-H ) :   0.9761 B( 47-C , 86-H ) :   0.9828
B( 47-C , 87-H ) :   0.9826 B( 48-C , 49-C ) :   1.2091 B( 48-C , 88-H ) :   0.9741
B( 49-C , 51-C ) :   1.2219 B( 50-C , 89-H ) :   0.9712

MP2 TOTAL ENERGY:    -2130.916045998 Eh
FINAL SINGLE POINT ENERGY     -2130.916045997595

DIPOLE MOMENT
-------------
                                X             Y             Z
Electronic contribution:      0.44278      -1.83163      -0.21099
Nuclear contribution   :      0.00858       0.19080       0.22689
                        -----------------------------------------
Total Dipole Moment    :      0.45135      -1.64083       0.01590
                        -----------------------------------------
Magnitude (a.u.)       :      1.70185
Magnitude (Debye)      :      4.32575

Rotational constants in cm-1:     0.001498     0.001475     0.000762
Rotational constants in MHz :    44.922718    44.220886    22.840576

                             ****ORCA TERMINATED NORMALLY****
TOTAL RUN TIME: 0 days 1 hours 8 minutes 32 seconds 88 msec
