                         Program Version 5.0.4 -  RELEASE  -
|  1> ! PAL2
|  2> ! mp2 cc-pvdz TightSCF  NoKeepInts
|  3>
|  4> %scf
|  5>   MaxCore 2000
|  6> end
|  7> %mp2
|  8>   MaxCore 2000
|  9> end
| 10> * xyz 0 1
| 11>    C       -4.54100         5.48400        -0.88000
| 12>    C        1.47400         4.04100         0.05700
| 13>    C       -2.80200         4.09300         0.04900
| 14>    C       -2.63200         5.06200         1.05000
| 15>    C       -3.41600         6.19900         1.05500
| 16>    C       -5.20200         7.60900         0.15300
| 17>    C        0.13200         4.30700         0.06100
| 18>    C       -0.56900         3.05600         0.04700
| 19>    C        1.64900         2.61800         0.02300
| 20>    C       -3.78500         4.32900        -0.92400
| 21>    N       -4.35200         6.39900         0.09700
| 22>    N        0.38800         2.06700         0.02500
| 23>    N       -2.01000         0.39500        -0.07500
| 24>    N       -0.38800        -2.07400        -0.02700
| 25>    N        2.01000        -0.40100         0.06500
| 26>    C       -1.96000         2.86100         0.02400
| 27>    C       -2.62300         1.61500        -0.01800
| 28>    C       -5.57300        -4.32900         1.06600
| 29>    C       -4.07300         1.47100         0.05600
| 30>    C       -4.10600        -2.75600        -0.02600
| 31>    C       -4.99500        -2.75700        -1.11100
| 32>    C       -6.13200        -3.54200        -1.07600
| 33>    C       -7.65100        -5.11300         0.04000
| 34>    C       -4.32400         0.14100         0.03700
| 35>    C       -3.02500        -0.52000        -0.04800
| 36>    C       -4.42200        -3.56600         1.07500
| 37>    N       -6.40700        -4.31300         0.00100
| 38>    C       -2.86700        -1.92200        -0.04000
| 39>    C       -1.65000        -2.62400        -0.02700
| 40>    C        3.56800        -6.14200        -1.04000
| 41>    C       -1.47600        -4.04900        -0.03400
| 42>    C        2.80300        -4.09900        -0.00800
| 43>    C        3.65700        -4.38400         1.06900
| 44>    C        4.42700        -5.53000         1.05900
| 45>    C        5.24500        -7.58800         0.01400
| 46>    C       -0.13400        -4.31500        -0.02200
| 47>    C        0.56800        -3.06400        -0.02700
| 48>    C        2.77500        -5.01200        -1.07400
| 49>    N        4.37600        -6.39100         0.01700
| 50>    C        1.95900        -2.86900        -0.00900
| 51>    C        2.62100        -1.62200         0.00900
| 52>    C        5.54300         4.33900        -1.13000
| 53>    C        4.07000        -1.47900        -0.09400
| 54>    C        4.10400         2.75100        -0.02100
| 55>    C        5.02700         2.72900         1.03600
| 56>    C        6.16600         3.50900         0.97800
| 57>    C        7.61900         5.15300        -0.11500
| 58>    C        4.32100        -0.14800        -0.09200
| 59>    C        3.02500         0.51400         0.01500
| 60>    C        4.38700         3.58200        -1.11500
| 61>    C        2.86600         1.91600         0.01300
| 62>    N        6.41300         4.29600        -0.09500
| 63>    H       -5.30200         5.71300        -1.61700
| 64>    H        2.27400         4.76600         0.08100
| 65>    H       -1.89600         4.93300         1.83400
| 66>    H       -3.32800         6.96900         1.81000
| 67>    H       -6.05800         7.41300         0.80200
| 68>    H       -4.61200         8.43500         0.55000
| 69>    H       -5.54200         7.84400        -0.85500
| 70>    H       -0.33200         5.28200         0.06900
| 71>    H       -3.95500         3.62500        -1.73100
| 72>    H        0.18200         1.07200         0.00500
| 73>    H       -0.18300        -1.08000        -0.02100
| 74>    H       -5.86400        -4.96200         1.89500
| 75>    H       -4.79400         2.27200         0.13900
| 76>    H       -4.80000        -2.16000        -1.99400
| 77>    H       -6.84100        -3.58200        -1.89300
| 78>    H       -8.42800        -4.53600         0.54600
| 79>    H       -7.95600        -5.33700        -0.98100
| 80>    H       -7.45600        -6.03700         0.58400
| 81>    H       -5.28700        -0.34400         0.10000
| 82>    H       -3.78000        -3.60100         1.94700
| 83>    H        3.58700        -6.86800        -1.84300
| 84>    H       -2.27600        -4.77400        -0.05000
| 85>    H        3.71400        -3.72400         1.92600
| 86>    H        5.09200        -5.79500         1.87100
| 87>    H        6.20500        -7.32900        -0.43900
| 88>    H        5.39300        -7.91700         1.04200
| 89>    H        4.75900        -8.37300        -0.56400
| 90>    H        0.32900        -5.29000        -0.00800
| 91>    H        2.14600        -4.84200        -1.94000
| 92>    H        5.80800         4.98600        -1.95600
| 93>    H        4.78800        -2.28100        -0.18500
| 94>    H        4.86000         2.11400         1.91200
| 95>    H        6.90100         3.53100         1.77200
| 96>    H        7.38300         6.10900         0.35600
| 97>    H        8.41400         4.65200         0.43500
| 98>    H        7.92100         5.31000        -1.15000
| 99>    H        5.28300         0.33600        -0.17900
|100>    H        3.72000         3.63200        -1.96700
|101> *
|102>
|103>                          ****END OF INPUT****

CARTESIAN COORDINATES (ANGSTROEM)
---------------------------------
  C     -4.541000    5.484000   -0.880000
  C      1.474000    4.041000    0.057000
  C     -2.802000    4.093000    0.049000
  C     -2.632000    5.062000    1.050000
  C     -3.416000    6.199000    1.055000
  C     -5.202000    7.609000    0.153000
  C      0.132000    4.307000    0.061000
  C     -0.569000    3.056000    0.047000
  C      1.649000    2.618000    0.023000
  C     -3.785000    4.329000   -0.924000
  N     -4.352000    6.399000    0.097000
  N      0.388000    2.067000    0.025000
  N     -2.010000    0.395000   -0.075000
  N     -0.388000   -2.074000   -0.027000
  N      2.010000   -0.401000    0.065000
  C     -1.960000    2.861000    0.024000
  C     -2.623000    1.615000   -0.018000
  C     -5.573000   -4.329000    1.066000
  C     -4.073000    1.471000    0.056000
  C     -4.106000   -2.756000   -0.026000
  C     -4.995000   -2.757000   -1.111000
  C     -6.132000   -3.542000   -1.076000
  C     -7.651000   -5.113000    0.040000
  C     -4.324000    0.141000    0.037000
  C     -3.025000   -0.520000   -0.048000
  C     -4.422000   -3.566000    1.075000
  N     -6.407000   -4.313000    0.001000
  C     -2.867000   -1.922000   -0.040000
  C     -1.650000   -2.624000   -0.027000
  C      3.568000   -6.142000   -1.040000
  C     -1.476000   -4.049000   -0.034000
  C      2.803000   -4.099000   -0.008000
  C      3.657000   -4.384000    1.069000
  C      4.427000   -5.530000    1.059000
  C      5.245000   -7.588000    0.014000
  C     -0.134000   -4.315000   -0.022000
  C      0.568000   -3.064000   -0.027000
  C      2.775000   -5.012000   -1.074000
  N      4.376000   -6.391000    0.017000
  C      1.959000   -2.869000   -0.009000
  C      2.621000   -1.622000    0.009000
  C      5.543000    4.339000   -1.130000
  C      4.070000   -1.479000   -0.094000
  C      4.104000    2.751000   -0.021000
  C      5.027000    2.729000    1.036000
  C      6.166000    3.509000    0.978000
  C      7.619000    5.153000   -0.115000
  C      4.321000   -0.148000   -0.092000
  C      3.025000    0.514000    0.015000
  C      4.387000    3.582000   -1.115000
  C      2.866000    1.916000    0.013000
  N      6.413000    4.296000   -0.095000
  H     -5.302000    5.713000   -1.617000
  H      2.274000    4.766000    0.081000
  H     -1.896000    4.933000    1.834000
  H     -3.328000    6.969000    1.810000
  H     -6.058000    7.413000    0.802000
  H     -4.612000    8.435000    0.550000
  H     -5.542000    7.844000   -0.855000
  H     -0.332000    5.282000    0.069000
  H     -3.955000    3.625000   -1.731000
  H      0.182000    1.072000    0.005000
  H     -0.183000   -1.080000   -0.021000
  H     -5.864000   -4.962000    1.895000
  H     -4.794000    2.272000    0.139000
  H     -4.800000   -2.160000   -1.994000
  H     -6.841000   -3.582000   -1.893000
  H     -8.428000   -4.536000    0.546000
  H     -7.956000   -5.337000   -0.981000
  H     -7.456000   -6.037000    0.584000
  H     -5.287000   -0.344000    0.100000
  H     -3.780000   -3.601000    1.947000
  H      3.587000   -6.868000   -1.843000
  H     -2.276000   -4.774000   -0.050000
  H      3.714000   -3.724000    1.926000
  H      5.092000   -5.795000    1.871000
  H      6.205000   -7.329000   -0.439000
  H      5.393000   -7.917000    1.042000
  H      4.759000   -8.373000   -0.564000
  H      0.329000   -5.290000   -0.008000
  H      2.146000   -4.842000   -1.940000
  H      5.808000    4.986000   -1.956000
  H      4.788000   -2.281000   -0.185000
  H      4.860000    2.114000    1.912000
  H      6.901000    3.531000    1.772000
  H      7.383000    6.109000    0.356000
  H      8.414000    4.652000    0.435000
  H      7.921000    5.310000   -1.150000
  H      5.283000    0.336000   -0.179000
  H      3.720000    3.632000   -1.967000

 Total Charge           Charge          ....    0
 Multiplicity           Mult            ....    1
 Number of Electrons    NEL             ....  358
 Basis Dimension        Dim             ....  918

ORBITAL ENERGIES
----------------

  NO   OCC          E(Eh)            E(eV)
   0   2.0000     -15.647615      -425.7932
   1   2.0000     -15.639715      -425.5783
   2   2.0000     -15.628453      -425.2718
   3   2.0000     -15.614594      -424.8947
   4   2.0000     -15.520607      -422.3372
   5   2.0000     -15.515548      -422.1995
   6   2.0000     -15.445803      -420.3017
   7   2.0000     -15.443934      -420.2508
   8   2.0000     -11.307966      -307.7054
   9   2.0000     -11.303096      -307.5729
  10   2.0000     -11.302806      -307.5650
  11   2.0000     -11.300469      -307.5014
  12   2.0000     -11.295911      -307.3774
  13   2.0000     -11.295731      -307.3725
  14   2.0000     -11.293627      -307.3152
  15   2.0000     -11.287994      -307.1619
  16   2.0000     -11.286221      -307.1137
  17   2.0000     -11.284862      -307.0767
  18   2.0000     -11.275525      -306.8226
  19   2.0000     -11.274984      -306.8079
  20   2.0000     -11.251613      -306.1720
  21   2.0000     -11.243107      -305.9405
  22   2.0000     -11.240481      -305.8690
  23   2.0000     -11.239594      -305.8449
  24   2.0000     -11.234959      -305.7188
  25   2.0000     -11.234344      -305.7020
  26   2.0000     -11.232901      -305.6628
  27   2.0000     -11.226582      -305.4908
  28   2.0000     -11.226431      -305.4867
  29   2.0000     -11.222275      -305.3736
  30   2.0000     -11.216850      -305.2260
  31   2.0000     -11.216017      -305.2033
  32   2.0000     -11.203259      -304.8562
  33   2.0000     -11.202539      -304.8366
  34   2.0000     -11.192754      -304.5703
  35   2.0000     -11.192318      -304.5585
  36   2.0000     -11.176216      -304.1203
  37   2.0000     -11.174198      -304.0654
  38   2.0000     -11.174086      -304.0623
  39   2.0000     -11.173140      -304.0366
  40   2.0000     -11.168310      -303.9052
  41   2.0000     -11.167737      -303.8896
  42   2.0000     -11.166841      -303.8652
  43   2.0000     -11.164500      -303.8015
  44   2.0000     -11.163293      -303.7686
  45   2.0000     -11.161784      -303.7276
  46   2.0000     -11.151260      -303.4412
  47   2.0000     -11.148975      -303.3790
  48   2.0000     -11.146455      -303.3105
  49   2.0000     -11.143778      -303.2376
  50   2.0000     -11.140234      -303.1412
  51   2.0000     -11.136842      -303.0489
  52   2.0000      -1.332921       -36.2706
  53   2.0000      -1.326097       -36.0849
  54   2.0000      -1.316422       -35.8217
  55   2.0000      -1.305267       -35.5181
  56   2.0000      -1.219869       -33.1943
  57   2.0000      -1.211841       -32.9759
  58   2.0000      -1.162821       -31.6420
  59   2.0000      -1.156754       -31.4769
  60   2.0000      -1.120410       -30.4879
  61   2.0000      -1.113971       -30.3127
  62   2.0000      -1.105652       -30.0863
  63   2.0000      -1.096797       -29.8454
  64   2.0000      -1.056493       -28.7486
  65   2.0000      -1.049926       -28.5699
  66   2.0000      -1.041047       -28.3283
  67   2.0000      -1.031194       -28.0602
  68   2.0000      -1.028234       -27.9797
  69   2.0000      -1.011270       -27.5181
  70   2.0000      -1.009286       -27.4641
  71   2.0000      -0.996230       -27.1088
  72   2.0000      -0.984249       -26.7828
  73   2.0000      -0.974742       -26.5241
  74   2.0000      -0.971120       -26.4255
  75   2.0000      -0.959074       -26.0977
  76   2.0000      -0.952213       -25.9110
  77   2.0000      -0.944242       -25.6941
  78   2.0000      -0.939374       -25.5617
  79   2.0000      -0.923069       -25.1180
  80   2.0000      -0.894157       -24.3312
  81   2.0000      -0.882338       -24.0096
  82   2.0000      -0.876558       -23.8524
  83   2.0000      -0.868580       -23.6353
  84   2.0000      -0.862255       -23.4632
  85   2.0000      -0.856486       -23.3062
  86   2.0000      -0.848605       -23.0917
  87   2.0000      -0.842447       -22.9242
  88   2.0000      -0.821697       -22.3595
  89   2.0000      -0.798656       -21.7325
  90   2.0000      -0.797259       -21.6945
  91   2.0000      -0.740035       -20.1374
  92   2.0000      -0.731885       -19.9156
  93   2.0000      -0.729883       -19.8611
  94   2.0000      -0.721644       -19.6369
  95   2.0000      -0.719589       -19.5810
  96   2.0000      -0.712395       -19.3852
  97   2.0000      -0.707371       -19.2485
  98   2.0000      -0.699317       -19.0294
  99   2.0000      -0.693898       -18.8819
 100   2.0000      -0.686901       -18.6915
 101   2.0000      -0.681078       -18.5331
 102   2.0000      -0.679246       -18.4832
 103   2.0000      -0.673124       -18.3166
 104   2.0000      -0.669085       -18.2067
 105   2.0000      -0.665199       -18.1010
 106   2.0000      -0.663341       -18.0504
 107   2.0000      -0.660542       -17.9743
 108   2.0000      -0.657713       -17.8973
 109   2.0000      -0.657369       -17.8879
 110   2.0000      -0.651922       -17.7397
 111   2.0000      -0.649662       -17.6782
 112   2.0000      -0.645773       -17.5724
 113   2.0000      -0.640829       -17.4378
 114   2.0000      -0.634913       -17.2769
 115   2.0000      -0.622853       -16.9487
 116   2.0000      -0.622519       -16.9396
 117   2.0000      -0.616664       -16.7803
 118   2.0000      -0.611211       -16.6319
 119   2.0000      -0.609753       -16.5922
 120   2.0000      -0.608211       -16.5503
 121   2.0000      -0.603502       -16.4221
 122   2.0000      -0.598714       -16.2918
 123   2.0000      -0.592355       -16.1188
 124   2.0000      -0.590708       -16.0740
 125   2.0000      -0.585314       -15.9272
 126   2.0000      -0.578193       -15.7334
 127   2.0000      -0.573607       -15.6086
 128   2.0000      -0.569383       -15.4937
 129   2.0000      -0.559838       -15.2340
 130   2.0000      -0.553860       -15.0713
 131   2.0000      -0.546165       -14.8619
 132   2.0000      -0.541831       -14.7440
 133   2.0000      -0.536017       -14.5858
 134   2.0000      -0.533881       -14.5276
 135   2.0000      -0.528918       -14.3926
 136   2.0000      -0.525047       -14.2873
 137   2.0000      -0.522357       -14.2141
 138   2.0000      -0.519971       -14.1491
 139   2.0000      -0.517242       -14.0749
 140   2.0000      -0.509397       -13.8614
 141   2.0000      -0.506155       -13.7732
 142   2.0000      -0.505237       -13.7482
 143   2.0000      -0.501479       -13.6459
 144   2.0000      -0.500028       -13.6064
 145   2.0000      -0.498524       -13.5655
 146   2.0000      -0.495252       -13.4765
 147   2.0000      -0.492217       -13.3939
 148   2.0000      -0.490011       -13.3339
 149   2.0000      -0.469219       -12.7681
 150   2.0000      -0.461048       -12.5458
 151   2.0000      -0.452248       -12.3063
 152   2.0000      -0.448490       -12.2040
 153   2.0000      -0.446232       -12.1426
 154   2.0000      -0.445690       -12.1278
 155   2.0000      -0.439079       -11.9480
 156   2.0000      -0.435443       -11.8490
 157   2.0000      -0.431396       -11.7389
 158   2.0000      -0.393005       -10.6942
 159   2.0000      -0.382839       -10.4176
 160   2.0000      -0.379685       -10.3318
 161   2.0000      -0.372096       -10.1252
 162   2.0000      -0.365899        -9.9566
 163   2.0000      -0.360227        -9.8023
 164   2.0000      -0.352798        -9.6001
 165   2.0000      -0.343959        -9.3596
 166   2.0000      -0.337220        -9.1762
 167   2.0000      -0.333317        -9.0700
 168   2.0000      -0.329379        -8.9629
 169   2.0000      -0.300150        -8.1675
 170   2.0000      -0.297729        -8.1016
 171   2.0000      -0.288221        -7.8429
 172   2.0000      -0.286874        -7.8062
 173   2.0000      -0.255710        -6.9582
 174   2.0000      -0.247788        -6.7427
 175   2.0000      -0.188442        -5.1278
 176   2.0000      -0.178383        -4.8540
 177   2.0000      -0.067748        -1.8435
 178   2.0000      -0.055362        -1.5065
 179   0.0000       0.030394         0.8271
 180   0.0000       0.070144         1.9087
 181   0.0000       0.093000         2.5306
 182   0.0000       0.099049         2.6953
 183   0.0000       0.128211         3.4888

MULLIKEN ATOMIC CHARGES
-----------------------
   0 C :    0.204512
   1 N :   -0.446720
   2 C :   -0.064545
   3 N :   -0.337006
   4 C :   -0.067719
   5 N :   -0.561534
   6 C :   -0.076921
   7 N :   -0.338785
   8 C :    0.202749
   9 N :   -0.562878
  10 C :    0.116551
  11 N :   -0.437218
  12 C :   -0.072563
  13 N :   -0.436912
  14 C :    0.235162
  15 N :   -0.440984
  16 C :    0.232871
  17 C :   -0.076616
  18 C :   -0.193600
  19 C :    0.223985
  20 C :    0.210625
  21 C :   -0.079786
  22 C :   -0.086396
  23 C :   -0.046290
  24 C :    0.203472
  25 C :    0.113746
  26 C :   -0.073447
  27 C :    0.218989
  28 C :   -0.054595
  29 C :   -0.183324
  30 C :    0.238328
  31 C :    0.216926
  32 C :   -0.063839
  33 C :   -0.075588
  34 C :   -0.049610
  35 C :    0.210262
  36 C :    0.112481
  37 C :   -0.065918
  38 C :    0.236060
  39 C :   -0.060964
  40 C :   -0.186486
  41 C :    0.221248
  42 C :    0.201080
  43 C :   -0.073542
  44 C :   -0.089697
  45 C :   -0.055411
  46 C :    0.205196
  47 C :    0.115672
  48 C :   -0.072931
  49 C :    0.229301
  50 C :   -0.050924
  51 C :   -0.191039
  52 H :    0.049656
  53 H :   -0.014840
  54 H :    0.046341
  55 H :    0.048221
  56 H :    0.055772
  57 H :    0.053609
  58 H :    0.052727
  59 H :   -0.008651
  60 H :    0.044226
  61 H :    0.172119
  62 H :    0.173766
  63 H :    0.057190
  64 H :   -0.016094
  65 H :    0.046856
  66 H :    0.057693
  67 H :    0.063513
  68 H :    0.058292
  69 H :    0.058698
  70 H :   -0.025744
  71 H :    0.047965
  72 H :    0.060588
  73 H :   -0.012385
  74 H :    0.050564
  75 H :    0.059657
  76 H :    0.065609
  77 H :    0.060871
  78 H :    0.060030
  79 H :   -0.014268
  80 H :    0.050909
  81 H :    0.053557
  82 H :   -0.024337
  83 H :    0.042232
  84 H :    0.053007
  85 H :    0.059179
  86 H :    0.055821
  87 H :    0.056666
  88 H :   -0.019931
  89 H :    0.045492
Sum of atomic charges:    0.0000000

LOEWDIN ATOMIC CHARGES
----------------------
   0 C :   -0.011189
   1 N :    0.128662
   2 C :   -0.100732
   3 N :    0.179716
   4 C :    0.020285
   5 N :   -0.135335
   6 C :   -0.027702
   7 N :    0.176880
   8 C :   -0.012021
   9 N :   -0.139259
  10 C :    0.027155
  11 N :    0.145183
  12 C :   -0.102934
  13 N :    0.148602
  14 C :   -0.041441
  15 N :    0.138084
  16 C :   -0.050275
  17 C :   -0.029423
  18 C :   -0.105503
  19 C :   -0.086849
  20 C :    0.003020
  21 C :   -0.106428
  22 C :    0.043328
  23 C :   -0.018552
  24 C :   -0.003169
  25 C :    0.030555
  26 C :   -0.105022
  27 C :   -0.101589
  28 C :   -0.022289
  29 C :   -0.104248
  30 C :   -0.041882
  31 C :    0.008369
  32 C :   -0.097078
  33 C :    0.052077
  34 C :   -0.017959
  35 C :    0.002691
  36 C :    0.031240
  37 C :   -0.098877
  38 C :   -0.043438
  39 C :   -0.023428
  40 C :   -0.108420
  41 C :   -0.094518
  42 C :   -0.007419
  43 C :   -0.103660
  44 C :    0.032935
  45 C :   -0.024390
  46 C :   -0.003880
  47 C :    0.029211
  48 C :   -0.102683
  49 C :   -0.083796
  50 C :   -0.021852
  51 C :   -0.109177
  52 H :    0.027522
  53 H :    0.003950
  54 H :    0.042173
  55 H :    0.027223
  56 H :    0.024823
  57 H :    0.029014
  58 H :    0.029548
  59 H :    0.005671
  60 H :    0.042014
  61 H :    0.060292
  62 H :    0.060957
  63 H :    0.031417
  64 H :    0.000621
  65 H :    0.045479
  66 H :    0.030481
  67 H :    0.028838
  68 H :    0.032111
  69 H :    0.031333
  70 H :   -0.002770
  71 H :    0.045215
  72 H :    0.032709
  73 H :    0.005008
  74 H :    0.046596
  75 H :    0.032012
  76 H :    0.029969
  77 H :    0.032831
  78 H :    0.032470
  79 H :    0.004135
  80 H :    0.046148
  81 H :    0.028878
  82 H :   -0.002331
  83 H :    0.042987
  84 H :    0.029139
  85 H :    0.026596
  86 H :    0.030251
  87 H :    0.031141
  88 H :   -0.000206
  89 H :    0.044179

  Mayer bond orders larger than 0.100000
B(  0-C ,  1-N ) :   1.1057 B(  0-C , 17-C ) :   1.6600 B(  0-C , 52-H ) :   0.9691
B(  1-N ,  8-C ) :   1.1014 B(  1-N , 10-C ) :   0.9680 B(  2-C , 12-C ) :   1.5293
B(  2-C , 16-C ) :   1.3316 B(  2-C , 53-H ) :   0.9775 B(  3-N , 14-C ) :   1.2082
B(  3-N , 16-C ) :   1.1941 B(  3-N , 61-H ) :   0.8989 B(  4-C ,  6-C ) :   1.2431
B(  4-C , 17-C ) :   1.2453 B(  4-C , 18-C ) :   1.3234 B(  5-N , 19-C ) :   1.4310
B(  5-N , 27-C ) :   1.3966 B(  6-C ,  8-C ) :   1.6621 B(  6-C , 54-H ) :   0.9700
B(  7-N , 30-C ) :   1.1928 B(  7-N , 38-C ) :   1.1991 B(  7-N , 62-H ) :   0.8978
B(  8-C , 55-H ) :   0.9702 B(  9-N , 41-C ) :   1.4023 B(  9-N , 49-C ) :   1.4209
B( 10-C , 56-H ) :   0.9764 B( 10-C , 57-H ) :   0.9827 B( 10-C , 58-H ) :   0.9832
B( 11-N , 20-C ) :   1.1283 B( 11-N , 24-C ) :   1.1204 B( 11-N , 25-C ) :   0.9578
B( 12-C , 14-C ) :   1.3341 B( 12-C , 59-H ) :   0.9763 B( 13-N , 31-C ) :   1.1350
B( 13-N , 35-C ) :   1.1278 B( 13-N , 36-C ) :   0.9546 B( 14-C , 18-C ) :   1.1772
B( 15-N , 42-C ) :   1.1125 B( 15-N , 46-C ) :   1.1165 B( 15-N , 47-C ) :   0.9624
B( 16-C , 51-C ) :   1.1925 B( 17-C , 60-H ) :   0.9698 B( 18-C , 19-C ) :   1.1887
B( 19-C , 21-C ) :   1.2224 B( 20-C , 28-C ) :   1.6224 B( 20-C , 63-H ) :   0.9702
B( 21-C , 26-C ) :   1.6344 B( 21-C , 64-H ) :   0.9727 B( 22-C , 23-C ) :   1.2872
B( 22-C , 28-C ) :   1.2736 B( 22-C , 29-C ) :   1.2236 B( 23-C , 24-C ) :   1.6163
B( 23-C , 65-H ) :   0.9708 B( 24-C , 66-H ) :   0.9692 B( 25-C , 67-H ) :   0.9761
B( 25-C , 68-H ) :   0.9829 B( 25-C , 69-H ) :   0.9821 B( 26-C , 27-C ) :   1.2177
B( 26-C , 70-H ) :   0.9726 B( 27-C , 29-C ) :   1.2250 B( 28-C , 71-H ) :   0.9715
B( 29-C , 30-C ) :   1.2225 B( 30-C , 32-C ) :   1.3013 B( 31-C , 39-C ) :   1.6187
B( 31-C , 72-H ) :   0.9692 B( 32-C , 37-C ) :   1.5573 B( 32-C , 73-H ) :   0.9780
B( 33-C , 34-C ) :   1.2849 B( 33-C , 39-C ) :   1.2775 B( 33-C , 40-C ) :   1.2273
B( 34-C , 35-C ) :   1.6154 B( 34-C , 74-H ) :   0.9702 B( 35-C , 75-H ) :   0.9693
B( 36-C , 76-H ) :   0.9764 B( 36-C , 77-H ) :   0.9819 B( 36-C , 78-H ) :   0.9829
B( 37-C , 38-C ) :   1.3035 B( 37-C , 79-H ) :   0.9775 B( 38-C , 40-C ) :   1.2167
B( 39-C , 80-H ) :   0.9713 B( 40-C , 41-C ) :   1.2268 B( 41-C , 43-C ) :   1.2077
B( 42-C , 50-C ) :   1.6345 B( 42-C , 81-H ) :   0.9696 B( 43-C , 48-C ) :   1.6437
B( 43-C , 82-H ) :   0.9732 B( 44-C , 45-C ) :   1.2675 B( 44-C , 50-C ) :   1.2677
B( 44-C , 51-C ) :   1.2594 B( 45-C , 46-C ) :   1.6343 B( 45-C , 83-H ) :   0.9714
B( 46-C , 84-H ) :   0.9702 B( 47-C , 85-H ) :   0.9761 B( 47-C , 86-H ) :   0.9828
B( 47-C , 87-H ) :   0.9826 B( 48-C , 49-C ) :   1.2088 B( 48-C , 88-H ) :   0.9742
B( 49-C , 51-C ) :   1.2221 B( 50-C , 89-H ) :   0.9712

MP2 TOTAL ENERGY:    -2130.916083539 Eh
FINAL SINGLE POINT ENERGY     -2130.916083538935

DIPOLE MOMENT
-------------
                                X             Y             Z
Electronic contribution:      0.48372      -1.89349      -0.21108
Nuclear contribution   :      0.00883       0.19169       0.22762
                        -----------------------------------------
Total Dipole Moment    :      0.49255      -1.70180       0.01655
                        -----------------------------------------
Magnitude (a.u.)       :      1.77172
Magnitude (Debye)      :      4.50335

Rotational constants in cm-1:     0.001498     0.001475     0.000762
Rotational constants in MHz :    44.923199    44.222610    22.840170

                             ****ORCA TERMINATED NORMALLY****
TOTAL RUN TIME: 0 days 1 hours 28 minutes 48 seconds 474 msec
