                         Program Version 5.0.4 -  RELEASE  -
|  1> ! PAL2
|  2> ! mp2 cc-pvdz TightSCF  NoKeepInts
|  3>
|  4> %scf
|  5>   MaxCore 2000
|  6> end
|  7> %mp2
|  8>   MaxCore 2000
|  9> end
| 10> * xyz 0 1
| 11>    C       -4.79300         5.28000         0.72100
| 12>    C        1.47400         4.04100         0.05700
| 13>    C       -2.80200         4.09300         0.04900
| 14>    C       -2.39100         5.26100        -0.61100
| 15>    C       -3.18400         6.39000        -0.58200
| 16>    C       -5.17700         7.62600         0.11800
| 17>    C        0.13200         4.30700         0.06100
| 18>    C       -0.56900         3.05600         0.04700
| 19>    C        1.64900         2.61800         0.02300
| 20>    C       -4.03100         4.12700         0.72500
| 21>    N       -4.36800         6.38800         0.07400
| 22>    N        0.38800         2.06700         0.02500
| 23>    N       -2.01000         0.39500        -0.07500
| 24>    N       -0.38800        -2.07400        -0.02700
| 25>    N        2.01000        -0.40100         0.06500
| 26>    C       -1.96000         2.86100         0.02400
| 27>    C       -2.62300         1.61500        -0.01800
| 28>    C       -5.57300        -4.32900         1.06600
| 29>    C       -4.07300         1.47100         0.05600
| 30>    C       -4.10600        -2.75600        -0.02600
| 31>    C       -4.99500        -2.75700        -1.11100
| 32>    C       -6.13200        -3.54200        -1.07600
| 33>    C       -7.65100        -5.11300         0.04000
| 34>    C       -4.32400         0.14100         0.03700
| 35>    C       -3.02500        -0.52000        -0.04800
| 36>    C       -4.42200        -3.56600         1.07500
| 37>    N       -6.40700        -4.31300         0.00100
| 38>    C       -2.86700        -1.92200        -0.04000
| 39>    C       -1.65000        -2.62400        -0.02700
| 40>    C        3.56800        -6.14200        -1.04000
| 41>    C       -1.47600        -4.04900        -0.03400
| 42>    C        2.80300        -4.09900        -0.00800
| 43>    C        3.65700        -4.38400         1.06900
| 44>    C        4.42700        -5.53000         1.05900
| 45>    C        5.24500        -7.58800         0.01400
| 46>    C       -0.13400        -4.31500        -0.02200
| 47>    C        0.56800        -3.06400        -0.02700
| 48>    C        2.77500        -5.01200        -1.07400
| 49>    N        4.37600        -6.39100         0.01700
| 50>    C        1.95900        -2.86900        -0.00900
| 51>    C        2.62100        -1.62200         0.00900
| 52>    C        5.54300         4.33900        -1.13000
| 53>    C        4.07000        -1.47900        -0.09400
| 54>    C        4.10400         2.75100        -0.02100
| 55>    C        5.02700         2.72900         1.03600
| 56>    C        6.16600         3.50900         0.97800
| 57>    C        7.61900         5.15300        -0.11500
| 58>    C        4.32100        -0.14800        -0.09200
| 59>    C        3.02500         0.51400         0.01500
| 60>    C        4.38700         3.58200        -1.11500
| 61>    C        2.86600         1.91600         0.01300
| 62>    N        6.41300         4.29600        -0.09500
| 63>    H       -5.75300         5.34700         1.21800
| 64>    H        2.27400         4.76600         0.08100
| 65>    H       -1.44700         5.30000        -1.14200
| 66>    H       -2.90500         7.31600        -1.06800
| 67>    H       -4.83600         8.24500         0.95100
| 68>    H       -5.05200         8.16100        -0.82300
| 69>    H       -6.22400         7.35600         0.25800
| 70>    H       -0.33200         5.28200         0.06900
| 71>    H       -4.41100         3.25300         1.24200
| 72>    H        0.18200         1.07200         0.00500
| 73>    H       -0.18300        -1.08000        -0.02100
| 74>    H       -5.86400        -4.96200         1.89500
| 75>    H       -4.79400         2.27200         0.13900
| 76>    H       -4.80000        -2.16000        -1.99400
| 77>    H       -6.84100        -3.58200        -1.89300
| 78>    H       -8.42800        -4.53600         0.54600
| 79>    H       -7.95600        -5.33700        -0.98100
| 80>    H       -7.45600        -6.03700         0.58400
| 81>    H       -5.28700        -0.34400         0.10000
| 82>    H       -3.78000        -3.60100         1.94700
| 83>    H        3.58700        -6.86800        -1.84300
| 84>    H       -2.27600        -4.77400        -0.05000
| 85>    H        3.71400        -3.72400         1.92600
| 86>    H        5.09200        -5.79500         1.87100
| 87>    H        6.20500        -7.32900        -0.43900
| 88>    H        5.39300        -7.91700         1.04200
| 89>    H        4.75900        -8.37300        -0.56400
| 90>    H        0.32900        -5.29000        -0.00800
| 91>    H        2.14600        -4.84200        -1.94000
| 92>    H        5.80800         4.98600        -1.95600
| 93>    H        4.78800        -2.28100        -0.18500
| 94>    H        4.86000         2.11400         1.91200
| 95>    H        6.90100         3.53100         1.77200
| 96>    H        7.38300         6.10900         0.35600
| 97>    H        8.41400         4.65200         0.43500
| 98>    H        7.92100         5.31000        -1.15000
| 99>    H        5.28300         0.33600        -0.17900
|100>    H        3.72000         3.63200        -1.96700
|101> *
|102>
|103>                          ****END OF INPUT****

CARTESIAN COORDINATES (ANGSTROEM)
---------------------------------
  C     -4.793000    5.280000    0.721000
  C      1.474000    4.041000    0.057000
  C     -2.802000    4.093000    0.049000
  C     -2.391000    5.261000   -0.611000
  C     -3.184000    6.390000   -0.582000
  C     -5.177000    7.626000    0.118000
  C      0.132000    4.307000    0.061000
  C     -0.569000    3.056000    0.047000
  C      1.649000    2.618000    0.023000
  C     -4.031000    4.127000    0.725000
  N     -4.368000    6.388000    0.074000
  N      0.388000    2.067000    0.025000
  N     -2.010000    0.395000   -0.075000
  N     -0.388000   -2.074000   -0.027000
  N      2.010000   -0.401000    0.065000
  C     -1.960000    2.861000    0.024000
  C     -2.623000    1.615000   -0.018000
  C     -5.573000   -4.329000    1.066000
  C     -4.073000    1.471000    0.056000
  C     -4.106000   -2.756000   -0.026000
  C     -4.995000   -2.757000   -1.111000
  C     -6.132000   -3.542000   -1.076000
  C     -7.651000   -5.113000    0.040000
  C     -4.324000    0.141000    0.037000
  C     -3.025000   -0.520000   -0.048000
  C     -4.422000   -3.566000    1.075000
  N     -6.407000   -4.313000    0.001000
  C     -2.867000   -1.922000   -0.040000
  C     -1.650000   -2.624000   -0.027000
  C      3.568000   -6.142000   -1.040000
  C     -1.476000   -4.049000   -0.034000
  C      2.803000   -4.099000   -0.008000
  C      3.657000   -4.384000    1.069000
  C      4.427000   -5.530000    1.059000
  C      5.245000   -7.588000    0.014000
  C     -0.134000   -4.315000   -0.022000
  C      0.568000   -3.064000   -0.027000
  C      2.775000   -5.012000   -1.074000
  N      4.376000   -6.391000    0.017000
  C      1.959000   -2.869000   -0.009000
  C      2.621000   -1.622000    0.009000
  C      5.543000    4.339000   -1.130000
  C      4.070000   -1.479000   -0.094000
  C      4.104000    2.751000   -0.021000
  C      5.027000    2.729000    1.036000
  C      6.166000    3.509000    0.978000
  C      7.619000    5.153000   -0.115000
  C      4.321000   -0.148000   -0.092000
  C      3.025000    0.514000    0.015000
  C      4.387000    3.582000   -1.115000
  C      2.866000    1.916000    0.013000
  N      6.413000    4.296000   -0.095000
  H     -5.753000    5.347000    1.218000
  H      2.274000    4.766000    0.081000
  H     -1.447000    5.300000   -1.142000
  H     -2.905000    7.316000   -1.068000
  H     -4.836000    8.245000    0.951000
  H     -5.052000    8.161000   -0.823000
  H     -6.224000    7.356000    0.258000
  H     -0.332000    5.282000    0.069000
  H     -4.411000    3.253000    1.242000
  H      0.182000    1.072000    0.005000
  H     -0.183000   -1.080000   -0.021000
  H     -5.864000   -4.962000    1.895000
  H     -4.794000    2.272000    0.139000
  H     -4.800000   -2.160000   -1.994000
  H     -6.841000   -3.582000   -1.893000
  H     -8.428000   -4.536000    0.546000
  H     -7.956000   -5.337000   -0.981000
  H     -7.456000   -6.037000    0.584000
  H     -5.287000   -0.344000    0.100000
  H     -3.780000   -3.601000    1.947000
  H      3.587000   -6.868000   -1.843000
  H     -2.276000   -4.774000   -0.050000
  H      3.714000   -3.724000    1.926000
  H      5.092000   -5.795000    1.871000
  H      6.205000   -7.329000   -0.439000
  H      5.393000   -7.917000    1.042000
  H      4.759000   -8.373000   -0.564000
  H      0.329000   -5.290000   -0.008000
  H      2.146000   -4.842000   -1.940000
  H      5.808000    4.986000   -1.956000
  H      4.788000   -2.281000   -0.185000
  H      4.860000    2.114000    1.912000
  H      6.901000    3.531000    1.772000
  H      7.383000    6.109000    0.356000
  H      8.414000    4.652000    0.435000
  H      7.921000    5.310000   -1.150000
  H      5.283000    0.336000   -0.179000
  H      3.720000    3.632000   -1.967000

 Total Charge           Charge          ....    0
 Multiplicity           Mult            ....    1
 Number of Electrons    NEL             ....  358
 Basis Dimension        Dim             ....  918

ORBITAL ENERGIES
----------------

  NO   OCC          E(Eh)            E(eV)
   0   2.0000     -15.669549      -426.3901
   1   2.0000     -15.635472      -425.4628
   2   2.0000     -15.630370      -425.3240
   3   2.0000     -15.594417      -424.3457
   4   2.0000     -15.524173      -422.4342
   5   2.0000     -15.516318      -422.2205
   6   2.0000     -15.451556      -420.4582
   7   2.0000     -15.441889      -420.1952
   8   2.0000     -11.321606      -308.0766
   9   2.0000     -11.321141      -308.0639
  10   2.0000     -11.319494      -308.0191
  11   2.0000     -11.300255      -307.4956
  12   2.0000     -11.297383      -307.4174
  13   2.0000     -11.293725      -307.3179
  14   2.0000     -11.289317      -307.1979
  15   2.0000     -11.288392      -307.1728
  16   2.0000     -11.285821      -307.1028
  17   2.0000     -11.275393      -306.8191
  18   2.0000     -11.272437      -306.7386
  19   2.0000     -11.258598      -306.3620
  20   2.0000     -11.258261      -306.3529
  21   2.0000     -11.256186      -306.2964
  22   2.0000     -11.255240      -306.2707
  23   2.0000     -11.239062      -305.8304
  24   2.0000     -11.235132      -305.7235
  25   2.0000     -11.232277      -305.6458
  26   2.0000     -11.231477      -305.6240
  27   2.0000     -11.228614      -305.5461
  28   2.0000     -11.228519      -305.5435
  29   2.0000     -11.208838      -305.0080
  30   2.0000     -11.207656      -304.9758
  31   2.0000     -11.203500      -304.8627
  32   2.0000     -11.197810      -304.7079
  33   2.0000     -11.195245      -304.6381
  34   2.0000     -11.190634      -304.5126
  35   2.0000     -11.189773      -304.4892
  36   2.0000     -11.186946      -304.4123
  37   2.0000     -11.184208      -304.3378
  38   2.0000     -11.183208      -304.3106
  39   2.0000     -11.172826      -304.0280
  40   2.0000     -11.171097      -303.9810
  41   2.0000     -11.169712      -303.9433
  42   2.0000     -11.166515      -303.8563
  43   2.0000     -11.162406      -303.7445
  44   2.0000     -11.160429      -303.6907
  45   2.0000     -11.158969      -303.6510
  46   2.0000     -11.157265      -303.6046
  47   2.0000     -11.152877      -303.4852
  48   2.0000     -11.148829      -303.3751
  49   2.0000     -11.141836      -303.1848
  50   2.0000     -11.133904      -302.9689
  51   2.0000     -11.125438      -302.7385
  52   2.0000      -1.351671       -36.7808
  53   2.0000      -1.322507       -35.9872
  54   2.0000      -1.318317       -35.8732
  55   2.0000      -1.288195       -35.0536
  56   2.0000      -1.224485       -33.3199
  57   2.0000      -1.210927       -32.9510
  58   2.0000      -1.170170       -31.8420
  59   2.0000      -1.152995       -31.3746
  60   2.0000      -1.136324       -30.9210
  61   2.0000      -1.111201       -30.2373
  62   2.0000      -1.107894       -30.1473
  63   2.0000      -1.083488       -29.4832
  64   2.0000      -1.073991       -29.2248
  65   2.0000      -1.046614       -28.4798
  66   2.0000      -1.043049       -28.3828
  67   2.0000      -1.036311       -28.1995
  68   2.0000      -1.016325       -27.6556
  69   2.0000      -1.014091       -27.5948
  70   2.0000      -1.009798       -27.4780
  71   2.0000      -0.992426       -27.0053
  72   2.0000      -0.987388       -26.8682
  73   2.0000      -0.978520       -26.6269
  74   2.0000      -0.972687       -26.4682
  75   2.0000      -0.960253       -26.1298
  76   2.0000      -0.952239       -25.9117
  77   2.0000      -0.947252       -25.7760
  78   2.0000      -0.935474       -25.4556
  79   2.0000      -0.920276       -25.0420
  80   2.0000      -0.903520       -24.5860
  81   2.0000      -0.892631       -24.2897
  82   2.0000      -0.874442       -23.7948
  83   2.0000      -0.871402       -23.7121
  84   2.0000      -0.867536       -23.6069
  85   2.0000      -0.856240       -23.2995
  86   2.0000      -0.842596       -22.9282
  87   2.0000      -0.836930       -22.7740
  88   2.0000      -0.823447       -22.4071
  89   2.0000      -0.798254       -21.7216
  90   2.0000      -0.793087       -21.5810
  91   2.0000      -0.747974       -20.3534
  92   2.0000      -0.740118       -20.1396
  93   2.0000      -0.732294       -19.9267
  94   2.0000      -0.723410       -19.6850
  95   2.0000      -0.721292       -19.6274
  96   2.0000      -0.714841       -19.4518
  97   2.0000      -0.709088       -19.2953
  98   2.0000      -0.704950       -19.1827
  99   2.0000      -0.696154       -18.9433
 100   2.0000      -0.695554       -18.9270
 101   2.0000      -0.683260       -18.5924
 102   2.0000      -0.678844       -18.4723
 103   2.0000      -0.677564       -18.4374
 104   2.0000      -0.677249       -18.4289
 105   2.0000      -0.672422       -18.2975
 106   2.0000      -0.667499       -18.1636
 107   2.0000      -0.661671       -18.0050
 108   2.0000      -0.655244       -17.8301
 109   2.0000      -0.654086       -17.7986
 110   2.0000      -0.650146       -17.6914
 111   2.0000      -0.644162       -17.5285
 112   2.0000      -0.641466       -17.4552
 113   2.0000      -0.638666       -17.3790
 114   2.0000      -0.638069       -17.3627
 115   2.0000      -0.627561       -17.0768
 116   2.0000      -0.626221       -17.0403
 117   2.0000      -0.617566       -16.8048
 118   2.0000      -0.613528       -16.6950
 119   2.0000      -0.612115       -16.6565
 120   2.0000      -0.610300       -16.6071
 121   2.0000      -0.604979       -16.4623
 122   2.0000      -0.600549       -16.3418
 123   2.0000      -0.587358       -15.9828
 124   2.0000      -0.583127       -15.8677
 125   2.0000      -0.580885       -15.8067
 126   2.0000      -0.579487       -15.7686
 127   2.0000      -0.577063       -15.7027
 128   2.0000      -0.565306       -15.3828
 129   2.0000      -0.558809       -15.2060
 130   2.0000      -0.552546       -15.0355
 131   2.0000      -0.547928       -14.9099
 132   2.0000      -0.542197       -14.7539
 133   2.0000      -0.538647       -14.6573
 134   2.0000      -0.538165       -14.6442
 135   2.0000      -0.535248       -14.5649
 136   2.0000      -0.527058       -14.3420
 137   2.0000      -0.524237       -14.2652
 138   2.0000      -0.516812       -14.0632
 139   2.0000      -0.513738       -13.9795
 140   2.0000      -0.511991       -13.9320
 141   2.0000      -0.511179       -13.9099
 142   2.0000      -0.509021       -13.8512
 143   2.0000      -0.503223       -13.6934
 144   2.0000      -0.501698       -13.6519
 145   2.0000      -0.497606       -13.5405
 146   2.0000      -0.493834       -13.4379
 147   2.0000      -0.484953       -13.1962
 148   2.0000      -0.481311       -13.0971
 149   2.0000      -0.467445       -12.7198
 150   2.0000      -0.465178       -12.6581
 151   2.0000      -0.456895       -12.4327
 152   2.0000      -0.449715       -12.2374
 153   2.0000      -0.445669       -12.1273
 154   2.0000      -0.442515       -12.0414
 155   2.0000      -0.437608       -11.9079
 156   2.0000      -0.430044       -11.7021
 157   2.0000      -0.421022       -11.4566
 158   2.0000      -0.402891       -10.9632
 159   2.0000      -0.388068       -10.5599
 160   2.0000      -0.380993       -10.3674
 161   2.0000      -0.378120       -10.2892
 162   2.0000      -0.370279       -10.0758
 163   2.0000      -0.357601        -9.7308
 164   2.0000      -0.354795        -9.6545
 165   2.0000      -0.339447        -9.2368
 166   2.0000      -0.337323        -9.1790
 167   2.0000      -0.327981        -8.9248
 168   2.0000      -0.326490        -8.8843
 169   2.0000      -0.303167        -8.2496
 170   2.0000      -0.299778        -8.1574
 171   2.0000      -0.286527        -7.7968
 172   2.0000      -0.283112        -7.7039
 173   2.0000      -0.261723        -7.1219
 174   2.0000      -0.243902        -6.6369
 175   2.0000      -0.189719        -5.1625
 176   2.0000      -0.180017        -4.8985
 177   2.0000      -0.074245        -2.0203
 178   2.0000      -0.057807        -1.5730
 179   0.0000       0.028756         0.7825
 180   0.0000       0.067071         1.8251
 181   0.0000       0.091642         2.4937
 182   0.0000       0.107929         2.9369
 183   0.0000       0.112970         3.0741

MULLIKEN ATOMIC CHARGES
-----------------------
   0 C :    0.208513
   1 N :   -0.453455
   2 C :   -0.064046
   3 N :   -0.336534
   4 C :   -0.048256
   5 N :   -0.563633
   6 C :   -0.111971
   7 N :   -0.339870
   8 C :    0.205731
   9 N :   -0.562508
  10 C :    0.118218
  11 N :   -0.438117
  12 C :   -0.083748
  13 N :   -0.431855
  14 C :    0.236085
  15 N :   -0.441144
  16 C :    0.228185
  17 C :   -0.112151
  18 C :   -0.199828
  19 C :    0.229594
  20 C :    0.212572
  21 C :   -0.094631
  22 C :   -0.090649
  23 C :   -0.041229
  24 C :    0.196105
  25 C :    0.114406
  26 C :   -0.078125
  27 C :    0.213568
  28 C :   -0.059920
  29 C :   -0.180329
  30 C :    0.243809
  31 C :    0.226152
  32 C :   -0.062394
  33 C :   -0.065172
  34 C :   -0.050580
  35 C :    0.222566
  36 C :    0.109574
  37 C :   -0.064922
  38 C :    0.232782
  39 C :   -0.058721
  40 C :   -0.182931
  41 C :    0.224705
  42 C :    0.198254
  43 C :   -0.072567
  44 C :   -0.089847
  45 C :   -0.059511
  46 C :    0.209522
  47 C :    0.115502
  48 C :   -0.068540
  49 C :    0.236261
  50 C :   -0.047922
  51 C :   -0.191259
  52 H :    0.041787
  53 H :   -0.016099
  54 H :    0.049570
  55 H :    0.039754
  56 H :    0.050319
  57 H :    0.048726
  58 H :    0.048916
  59 H :    0.000936
  60 H :    0.052406
  61 H :    0.171409
  62 H :    0.174967
  63 H :    0.055639
  64 H :   -0.008074
  65 H :    0.047535
  66 H :    0.056303
  67 H :    0.062525
  68 H :    0.057561
  69 H :    0.056932
  70 H :   -0.028603
  71 H :    0.045393
  72 H :    0.068059
  73 H :   -0.009146
  74 H :    0.057386
  75 H :    0.067357
  76 H :    0.072050
  77 H :    0.065805
  78 H :    0.065061
  79 H :   -0.015859
  80 H :    0.058148
  81 H :    0.053785
  82 H :   -0.024566
  83 H :    0.042028
  84 H :    0.053814
  85 H :    0.060357
  86 H :    0.055579
  87 H :    0.056875
  88 H :   -0.015832
  89 H :    0.045456
Sum of atomic charges:   -0.0000000

LOEWDIN ATOMIC CHARGES
----------------------
   0 C :   -0.019175
   1 N :    0.118594
   2 C :   -0.101263
   3 N :    0.183182
   4 C :   -0.003258
   5 N :   -0.133132
   6 C :   -0.039218
   7 N :    0.176070
   8 C :   -0.021681
   9 N :   -0.140274
  10 C :    0.024273
  11 N :    0.142674
  12 C :   -0.112317
  13 N :    0.160666
  14 C :   -0.031079
  15 N :    0.138303
  16 C :   -0.057400
  17 C :   -0.039831
  18 C :   -0.102984
  19 C :   -0.082459
  20 C :    0.003978
  21 C :   -0.119549
  22 C :    0.037706
  23 C :   -0.015404
  24 C :   -0.010208
  25 C :    0.029982
  26 C :   -0.106725
  27 C :   -0.112893
  28 C :   -0.026307
  29 C :   -0.100919
  30 C :   -0.033312
  31 C :    0.019477
  32 C :   -0.095235
  33 C :    0.072445
  34 C :   -0.015933
  35 C :    0.016595
  36 C :    0.033991
  37 C :   -0.095785
  38 C :   -0.049436
  39 C :   -0.019387
  40 C :   -0.108305
  41 C :   -0.092160
  42 C :   -0.009884
  43 C :   -0.100369
  44 C :    0.032623
  45 C :   -0.026959
  46 C :    0.000019
  47 C :    0.029373
  48 C :   -0.096811
  49 C :   -0.073607
  50 C :   -0.020079
  51 C :   -0.108704
  52 H :    0.024595
  53 H :    0.003319
  54 H :    0.040600
  55 H :    0.023855
  56 H :    0.022135
  57 H :    0.026732
  58 H :    0.027856
  59 H :    0.009962
  60 H :    0.042275
  61 H :    0.060127
  62 H :    0.061595
  63 H :    0.030836
  64 H :    0.005039
  65 H :    0.045966
  66 H :    0.029613
  67 H :    0.028292
  68 H :    0.031774
  69 H :    0.030541
  70 H :   -0.003964
  71 H :    0.043804
  72 H :    0.036194
  73 H :    0.006569
  74 H :    0.049429
  75 H :    0.035732
  76 H :    0.033308
  77 H :    0.035152
  78 H :    0.034823
  79 H :    0.003319
  80 H :    0.049343
  81 H :    0.028862
  82 H :   -0.002557
  83 H :    0.042660
  84 H :    0.029653
  85 H :    0.027131
  86 H :    0.030181
  87 H :    0.031247
  88 H :    0.001742
  89 H :    0.044349

  Mayer bond orders larger than 0.100000
B(  0-C ,  1-N ) :   1.0939 B(  0-C , 17-C ) :   1.6977 B(  0-C , 52-H ) :   0.9673
B(  1-N ,  8-C ) :   1.0903 B(  1-N , 10-C ) :   0.9761 B(  2-C , 12-C ) :   1.5115
B(  2-C , 16-C ) :   1.3521 B(  2-C , 53-H ) :   0.9756 B(  3-N , 14-C ) :   1.2172
B(  3-N , 16-C ) :   1.1911 B(  3-N , 61-H ) :   0.8990 B(  4-C ,  6-C ) :   1.2175
B(  4-C , 17-C ) :   1.2172 B(  4-C , 18-C ) :   1.4170 B(  5-N , 19-C ) :   1.4488
B(  5-N , 27-C ) :   1.3818 B(  6-C ,  8-C ) :   1.6969 B(  6-C , 54-H ) :   0.9608
B(  7-N , 30-C ) :   1.1953 B(  7-N , 38-C ) :   1.1928 B(  7-N , 62-H ) :   0.8971
B(  8-C , 55-H ) :   0.9681 B(  9-N , 41-C ) :   1.3963 B(  9-N , 49-C ) :   1.4241
B( 10-C , 56-H ) :   0.9769 B( 10-C , 57-H ) :   0.9821 B( 10-C , 58-H ) :   0.9843
B( 11-N , 20-C ) :   1.1301 B( 11-N , 24-C ) :   1.1101 B( 11-N , 25-C ) :   0.9597
B( 12-C , 14-C ) :   1.3525 B( 12-C , 59-H ) :   0.9740 B( 13-N , 31-C ) :   1.1530
B( 13-N , 35-C ) :   1.1495 B( 13-N , 36-C ) :   0.9455 B( 14-C , 18-C ) :   1.1379
B( 15-N , 42-C ) :   1.1087 B( 15-N , 46-C ) :   1.1213 B( 15-N , 47-C ) :   0.9618
B( 16-C , 51-C ) :   1.1750 B( 17-C , 60-H ) :   0.9592 B( 18-C , 19-C ) :   1.1440
B( 19-C , 21-C ) :   1.2405 B( 20-C , 28-C ) :   1.6272 B( 20-C , 63-H ) :   0.9703
B( 21-C , 26-C ) :   1.6141 B( 21-C , 64-H ) :   0.9690 B( 22-C , 23-C ) :   1.2890
B( 22-C , 28-C ) :   1.2662 B( 22-C , 29-C ) :   1.2229 B( 23-C , 24-C ) :   1.6192
B( 23-C , 65-H ) :   0.9704 B( 24-C , 66-H ) :   0.9694 B( 25-C , 67-H ) :   0.9760
B( 25-C , 68-H ) :   0.9828 B( 25-C , 69-H ) :   0.9823 B( 26-C , 27-C ) :   1.2363
B( 26-C , 70-H ) :   0.9712 B( 27-C , 29-C ) :   1.2170 B( 28-C , 71-H ) :   0.9719
B( 29-C , 30-C ) :   1.2366 B( 30-C , 32-C ) :   1.2875 B( 31-C , 39-C ) :   1.5977
B( 31-C , 72-H ) :   0.9685 B( 32-C , 37-C ) :   1.5714 B( 32-C , 73-H ) :   0.9784
B( 33-C , 34-C ) :   1.3003 B( 33-C , 39-C ) :   1.2955 B( 33-C , 40-C ) :   1.1921
B( 34-C , 35-C ) :   1.5948 B( 34-C , 74-H ) :   0.9698 B( 35-C , 75-H ) :   0.9685
B( 36-C , 76-H ) :   0.9767 B( 36-C , 77-H ) :   0.9817 B( 36-C , 78-H ) :   0.9825
B( 37-C , 38-C ) :   1.2917 B( 37-C , 79-H ) :   0.9768 B( 38-C , 40-C ) :   1.2274
B( 39-C , 80-H ) :   0.9708 B( 40-C , 41-C ) :   1.2441 B( 41-C , 43-C ) :   1.1909
B( 42-C , 50-C ) :   1.6340 B( 42-C , 81-H ) :   0.9697 B( 43-C , 48-C ) :   1.6614
B( 43-C , 82-H ) :   0.9725 B( 44-C , 45-C ) :   1.2645 B( 44-C , 50-C ) :   1.2706
B( 44-C , 51-C ) :   1.2608 B( 45-C , 46-C ) :   1.6351 B( 45-C , 83-H ) :   0.9717
B( 46-C , 84-H ) :   0.9700 B( 47-C , 85-H ) :   0.9762 B( 47-C , 86-H ) :   0.9829
B( 47-C , 87-H ) :   0.9825 B( 48-C , 49-C ) :   1.1940 B( 48-C , 88-H ) :   0.9747
B( 49-C , 51-C ) :   1.2374 B( 50-C , 89-H ) :   0.9710

MP2 TOTAL ENERGY:    -2130.894175602 Eh
FINAL SINGLE POINT ENERGY     -2130.894175601641

DIPOLE MOMENT
-------------
                                X             Y             Z
Electronic contribution:      2.00514      -3.62718      -0.15642
Nuclear contribution   :      0.07806       0.23982       0.15788
                        -----------------------------------------
Total Dipole Moment    :      2.08320      -3.38736       0.00146
                        -----------------------------------------
Magnitude (a.u.)       :      3.97667
Magnitude (Debye)      :     10.10790

Rotational constants in cm-1:     0.001500     0.001478     0.000761
Rotational constants in MHz :    44.971271    44.301333    22.807214

                             ****ORCA TERMINATED NORMALLY****
TOTAL RUN TIME: 0 days 1 hours 14 minutes 39 seconds 402 msec
