                         Program Version 5.0.4 -  RELEASE  -
|  1> ! PAL2
|  2> ! mp2 cc-pvdz TightSCF  NoKeepInts
|  3>
|  4> %scf
|  5>   MaxCore 2000
|  6> end
|  7> %mp2
|  8>   MaxCore 2000
|  9> end
| 10> * xyz 0 1
| 11>    C       -4.02300         5.79500         1.24700
| 12>    C        1.47400         4.04100         0.05700
| 13>    C       -2.80200         4.09300         0.04900
| 14>    C       -3.19300         4.72300        -1.14200
| 15>    C       -3.97600         5.85900        -1.10100
| 16>    C       -5.19000         7.61800         0.09300
| 17>    C        0.13200         4.30700         0.06100
| 18>    C       -0.56900         3.05600         0.04700
| 19>    C        1.64900         2.61800         0.02300
| 20>    C       -3.23600         4.66000         1.25700
| 21>    N       -4.38300         6.37800         0.08100
| 22>    N        0.38800         2.06700         0.02500
| 23>    N       -2.01000         0.39500        -0.07500
| 24>    N       -0.38800        -2.07400        -0.02700
| 25>    N        2.01000        -0.40100         0.06500
| 26>    C       -1.96000         2.86100         0.02400
| 27>    C       -2.62300         1.61500        -0.01800
| 28>    C       -5.57300        -4.32900         1.06600
| 29>    C       -4.07300         1.47100         0.05600
| 30>    C       -4.10600        -2.75600        -0.02600
| 31>    C       -4.99500        -2.75700        -1.11100
| 32>    C       -6.13200        -3.54200        -1.07600
| 33>    C       -7.65100        -5.11300         0.04000
| 34>    C       -4.32400         0.14100         0.03700
| 35>    C       -3.02500        -0.52000        -0.04800
| 36>    C       -4.42200        -3.56600         1.07500
| 37>    N       -6.40700        -4.31300         0.00100
| 38>    C       -2.86700        -1.92200        -0.04000
| 39>    C       -1.65000        -2.62400        -0.02700
| 40>    C        3.56800        -6.14200        -1.04000
| 41>    C       -1.47600        -4.04900        -0.03400
| 42>    C        2.80300        -4.09900        -0.00800
| 43>    C        3.65700        -4.38400         1.06900
| 44>    C        4.42700        -5.53000         1.05900
| 45>    C        5.24500        -7.58800         0.01400
| 46>    C       -0.13400        -4.31500        -0.02200
| 47>    C        0.56800        -3.06400        -0.02700
| 48>    C        2.77500        -5.01200        -1.07400
| 49>    N        4.37600        -6.39100         0.01700
| 50>    C        1.95900        -2.86900        -0.00900
| 51>    C        2.62100        -1.62200         0.00900
| 52>    C        5.54300         4.33900        -1.13000
| 53>    C        4.07000        -1.47900        -0.09400
| 54>    C        4.10400         2.75100        -0.02100
| 55>    C        5.02700         2.72900         1.03600
| 56>    C        6.16600         3.50900         0.97800
| 57>    C        7.61900         5.15300        -0.11500
| 58>    C        4.32100        -0.14800        -0.09200
| 59>    C        3.02500         0.51400         0.01500
| 60>    C        4.38700         3.58200        -1.11500
| 61>    C        2.86600         1.91600         0.01300
| 62>    N        6.41300         4.29600        -0.09500
| 63>    H       -4.39100         6.25900         2.15400
| 64>    H        2.27400         4.76600         0.08100
| 65>    H       -2.88200         4.33900        -2.10600
| 66>    H       -4.29500         6.38500        -1.99200
| 67>    H       -4.51900         8.47900         0.06500
| 68>    H       -5.84100         7.62100        -0.78100
| 69>    H       -5.78800         7.63800         1.00400
| 70>    H       -0.33200         5.28200         0.06900
| 71>    H       -2.97900         4.21200         2.21000
| 72>    H        0.18200         1.07200         0.00500
| 73>    H       -0.18300        -1.08000        -0.02100
| 74>    H       -5.86400        -4.96200         1.89500
| 75>    H       -4.79400         2.27200         0.13900
| 76>    H       -4.80000        -2.16000        -1.99400
| 77>    H       -6.84100        -3.58200        -1.89300
| 78>    H       -8.42800        -4.53600         0.54600
| 79>    H       -7.95600        -5.33700        -0.98100
| 80>    H       -7.45600        -6.03700         0.58400
| 81>    H       -5.28700        -0.34400         0.10000
| 82>    H       -3.78000        -3.60100         1.94700
| 83>    H        3.58700        -6.86800        -1.84300
| 84>    H       -2.27600        -4.77400        -0.05000
| 85>    H        3.71400        -3.72400         1.92600
| 86>    H        5.09200        -5.79500         1.87100
| 87>    H        6.20500        -7.32900        -0.43900
| 88>    H        5.39300        -7.91700         1.04200
| 89>    H        4.75900        -8.37300        -0.56400
| 90>    H        0.32900        -5.29000        -0.00800
| 91>    H        2.14600        -4.84200        -1.94000
| 92>    H        5.80800         4.98600        -1.95600
| 93>    H        4.78800        -2.28100        -0.18500
| 94>    H        4.86000         2.11400         1.91200
| 95>    H        6.90100         3.53100         1.77200
| 96>    H        7.38300         6.10900         0.35600
| 97>    H        8.41400         4.65200         0.43500
| 98>    H        7.92100         5.31000        -1.15000
| 99>    H        5.28300         0.33600        -0.17900
|100>    H        3.72000         3.63200        -1.96700
|101> *
|102>
|103>                          ****END OF INPUT****

CARTESIAN COORDINATES (ANGSTROEM)
---------------------------------
  C     -4.023000    5.795000    1.247000
  C      1.474000    4.041000    0.057000
  C     -2.802000    4.093000    0.049000
  C     -3.193000    4.723000   -1.142000
  C     -3.976000    5.859000   -1.101000
  C     -5.190000    7.618000    0.093000
  C      0.132000    4.307000    0.061000
  C     -0.569000    3.056000    0.047000
  C      1.649000    2.618000    0.023000
  C     -3.236000    4.660000    1.257000
  N     -4.383000    6.378000    0.081000
  N      0.388000    2.067000    0.025000
  N     -2.010000    0.395000   -0.075000
  N     -0.388000   -2.074000   -0.027000
  N      2.010000   -0.401000    0.065000
  C     -1.960000    2.861000    0.024000
  C     -2.623000    1.615000   -0.018000
  C     -5.573000   -4.329000    1.066000
  C     -4.073000    1.471000    0.056000
  C     -4.106000   -2.756000   -0.026000
  C     -4.995000   -2.757000   -1.111000
  C     -6.132000   -3.542000   -1.076000
  C     -7.651000   -5.113000    0.040000
  C     -4.324000    0.141000    0.037000
  C     -3.025000   -0.520000   -0.048000
  C     -4.422000   -3.566000    1.075000
  N     -6.407000   -4.313000    0.001000
  C     -2.867000   -1.922000   -0.040000
  C     -1.650000   -2.624000   -0.027000
  C      3.568000   -6.142000   -1.040000
  C     -1.476000   -4.049000   -0.034000
  C      2.803000   -4.099000   -0.008000
  C      3.657000   -4.384000    1.069000
  C      4.427000   -5.530000    1.059000
  C      5.245000   -7.588000    0.014000
  C     -0.134000   -4.315000   -0.022000
  C      0.568000   -3.064000   -0.027000
  C      2.775000   -5.012000   -1.074000
  N      4.376000   -6.391000    0.017000
  C      1.959000   -2.869000   -0.009000
  C      2.621000   -1.622000    0.009000
  C      5.543000    4.339000   -1.130000
  C      4.070000   -1.479000   -0.094000
  C      4.104000    2.751000   -0.021000
  C      5.027000    2.729000    1.036000
  C      6.166000    3.509000    0.978000
  C      7.619000    5.153000   -0.115000
  C      4.321000   -0.148000   -0.092000
  C      3.025000    0.514000    0.015000
  C      4.387000    3.582000   -1.115000
  C      2.866000    1.916000    0.013000
  N      6.413000    4.296000   -0.095000
  H     -4.391000    6.259000    2.154000
  H      2.274000    4.766000    0.081000
  H     -2.882000    4.339000   -2.106000
  H     -4.295000    6.385000   -1.992000
  H     -4.519000    8.479000    0.065000
  H     -5.841000    7.621000   -0.781000
  H     -5.788000    7.638000    1.004000
  H     -0.332000    5.282000    0.069000
  H     -2.979000    4.212000    2.210000
  H      0.182000    1.072000    0.005000
  H     -0.183000   -1.080000   -0.021000
  H     -5.864000   -4.962000    1.895000
  H     -4.794000    2.272000    0.139000
  H     -4.800000   -2.160000   -1.994000
  H     -6.841000   -3.582000   -1.893000
  H     -8.428000   -4.536000    0.546000
  H     -7.956000   -5.337000   -0.981000
  H     -7.456000   -6.037000    0.584000
  H     -5.287000   -0.344000    0.100000
  H     -3.780000   -3.601000    1.947000
  H      3.587000   -6.868000   -1.843000
  H     -2.276000   -4.774000   -0.050000
  H      3.714000   -3.724000    1.926000
  H      5.092000   -5.795000    1.871000
  H      6.205000   -7.329000   -0.439000
  H      5.393000   -7.917000    1.042000
  H      4.759000   -8.373000   -0.564000
  H      0.329000   -5.290000   -0.008000
  H      2.146000   -4.842000   -1.940000
  H      5.808000    4.986000   -1.956000
  H      4.788000   -2.281000   -0.185000
  H      4.860000    2.114000    1.912000
  H      6.901000    3.531000    1.772000
  H      7.383000    6.109000    0.356000
  H      8.414000    4.652000    0.435000
  H      7.921000    5.310000   -1.150000
  H      5.283000    0.336000   -0.179000
  H      3.720000    3.632000   -1.967000

 Total Charge           Charge          ....    0
 Multiplicity           Mult            ....    1
 Number of Electrons    NEL             ....  358
 Basis Dimension        Dim             ....  918

ORBITAL ENERGIES
----------------

  NO   OCC          E(Eh)            E(eV)
   0   2.0000     -15.721408      -427.8013
   1   2.0000     -15.628040      -425.2606
   2   2.0000     -15.618326      -424.9963
   3   2.0000     -15.575642      -423.8348
   4   2.0000     -15.520820      -422.3430
   5   2.0000     -15.503895      -421.8824
   6   2.0000     -15.451418      -420.4545
   7   2.0000     -15.426543      -419.7776
   8   2.0000     -11.358350      -309.0764
   9   2.0000     -11.357862      -309.0631
  10   2.0000     -11.351046      -308.8777
  11   2.0000     -11.314928      -307.8948
  12   2.0000     -11.296124      -307.3832
  13   2.0000     -11.290375      -307.2267
  14   2.0000     -11.289459      -307.2018
  15   2.0000     -11.287328      -307.1438
  16   2.0000     -11.287296      -307.1429
  17   2.0000     -11.281354      -306.9813
  18   2.0000     -11.279977      -306.9438
  19   2.0000     -11.270972      -306.6987
  20   2.0000     -11.262577      -306.4703
  21   2.0000     -11.242326      -305.9192
  22   2.0000     -11.238630      -305.8187
  23   2.0000     -11.231824      -305.6335
  24   2.0000     -11.226469      -305.4877
  25   2.0000     -11.225576      -305.4635
  26   2.0000     -11.222638      -305.3835
  27   2.0000     -11.218764      -305.2781
  28   2.0000     -11.218447      -305.2695
  29   2.0000     -11.211585      -305.0827
  30   2.0000     -11.209695      -305.0313
  31   2.0000     -11.195864      -304.6550
  32   2.0000     -11.194761      -304.6249
  33   2.0000     -11.193425      -304.5886
  34   2.0000     -11.187538      -304.4284
  35   2.0000     -11.186781      -304.4078
  36   2.0000     -11.182262      -304.2848
  37   2.0000     -11.179475      -304.2090
  38   2.0000     -11.179424      -304.2076
  39   2.0000     -11.178343      -304.1782
  40   2.0000     -11.170634      -303.9684
  41   2.0000     -11.165530      -303.8295
  42   2.0000     -11.164421      -303.7994
  43   2.0000     -11.162128      -303.7369
  44   2.0000     -11.160520      -303.6932
  45   2.0000     -11.144177      -303.2485
  46   2.0000     -11.143559      -303.2317
  47   2.0000     -11.140309      -303.1432
  48   2.0000     -11.136811      -303.0480
  49   2.0000     -11.130358      -302.8724
  50   2.0000     -11.116257      -302.4887
  51   2.0000     -11.110465      -302.3311
  52   2.0000      -1.392796       -37.8999
  53   2.0000      -1.316359       -35.8199
  54   2.0000      -1.307367       -35.5753
  55   2.0000      -1.271053       -34.5871
  56   2.0000      -1.224709       -33.3260
  57   2.0000      -1.199918       -32.6514
  58   2.0000      -1.178763       -32.0758
  59   2.0000      -1.165920       -31.7263
  60   2.0000      -1.136509       -30.9260
  61   2.0000      -1.110445       -30.2167
  62   2.0000      -1.105734       -30.0886
  63   2.0000      -1.097150       -29.8550
  64   2.0000      -1.065363       -28.9900
  65   2.0000      -1.058346       -28.7991
  66   2.0000      -1.040844       -28.3228
  67   2.0000      -1.032325       -28.0910
  68   2.0000      -1.015369       -27.6296
  69   2.0000      -1.003842       -27.3159
  70   2.0000      -0.998323       -27.1658
  71   2.0000      -0.995395       -27.0861
  72   2.0000      -0.985697       -26.8222
  73   2.0000      -0.975728       -26.5509
  74   2.0000      -0.964506       -26.2455
  75   2.0000      -0.961100       -26.1529
  76   2.0000      -0.950663       -25.8689
  77   2.0000      -0.940283       -25.5864
  78   2.0000      -0.936328       -25.4788
  79   2.0000      -0.919432       -25.0190
  80   2.0000      -0.911951       -24.8154
  81   2.0000      -0.891532       -24.2598
  82   2.0000      -0.886938       -24.1348
  83   2.0000      -0.867991       -23.6192
  84   2.0000      -0.859852       -23.3978
  85   2.0000      -0.846109       -23.0238
  86   2.0000      -0.828907       -22.5557
  87   2.0000      -0.825913       -22.4742
  88   2.0000      -0.819983       -22.3129
  89   2.0000      -0.794208       -21.6115
  90   2.0000      -0.785606       -21.3774
  91   2.0000      -0.772881       -21.0312
  92   2.0000      -0.741304       -20.1719
  93   2.0000      -0.733544       -19.9607
  94   2.0000      -0.729002       -19.8372
  95   2.0000      -0.724363       -19.7109
  96   2.0000      -0.715978       -19.4827
  97   2.0000      -0.711393       -19.3580
  98   2.0000      -0.706563       -19.2266
  99   2.0000      -0.705408       -19.1951
 100   2.0000      -0.695812       -18.9340
 101   2.0000      -0.687985       -18.7210
 102   2.0000      -0.683901       -18.6099
 103   2.0000      -0.675741       -18.3878
 104   2.0000      -0.672138       -18.2898
 105   2.0000      -0.672085       -18.2884
 106   2.0000      -0.666590       -18.1388
 107   2.0000      -0.661411       -17.9979
 108   2.0000      -0.651963       -17.7408
 109   2.0000      -0.648753       -17.6535
 110   2.0000      -0.648377       -17.6432
 111   2.0000      -0.641861       -17.4659
 112   2.0000      -0.640436       -17.4271
 113   2.0000      -0.635544       -17.2940
 114   2.0000      -0.633587       -17.2408
 115   2.0000      -0.628976       -17.1153
 116   2.0000      -0.627056       -17.0631
 117   2.0000      -0.614365       -16.7177
 118   2.0000      -0.610681       -16.6175
 119   2.0000      -0.608651       -16.5622
 120   2.0000      -0.608099       -16.5472
 121   2.0000      -0.600512       -16.3408
 122   2.0000      -0.593537       -16.1510
 123   2.0000      -0.589124       -16.0309
 124   2.0000      -0.584056       -15.8930
 125   2.0000      -0.577961       -15.7271
 126   2.0000      -0.574499       -15.6329
 127   2.0000      -0.571791       -15.5592
 128   2.0000      -0.570531       -15.5249
 129   2.0000      -0.569134       -15.4869
 130   2.0000      -0.556231       -15.1358
 131   2.0000      -0.542611       -14.7652
 132   2.0000      -0.542003       -14.7486
 133   2.0000      -0.538063       -14.6414
 134   2.0000      -0.533452       -14.5160
 135   2.0000      -0.529094       -14.3974
 136   2.0000      -0.519580       -14.1385
 137   2.0000      -0.515561       -14.0291
 138   2.0000      -0.513800       -13.9812
 139   2.0000      -0.511773       -13.9261
 140   2.0000      -0.509580       -13.8664
 141   2.0000      -0.503322       -13.6961
 142   2.0000      -0.501066       -13.6347
 143   2.0000      -0.497393       -13.5347
 144   2.0000      -0.495292       -13.4776
 145   2.0000      -0.492445       -13.4001
 146   2.0000      -0.488185       -13.2842
 147   2.0000      -0.472911       -12.8686
 148   2.0000      -0.469770       -12.7831
 149   2.0000      -0.465829       -12.6759
 150   2.0000      -0.462869       -12.5953
 151   2.0000      -0.459956       -12.5160
 152   2.0000      -0.451895       -12.2967
 153   2.0000      -0.440728       -11.9928
 154   2.0000      -0.432511       -11.7692
 155   2.0000      -0.430765       -11.7217
 156   2.0000      -0.418793       -11.3959
 157   2.0000      -0.416518       -11.3340
 158   2.0000      -0.410917       -11.1816
 159   2.0000      -0.410736       -11.1767
 160   2.0000      -0.381330       -10.3765
 161   2.0000      -0.369253       -10.0479
 162   2.0000      -0.353068        -9.6075
 163   2.0000      -0.351518        -9.5653
 164   2.0000      -0.345440        -9.3999
 165   2.0000      -0.341754        -9.2996
 166   2.0000      -0.337777        -9.1914
 167   2.0000      -0.316328        -8.6077
 168   2.0000      -0.311610        -8.4793
 169   2.0000      -0.305248        -8.3062
 170   2.0000      -0.298020        -8.1095
 171   2.0000      -0.282343        -7.6829
 172   2.0000      -0.275181        -7.4881
 173   2.0000      -0.266620        -7.2551
 174   2.0000      -0.228600        -6.2205
 175   2.0000      -0.182863        -4.9760
 176   2.0000      -0.173080        -4.7098
 177   2.0000      -0.062696        -1.7060
 178   2.0000      -0.050723        -1.3802
 179   0.0000       0.036330         0.9886
 180   0.0000       0.053959         1.4683
 181   0.0000       0.072635         1.9765
 182   0.0000       0.098680         2.6852
 183   0.0000       0.102388         2.7861

MULLIKEN ATOMIC CHARGES
-----------------------
   0 C :    0.237816
   1 N :   -0.409699
   2 C :   -0.066310
   3 N :   -0.344426
   4 C :   -0.065666
   5 N :   -0.566328
   6 C :   -0.027132
   7 N :   -0.336770
   8 C :    0.236600
   9 N :   -0.566501
  10 C :    0.102673
  11 N :   -0.440275
  12 C :   -0.057943
  13 N :   -0.452122
  14 C :    0.218845
  15 N :   -0.441865
  16 C :    0.258455
  17 C :   -0.029773
  18 C :   -0.174691
  19 C :    0.230336
  20 C :    0.185422
  21 C :   -0.067207
  22 C :   -0.092498
  23 C :   -0.069561
  24 C :    0.217707
  25 C :    0.115237
  26 C :   -0.064671
  27 C :    0.250468
  28 C :   -0.038613
  29 C :   -0.198121
  30 C :    0.219274
  31 C :    0.185613
  32 C :   -0.064330
  33 C :   -0.104641
  34 C :   -0.050518
  35 C :    0.175850
  36 C :    0.121734
  37 C :   -0.071026
  38 C :    0.245248
  39 C :   -0.065777
  40 C :   -0.205980
  41 C :    0.215804
  42 C :    0.212829
  43 C :   -0.077825
  44 C :   -0.093025
  45 C :   -0.036748
  46 C :    0.181594
  47 C :    0.116957
  48 C :   -0.082785
  49 C :    0.205687
  50 C :   -0.069293
  51 C :   -0.188455
  52 H :    0.084940
  53 H :   -0.005944
  54 H :    0.068973
  55 H :    0.083165
  56 H :    0.087677
  57 H :    0.078109
  58 H :    0.076777
  59 H :   -0.030568
  60 H :    0.069953
  61 H :    0.177684
  62 H :    0.167183
  63 H :    0.051666
  64 H :   -0.035755
  65 H :    0.039378
  66 H :    0.053944
  67 H :    0.057120
  68 H :    0.055335
  69 H :    0.058563
  70 H :   -0.011892
  71 H :    0.045893
  72 H :    0.035400
  73 H :   -0.019645
  74 H :    0.027488
  75 H :    0.034037
  76 H :    0.044487
  77 H :    0.044759
  78 H :    0.044009
  79 H :   -0.011507
  80 H :    0.027200
  81 H :    0.049699
  82 H :   -0.023005
  83 H :    0.042417
  84 H :    0.048581
  85 H :    0.053474
  86 H :    0.056234
  87 H :    0.054025
  88 H :   -0.031342
  89 H :    0.037911
Sum of atomic charges:   -0.0000000

LOEWDIN ATOMIC CHARGES
----------------------
   0 C :    0.042234
   1 N :    0.199028
   2 C :   -0.097930
   3 N :    0.170290
   4 C :    0.127385
   5 N :   -0.149085
   6 C :   -0.010512
   7 N :    0.177446
   8 C :    0.042047
   9 N :   -0.138424
  10 C :    0.041397
  11 N :    0.137832
  12 C :   -0.095947
  13 N :    0.110503
  14 C :   -0.063003
  15 N :    0.133827
  16 C :   -0.013829
  17 C :   -0.010824
  18 C :   -0.122327
  19 C :   -0.089279
  20 C :   -0.021279
  21 C :   -0.098527
  22 C :    0.030349
  23 C :   -0.035802
  24 C :    0.007364
  25 C :    0.028924
  26 C :   -0.090410
  27 C :   -0.050124
  28 C :   -0.014551
  29 C :   -0.119226
  30 C :   -0.067106
  31 C :   -0.029385
  32 C :   -0.100762
  33 C :   -0.011126
  34 C :   -0.027560
  35 C :   -0.038134
  36 C :    0.022413
  37 C :   -0.111153
  38 C :   -0.027777
  39 C :   -0.035505
  40 C :   -0.113983
  41 C :   -0.093621
  42 C :    0.001041
  43 C :   -0.115339
  44 C :    0.025460
  45 C :   -0.013460
  46 C :   -0.026129
  47 C :    0.027976
  48 C :   -0.115843
  49 C :   -0.120628
  50 C :   -0.035041
  51 C :   -0.107942
  52 H :    0.043415
  53 H :    0.008234
  54 H :    0.056687
  55 H :    0.043091
  56 H :    0.041438
  57 H :    0.040684
  58 H :    0.040699
  59 H :   -0.001157
  60 H :    0.057069
  61 H :    0.062888
  62 H :    0.057373
  63 H :    0.028121
  64 H :   -0.005743
  65 H :    0.040997
  66 H :    0.029526
  67 H :    0.025810
  68 H :    0.030713
  69 H :    0.031044
  70 H :    0.003902
  71 H :    0.045177
  72 H :    0.021099
  73 H :    0.001594
  74 H :    0.036950
  75 H :    0.020078
  76 H :    0.019140
  77 H :    0.025301
  78 H :    0.024996
  79 H :    0.005689
  80 H :    0.035993
  81 H :    0.027727
  82 H :   -0.001317
  83 H :    0.044086
  84 H :    0.026354
  85 H :    0.023897
  86 H :    0.030266
  87 H :    0.029877
  88 H :   -0.005670
  89 H :    0.040024

  Mayer bond orders larger than 0.100000
B(  0-C ,  1-N ) :   1.2144 B(  0-C , 17-C ) :   1.5044 B(  0-C , 52-H ) :   0.9665
B(  1-N ,  8-C ) :   1.2118 B(  1-N , 10-C ) :   0.9228 B(  2-C , 12-C ) :   1.5840
B(  2-C , 16-C ) :   1.2689 B(  2-C , 53-H ) :   0.9794 B(  3-N , 14-C ) :   1.1736
B(  3-N , 16-C ) :   1.2020 B(  3-N , 61-H ) :   0.8950 B(  4-C ,  6-C ) :   1.3630
B(  4-C , 17-C ) :   1.3687 B(  4-C , 18-C ) :   1.0426 B(  5-N , 19-C ) :   1.3621
B(  5-N , 27-C ) :   1.4501 B(  6-C ,  8-C ) :   1.5078 B(  6-C , 54-H ) :   0.9706
B(  7-N , 30-C ) :   1.1835 B(  7-N , 38-C ) :   1.2163 B(  7-N , 62-H ) :   0.9017
B(  8-C , 55-H ) :   0.9674 B(  9-N , 41-C ) :   1.4364 B(  9-N , 49-C ) :   1.3915
B( 10-C , 56-H ) :   0.9768 B( 10-C , 57-H ) :   0.9806 B( 10-C , 58-H ) :   0.9814
B( 11-N , 20-C ) :   1.0945 B( 11-N , 24-C ) :   1.1343 B( 11-N , 25-C ) :   0.9629
B( 12-C , 14-C ) :   1.2694 B( 12-C , 59-H ) :   0.9767 B( 13-N , 31-C ) :   1.0800
B( 13-N , 35-C ) :   1.0695 B( 13-N , 36-C ) :   0.9837 B( 14-C , 18-C ) :   1.2667
B( 15-N , 42-C ) :   1.1267 B( 15-N , 46-C ) :   1.0873 B( 15-N , 47-C ) :   0.9668
B( 16-C , 51-C ) :   1.2519 B( 17-C , 60-H ) :   0.9706 B( 18-C , 19-C ) :   1.3164
B( 19-C , 21-C ) :   1.1589 B( 20-C , 28-C ) :   1.6302 B( 20-C , 63-H ) :   0.9710
B( 21-C , 26-C ) :   1.6857 B( 21-C , 64-H ) :   0.9715 B( 22-C , 23-C ) :   1.2533
B( 22-C , 28-C ) :   1.2795 B( 22-C , 29-C ) :   1.2586 B( 23-C , 24-C ) :   1.6365
B( 23-C , 65-H ) :   0.9723 B( 24-C , 66-H ) :   0.9691 B( 25-C , 67-H ) :   0.9762
B( 25-C , 68-H ) :   0.9834 B( 25-C , 69-H ) :   0.9819 B( 26-C , 27-C ) :   1.1691
B( 26-C , 70-H ) :   0.9759 B( 27-C , 29-C ) :   1.2444 B( 28-C , 71-H ) :   0.9709
B( 29-C , 30-C ) :   1.1725 B( 30-C , 32-C ) :   1.3535 B( 31-C , 39-C ) :   1.6880
B( 31-C , 72-H ) :   0.9709 B( 32-C , 37-C ) :   1.5067 B( 32-C , 73-H ) :   0.9771
B( 33-C , 34-C ) :   1.2301 B( 33-C , 39-C ) :   1.2224 B( 33-C , 40-C ) :   1.3647
B( 34-C , 35-C ) :   1.6866 B( 34-C , 74-H ) :   0.9710 B( 35-C , 75-H ) :   0.9709
B( 36-C , 76-H ) :   0.9754 B( 36-C , 77-H ) :   0.9826 B( 36-C , 78-H ) :   0.9838
B( 37-C , 38-C ) :   1.3466 B( 37-C , 79-H ) :   0.9794 B( 38-C , 40-C ) :   1.1766
B( 39-C , 80-H ) :   0.9721 B( 40-C , 41-C ) :   1.1655 B( 41-C , 43-C ) :   1.2589
B( 42-C , 50-C ) :   1.6429 B( 42-C , 81-H ) :   0.9697 B( 43-C , 48-C ) :   1.5922
B( 43-C , 82-H ) :   0.9757 B( 44-C , 45-C ) :   1.2814 B( 44-C , 50-C ) :   1.2476
B( 44-C , 51-C ) :   1.2462 B( 45-C , 46-C ) :   1.6333 B( 45-C , 83-H ) :   0.9702
B( 46-C , 84-H ) :   0.9710 B( 47-C , 85-H ) :   0.9759 B( 47-C , 86-H ) :   0.9825
B( 47-C , 87-H ) :   0.9830 B( 48-C , 49-C ) :   1.2529 B( 48-C , 88-H ) :   0.9725
B( 49-C , 51-C ) :   1.1875 B( 50-C , 89-H ) :   0.9723

MP2 TOTAL ENERGY:    -2130.868609821 Eh
FINAL SINGLE POINT ENERGY     -2130.868609820698

DIPOLE MOMENT
-------------
                                X             Y             Z
Electronic contribution:     -4.82820       5.59325      -0.06429
Nuclear contribution   :      0.05625       0.22561       0.09092
                        -----------------------------------------
Total Dipole Moment    :     -4.77195       5.81886       0.02663
                        -----------------------------------------
Magnitude (a.u.)       :      7.52538
Magnitude (Debye)      :     19.12800

Rotational constants in cm-1:     0.001498     0.001472     0.000763
Rotational constants in MHz :    44.913428    44.127392    22.868538

                             ****ORCA TERMINATED NORMALLY****
TOTAL RUN TIME: 0 days 1 hours 15 minutes 54 seconds 810 msec
