                         Program Version 5.0.4 -  RELEASE  -
|  1> ! PAL2
|  2> ! mp2 cc-pvdz TightSCF  NoKeepInts
|  3>
|  4> %scf
|  5>   MaxCore 2000
|  6> end
|  7> %mp2
|  8>   MaxCore 2000
|  9> end
| 10> * xyz 0 1
| 11>    C       -3.83800         5.92200         1.23500
| 12>    C        1.47400         4.04100         0.05700
| 13>    C       -2.80200         4.09300         0.04900
| 14>    C       -3.38400         4.59200        -1.12600
| 15>    C       -4.16500         5.73100        -1.08400
| 16>    C       -5.19500         7.61500         0.09000
| 17>    C        0.13200         4.30700         0.06100
| 18>    C       -0.56900         3.05600         0.04700
| 19>    C        1.64900         2.61800         0.02300
| 20>    C       -3.04600         4.79000         1.24200
| 21>    N       -4.38500         6.37600         0.08500
| 22>    N        0.38800         2.06700         0.02500
| 23>    N       -2.01000         0.39500        -0.07500
| 24>    N       -0.38800        -2.07400        -0.02700
| 25>    N        2.01000        -0.40100         0.06500
| 26>    C       -1.96000         2.86100         0.02400
| 27>    C       -2.62300         1.61500        -0.01800
| 28>    C       -5.57300        -4.32900         1.06600
| 29>    C       -4.07300         1.47100         0.05600
| 30>    C       -4.10600        -2.75600        -0.02600
| 31>    C       -4.99500        -2.75700        -1.11100
| 32>    C       -6.13200        -3.54200        -1.07600
| 33>    C       -7.65100        -5.11300         0.04000
| 34>    C       -4.32400         0.14100         0.03700
| 35>    C       -3.02500        -0.52000        -0.04800
| 36>    C       -4.42200        -3.56600         1.07500
| 37>    N       -6.40700        -4.31300         0.00100
| 38>    C       -2.86700        -1.92200        -0.04000
| 39>    C       -1.65000        -2.62400        -0.02700
| 40>    C        3.56800        -6.14200        -1.04000
| 41>    C       -1.47600        -4.04900        -0.03400
| 42>    C        2.80300        -4.09900        -0.00800
| 43>    C        3.65700        -4.38400         1.06900
| 44>    C        4.42700        -5.53000         1.05900
| 45>    C        5.24500        -7.58800         0.01400
| 46>    C       -0.13400        -4.31500        -0.02200
| 47>    C        0.56800        -3.06400        -0.02700
| 48>    C        2.77500        -5.01200        -1.07400
| 49>    N        4.37600        -6.39100         0.01700
| 50>    C        1.95900        -2.86900        -0.00900
| 51>    C        2.62100        -1.62200         0.00900
| 52>    C        5.54300         4.33900        -1.13000
| 53>    C        4.07000        -1.47900        -0.09400
| 54>    C        4.10400         2.75100        -0.02100
| 55>    C        5.02700         2.72900         1.03600
| 56>    C        6.16600         3.50900         0.97800
| 57>    C        7.61900         5.15300        -0.11500
| 58>    C        4.32100        -0.14800        -0.09200
| 59>    C        3.02500         0.51400         0.01500
| 60>    C        4.38700         3.58200        -1.11500
| 61>    C        2.86600         1.91600         0.01300
| 62>    N        6.41300         4.29600        -0.09500
| 63>    H       -4.06300         6.48400         2.13300
| 64>    H        2.27400         4.76600         0.08100
| 65>    H       -3.22500         4.10400        -2.08000
| 66>    H       -4.62700         6.15800        -1.96500
| 67>    H       -4.54700         8.46500        -0.13700
| 68>    H       -5.97600         7.52700        -0.66500
| 69>    H       -5.64100         7.73700         1.07700
| 70>    H       -0.33200         5.28200         0.06900
| 71>    H       -2.63600         4.44700         2.18500
| 72>    H        0.18200         1.07200         0.00500
| 73>    H       -0.18300        -1.08000        -0.02100
| 74>    H       -5.86400        -4.96200         1.89500
| 75>    H       -4.79400         2.27200         0.13900
| 76>    H       -4.80000        -2.16000        -1.99400
| 77>    H       -6.84100        -3.58200        -1.89300
| 78>    H       -8.42800        -4.53600         0.54600
| 79>    H       -7.95600        -5.33700        -0.98100
| 80>    H       -7.45600        -6.03700         0.58400
| 81>    H       -5.28700        -0.34400         0.10000
| 82>    H       -3.78000        -3.60100         1.94700
| 83>    H        3.58700        -6.86800        -1.84300
| 84>    H       -2.27600        -4.77400        -0.05000
| 85>    H        3.71400        -3.72400         1.92600
| 86>    H        5.09200        -5.79500         1.87100
| 87>    H        6.20500        -7.32900        -0.43900
| 88>    H        5.39300        -7.91700         1.04200
| 89>    H        4.75900        -8.37300        -0.56400
| 90>    H        0.32900        -5.29000        -0.00800
| 91>    H        2.14600        -4.84200        -1.94000
| 92>    H        5.80800         4.98600        -1.95600
| 93>    H        4.78800        -2.28100        -0.18500
| 94>    H        4.86000         2.11400         1.91200
| 95>    H        6.90100         3.53100         1.77200
| 96>    H        7.38300         6.10900         0.35600
| 97>    H        8.41400         4.65200         0.43500
| 98>    H        7.92100         5.31000        -1.15000
| 99>    H        5.28300         0.33600        -0.17900
|100>    H        3.72000         3.63200        -1.96700
|101> *
|102>
|103>                          ****END OF INPUT****

CARTESIAN COORDINATES (ANGSTROEM)
---------------------------------
  C     -3.838000    5.922000    1.235000
  C      1.474000    4.041000    0.057000
  C     -2.802000    4.093000    0.049000
  C     -3.384000    4.592000   -1.126000
  C     -4.165000    5.731000   -1.084000
  C     -5.195000    7.615000    0.090000
  C      0.132000    4.307000    0.061000
  C     -0.569000    3.056000    0.047000
  C      1.649000    2.618000    0.023000
  C     -3.046000    4.790000    1.242000
  N     -4.385000    6.376000    0.085000
  N      0.388000    2.067000    0.025000
  N     -2.010000    0.395000   -0.075000
  N     -0.388000   -2.074000   -0.027000
  N      2.010000   -0.401000    0.065000
  C     -1.960000    2.861000    0.024000
  C     -2.623000    1.615000   -0.018000
  C     -5.573000   -4.329000    1.066000
  C     -4.073000    1.471000    0.056000
  C     -4.106000   -2.756000   -0.026000
  C     -4.995000   -2.757000   -1.111000
  C     -6.132000   -3.542000   -1.076000
  C     -7.651000   -5.113000    0.040000
  C     -4.324000    0.141000    0.037000
  C     -3.025000   -0.520000   -0.048000
  C     -4.422000   -3.566000    1.075000
  N     -6.407000   -4.313000    0.001000
  C     -2.867000   -1.922000   -0.040000
  C     -1.650000   -2.624000   -0.027000
  C      3.568000   -6.142000   -1.040000
  C     -1.476000   -4.049000   -0.034000
  C      2.803000   -4.099000   -0.008000
  C      3.657000   -4.384000    1.069000
  C      4.427000   -5.530000    1.059000
  C      5.245000   -7.588000    0.014000
  C     -0.134000   -4.315000   -0.022000
  C      0.568000   -3.064000   -0.027000
  C      2.775000   -5.012000   -1.074000
  N      4.376000   -6.391000    0.017000
  C      1.959000   -2.869000   -0.009000
  C      2.621000   -1.622000    0.009000
  C      5.543000    4.339000   -1.130000
  C      4.070000   -1.479000   -0.094000
  C      4.104000    2.751000   -0.021000
  C      5.027000    2.729000    1.036000
  C      6.166000    3.509000    0.978000
  C      7.619000    5.153000   -0.115000
  C      4.321000   -0.148000   -0.092000
  C      3.025000    0.514000    0.015000
  C      4.387000    3.582000   -1.115000
  C      2.866000    1.916000    0.013000
  N      6.413000    4.296000   -0.095000
  H     -4.063000    6.484000    2.133000
  H      2.274000    4.766000    0.081000
  H     -3.225000    4.104000   -2.080000
  H     -4.627000    6.158000   -1.965000
  H     -4.547000    8.465000   -0.137000
  H     -5.976000    7.527000   -0.665000
  H     -5.641000    7.737000    1.077000
  H     -0.332000    5.282000    0.069000
  H     -2.636000    4.447000    2.185000
  H      0.182000    1.072000    0.005000
  H     -0.183000   -1.080000   -0.021000
  H     -5.864000   -4.962000    1.895000
  H     -4.794000    2.272000    0.139000
  H     -4.800000   -2.160000   -1.994000
  H     -6.841000   -3.582000   -1.893000
  H     -8.428000   -4.536000    0.546000
  H     -7.956000   -5.337000   -0.981000
  H     -7.456000   -6.037000    0.584000
  H     -5.287000   -0.344000    0.100000
  H     -3.780000   -3.601000    1.947000
  H      3.587000   -6.868000   -1.843000
  H     -2.276000   -4.774000   -0.050000
  H      3.714000   -3.724000    1.926000
  H      5.092000   -5.795000    1.871000
  H      6.205000   -7.329000   -0.439000
  H      5.393000   -7.917000    1.042000
  H      4.759000   -8.373000   -0.564000
  H      0.329000   -5.290000   -0.008000
  H      2.146000   -4.842000   -1.940000
  H      5.808000    4.986000   -1.956000
  H      4.788000   -2.281000   -0.185000
  H      4.860000    2.114000    1.912000
  H      6.901000    3.531000    1.772000
  H      7.383000    6.109000    0.356000
  H      8.414000    4.652000    0.435000
  H      7.921000    5.310000   -1.150000
  H      5.283000    0.336000   -0.179000
  H      3.720000    3.632000   -1.967000

 Total Charge           Charge          ....    0
 Multiplicity           Mult            ....    1
 Number of Electrons    NEL             ....  358
 Basis Dimension        Dim             ....  918

ORBITAL ENERGIES
----------------

  NO   OCC          E(Eh)            E(eV)
   0   2.0000     -15.697172      -427.1418
   1   2.0000     -15.632833      -425.3910
   2   2.0000     -15.621725      -425.0887
   3   2.0000     -15.588841      -424.1939
   4   2.0000     -15.518924      -422.2914
   5   2.0000     -15.507207      -421.9726
   6   2.0000     -15.449546      -420.4035
   7   2.0000     -15.430077      -419.8737
   8   2.0000     -11.340085      -308.5794
   9   2.0000     -11.339672      -308.5682
  10   2.0000     -11.337141      -308.4993
  11   2.0000     -11.298892      -307.4585
  12   2.0000     -11.293209      -307.3038
  13   2.0000     -11.293142      -307.3020
  14   2.0000     -11.291493      -307.2571
  15   2.0000     -11.285088      -307.0828
  16   2.0000     -11.283020      -307.0266
  17   2.0000     -11.275228      -306.8146
  18   2.0000     -11.272706      -306.7459
  19   2.0000     -11.272537      -306.7413
  20   2.0000     -11.270966      -306.6986
  21   2.0000     -11.253545      -306.2245
  22   2.0000     -11.249953      -306.1268
  23   2.0000     -11.236381      -305.7575
  24   2.0000     -11.229725      -305.5763
  25   2.0000     -11.228870      -305.5531
  26   2.0000     -11.225918      -305.4728
  27   2.0000     -11.221042      -305.3401
  28   2.0000     -11.220814      -305.3339
  29   2.0000     -11.206360      -304.9405
  30   2.0000     -11.205631      -304.9207
  31   2.0000     -11.197473      -304.6987
  32   2.0000     -11.196691      -304.6775
  33   2.0000     -11.194823      -304.6266
  34   2.0000     -11.189166      -304.4727
  35   2.0000     -11.188173      -304.4457
  36   2.0000     -11.187685      -304.4324
  37   2.0000     -11.184204      -304.3377
  38   2.0000     -11.184102      -304.3349
  39   2.0000     -11.171637      -303.9957
  40   2.0000     -11.166595      -303.8585
  41   2.0000     -11.163459      -303.7732
  42   2.0000     -11.161766      -303.7271
  43   2.0000     -11.161471      -303.7191
  44   2.0000     -11.157160      -303.6018
  45   2.0000     -11.149762      -303.4005
  46   2.0000     -11.149117      -303.3829
  47   2.0000     -11.144916      -303.2686
  48   2.0000     -11.144245      -303.2503
  49   2.0000     -11.136810      -303.0480
  50   2.0000     -11.121391      -302.6284
  51   2.0000     -11.117109      -302.5119
  52   2.0000      -1.373372       -37.3714
  53   2.0000      -1.320353       -35.9286
  54   2.0000      -1.310283       -35.6546
  55   2.0000      -1.282422       -34.8965
  56   2.0000      -1.221171       -33.2297
  57   2.0000      -1.203657       -32.7532
  58   2.0000      -1.172645       -31.9093
  59   2.0000      -1.151809       -31.3423
  60   2.0000      -1.141019       -31.0487
  61   2.0000      -1.108956       -30.1762
  62   2.0000      -1.099695       -29.9242
  63   2.0000      -1.092887       -29.7390
  64   2.0000      -1.075256       -29.2592
  65   2.0000      -1.045615       -28.4526
  66   2.0000      -1.044506       -28.4225
  67   2.0000      -1.035026       -28.1645
  68   2.0000      -1.013884       -27.5892
  69   2.0000      -1.009104       -27.4591
  70   2.0000      -1.004806       -27.3422
  71   2.0000      -0.989954       -26.9380
  72   2.0000      -0.984087       -26.7784
  73   2.0000      -0.979386       -26.6505
  74   2.0000      -0.966127       -26.2897
  75   2.0000      -0.960585       -26.1388
  76   2.0000      -0.951619       -25.8949
  77   2.0000      -0.942875       -25.6569
  78   2.0000      -0.923492       -25.1295
  79   2.0000      -0.919290       -25.0151
  80   2.0000      -0.916028       -24.9264
  81   2.0000      -0.888949       -24.1895
  82   2.0000      -0.879223       -23.9249
  83   2.0000      -0.870905       -23.6985
  84   2.0000      -0.862314       -23.4647
  85   2.0000      -0.849561       -23.1177
  86   2.0000      -0.836505       -22.7624
  87   2.0000      -0.829311       -22.5667
  88   2.0000      -0.821882       -22.3645
  89   2.0000      -0.795320       -21.6418
  90   2.0000      -0.789298       -21.4779
  91   2.0000      -0.760441       -20.6927
  92   2.0000      -0.733615       -19.9627
  93   2.0000      -0.727624       -19.7997
  94   2.0000      -0.724130       -19.7046
  95   2.0000      -0.721108       -19.6223
  96   2.0000      -0.716604       -19.4998
  97   2.0000      -0.707485       -19.2517
  98   2.0000      -0.701097       -19.0778
  99   2.0000      -0.695763       -18.9327
 100   2.0000      -0.694558       -18.8999
 101   2.0000      -0.691589       -18.8191
 102   2.0000      -0.683344       -18.5947
 103   2.0000      -0.675503       -18.3814
 104   2.0000      -0.672127       -18.2895
 105   2.0000      -0.669705       -18.2236
 106   2.0000      -0.665062       -18.0973
 107   2.0000      -0.656158       -17.8550
 108   2.0000      -0.654078       -17.7984
 109   2.0000      -0.651798       -17.7363
 110   2.0000      -0.649014       -17.6606
 111   2.0000      -0.644378       -17.5344
 112   2.0000      -0.641879       -17.4664
 113   2.0000      -0.638605       -17.3773
 114   2.0000      -0.632627       -17.2147
 115   2.0000      -0.624435       -16.9917
 116   2.0000      -0.622375       -16.9357
 117   2.0000      -0.621070       -16.9002
 118   2.0000      -0.614048       -16.7091
 119   2.0000      -0.611660       -16.6441
 120   2.0000      -0.609532       -16.5862
 121   2.0000      -0.602995       -16.4083
 122   2.0000      -0.591845       -16.1049
 123   2.0000      -0.586408       -15.9570
 124   2.0000      -0.580673       -15.8009
 125   2.0000      -0.579313       -15.7639
 126   2.0000      -0.578866       -15.7518
 127   2.0000      -0.576117       -15.6769
 128   2.0000      -0.572766       -15.5858
 129   2.0000      -0.557898       -15.1812
 130   2.0000      -0.555849       -15.1254
 131   2.0000      -0.550845       -14.9893
 132   2.0000      -0.543462       -14.7884
 133   2.0000      -0.538851       -14.6629
 134   2.0000      -0.534565       -14.5463
 135   2.0000      -0.530729       -14.4419
 136   2.0000      -0.518905       -14.1201
 137   2.0000      -0.516024       -14.0417
 138   2.0000      -0.514850       -14.0098
 139   2.0000      -0.512701       -13.9513
 140   2.0000      -0.509986       -13.8774
 141   2.0000      -0.504971       -13.7410
 142   2.0000      -0.501683       -13.6515
 143   2.0000      -0.500634       -13.6229
 144   2.0000      -0.495410       -13.4808
 145   2.0000      -0.493707       -13.4344
 146   2.0000      -0.491787       -13.3822
 147   2.0000      -0.478248       -13.0138
 148   2.0000      -0.477446       -12.9920
 149   2.0000      -0.464277       -12.6336
 150   2.0000      -0.462711       -12.5910
 151   2.0000      -0.458664       -12.4809
 152   2.0000      -0.450826       -12.2676
 153   2.0000      -0.441737       -12.0203
 154   2.0000      -0.436275       -11.8716
 155   2.0000      -0.434600       -11.8261
 156   2.0000      -0.422818       -11.5055
 157   2.0000      -0.416160       -11.3243
 158   2.0000      -0.408129       -11.1058
 159   2.0000      -0.396256       -10.7827
 160   2.0000      -0.382974       -10.4213
 161   2.0000      -0.371116       -10.0986
 162   2.0000      -0.356004        -9.6874
 163   2.0000      -0.355618        -9.6769
 164   2.0000      -0.347693        -9.4612
 165   2.0000      -0.339578        -9.2404
 166   2.0000      -0.338646        -9.2150
 167   2.0000      -0.325437        -8.8556
 168   2.0000      -0.315474        -8.5845
 169   2.0000      -0.300936        -8.1889
 170   2.0000      -0.298590        -8.1250
 171   2.0000      -0.283942        -7.7265
 172   2.0000      -0.279197        -7.5973
 173   2.0000      -0.263908        -7.1813
 174   2.0000      -0.233237        -6.3467
 175   2.0000      -0.184141        -5.0107
 176   2.0000      -0.174074        -4.7368
 177   2.0000      -0.062206        -1.6927
 178   2.0000      -0.051281        -1.3954
 179   0.0000       0.034541         0.9399
 180   0.0000       0.059395         1.6162
 181   0.0000       0.086529         2.3546
 182   0.0000       0.097650         2.6572
 183   0.0000       0.103118         2.8060

MULLIKEN ATOMIC CHARGES
-----------------------
   0 C :    0.228197
   1 N :   -0.418478
   2 C :   -0.067309
   3 N :   -0.342995
   4 C :   -0.077408
   5 N :   -0.564961
   6 C :   -0.029874
   7 N :   -0.337086
   8 C :    0.227202
   9 N :   -0.565567
  10 C :    0.105446
  11 N :   -0.439113
  12 C :   -0.058897
  13 N :   -0.449448
  14 C :    0.221062
  15 N :   -0.441311
  16 C :    0.253407
  17 C :   -0.031132
  18 C :   -0.176070
  19 C :    0.226896
  20 C :    0.191742
  21 C :   -0.066477
  22 C :   -0.089279
  23 C :   -0.064689
  24 C :    0.216621
  25 C :    0.114570
  26 C :   -0.068084
  27 C :    0.243849
  28 C :   -0.041258
  29 C :   -0.195144
  30 C :    0.222971
  31 C :    0.191211
  32 C :   -0.064772
  33 C :   -0.099833
  34 C :   -0.050148
  35 C :    0.181705
  36 C :    0.120071
  37 C :   -0.069855
  38 C :    0.243705
  39 C :   -0.065029
  40 C :   -0.201876
  41 C :    0.216327
  42 C :    0.211080
  43 C :   -0.076820
  44 C :   -0.090950
  45 C :   -0.040431
  46 C :    0.187589
  47 C :    0.116475
  48 C :   -0.081690
  49 C :    0.210276
  50 C :   -0.064902
  51 C :   -0.189451
  52 H :    0.077321
  53 H :   -0.008541
  54 H :    0.061995
  55 H :    0.075889
  56 H :    0.080259
  57 H :    0.072622
  58 H :    0.071554
  59 H :   -0.027154
  60 H :    0.063362
  61 H :    0.176350
  62 H :    0.168665
  63 H :    0.053732
  64 H :   -0.032660
  65 H :    0.041743
  66 H :    0.055641
  67 H :    0.059295
  68 H :    0.056479
  69 H :    0.059206
  70 H :   -0.015585
  71 H :    0.047312
  72 H :    0.040068
  73 H :   -0.018776
  74 H :    0.031785
  75 H :    0.038774
  76 H :    0.048339
  77 H :    0.047700
  78 H :    0.046909
  79 H :   -0.011824
  80 H :    0.031567
  81 H :    0.051070
  82 H :   -0.023267
  83 H :    0.042955
  84 H :    0.050058
  85 H :    0.055137
  86 H :    0.056490
  87 H :    0.054944
  88 H :   -0.029749
  89 H :    0.040273
Sum of atomic charges:   -0.0000000

LOEWDIN ATOMIC CHARGES
----------------------
   0 C :    0.030135
   1 N :    0.182010
   2 C :   -0.099674
   3 N :    0.171999
   4 C :    0.100346
   5 N :   -0.146107
   6 C :   -0.011001
   7 N :    0.177429
   8 C :    0.030282
   9 N :   -0.138414
  10 C :    0.038165
  11 N :    0.140819
  12 C :   -0.096986
  13 N :    0.117360
  14 C :   -0.060059
  15 N :    0.135662
  16 C :   -0.021424
  17 C :   -0.011302
  18 C :   -0.118062
  19 C :   -0.089981
  20 C :   -0.014844
  21 C :   -0.099389
  22 C :    0.036373
  23 C :   -0.031901
  24 C :    0.007268
  25 C :    0.029590
  26 C :   -0.095025
  27 C :   -0.060841
  28 C :   -0.015384
  29 C :   -0.116373
  30 C :   -0.062726
  31 C :   -0.022545
  32 C :   -0.100407
  33 C :    0.000095
  34 C :   -0.025645
  35 C :   -0.030991
  36 C :    0.024010
  37 C :   -0.108562
  38 C :   -0.030419
  39 C :   -0.033342
  40 C :   -0.112658
  41 C :   -0.094418
  42 C :    0.000198
  43 C :   -0.112965
  44 C :    0.029397
  45 C :   -0.015369
  46 C :   -0.020230
  47 C :    0.028428
  48 C :   -0.114246
  49 C :   -0.113626
  50 C :   -0.031646
  51 C :   -0.108873
  52 H :    0.039825
  53 H :    0.006960
  54 H :    0.053300
  55 H :    0.039644
  56 H :    0.037565
  57 H :    0.037939
  58 H :    0.038240
  59 H :    0.000060
  60 H :    0.053885
  61 H :    0.062238
  62 H :    0.058189
  63 H :    0.029232
  64 H :   -0.004473
  65 H :    0.042292
  66 H :    0.030182
  67 H :    0.026873
  68 H :    0.031251
  69 H :    0.031395
  70 H :    0.002106
  71 H :    0.045657
  72 H :    0.023224
  73 H :    0.001998
  74 H :    0.038738
  75 H :    0.022244
  76 H :    0.021104
  77 H :    0.026670
  78 H :    0.026346
  79 H :    0.005495
  80 H :    0.037836
  81 H :    0.028228
  82 H :   -0.001507
  83 H :    0.044127
  84 H :    0.027205
  85 H :    0.024706
  86 H :    0.030423
  87 H :    0.030314
  88 H :   -0.004898
  89 H :    0.041257

  Mayer bond orders larger than 0.100000
B(  0-C ,  1-N ) :   1.1839 B(  0-C , 17-C ) :   1.5436 B(  0-C , 52-H ) :   0.9673
B(  1-N ,  8-C ) :   1.1823 B(  1-N , 10-C ) :   0.9333 B(  2-C , 12-C ) :   1.5703
B(  2-C , 16-C ) :   1.2830 B(  2-C , 53-H ) :   0.9790 B(  3-N , 14-C ) :   1.1792
B(  3-N , 16-C ) :   1.2019 B(  3-N , 61-H ) :   0.8960 B(  4-C ,  6-C ) :   1.3398
B(  4-C , 17-C ) :   1.3403 B(  4-C , 18-C ) :   1.0911 B(  5-N , 19-C ) :   1.3731
B(  5-N , 27-C ) :   1.4422 B(  6-C ,  8-C ) :   1.5431 B(  6-C , 54-H ) :   0.9709
B(  7-N , 30-C ) :   1.1852 B(  7-N , 38-C ) :   1.2134 B(  7-N , 62-H ) :   0.9008
B(  8-C , 55-H ) :   0.9684 B(  9-N , 41-C ) :   1.4293 B(  9-N , 49-C ) :   1.3981
B( 10-C , 56-H ) :   0.9765 B( 10-C , 57-H ) :   0.9812 B( 10-C , 58-H ) :   0.9819
B( 11-N , 20-C ) :   1.1033 B( 11-N , 24-C ) :   1.1344 B( 11-N , 25-C ) :   0.9608
B( 12-C , 14-C ) :   1.2839 B( 12-C , 59-H ) :   0.9774 B( 13-N , 31-C ) :   1.0894
B( 13-N , 35-C ) :   1.0791 B( 13-N , 36-C ) :   0.9784 B( 14-C , 18-C ) :   1.2522
B( 15-N , 42-C ) :   1.1250 B( 15-N , 46-C ) :   1.0951 B( 15-N , 47-C ) :   0.9652
B( 16-C , 51-C ) :   1.2381 B( 17-C , 60-H ) :   0.9710 B( 18-C , 19-C ) :   1.2939
B( 19-C , 21-C ) :   1.1734 B( 20-C , 28-C ) :   1.6263 B( 20-C , 63-H ) :   0.9707
B( 21-C , 26-C ) :   1.6731 B( 21-C , 64-H ) :   0.9726 B( 22-C , 23-C ) :   1.2615
B( 22-C , 28-C ) :   1.2805 B( 22-C , 29-C ) :   1.2505 B( 23-C , 24-C ) :   1.6303
B( 23-C , 65-H ) :   0.9720 B( 24-C , 66-H ) :   0.9690 B( 25-C , 67-H ) :   0.9763
B( 25-C , 68-H ) :   0.9833 B( 25-C , 69-H ) :   0.9819 B( 26-C , 27-C ) :   1.1799
B( 26-C , 70-H ) :   0.9752 B( 27-C , 29-C ) :   1.2375 B( 28-C , 71-H ) :   0.9710
B( 29-C , 30-C ) :   1.1840 B( 30-C , 32-C ) :   1.3425 B( 31-C , 39-C ) :   1.6750
B( 31-C , 72-H ) :   0.9707 B( 32-C , 37-C ) :   1.5169 B( 32-C , 73-H ) :   0.9772
B( 33-C , 34-C ) :   1.2403 B( 33-C , 39-C ) :   1.2323 B( 33-C , 40-C ) :   1.3371
B( 34-C , 35-C ) :   1.6731 B( 34-C , 74-H ) :   0.9709 B( 35-C , 75-H ) :   0.9707
B( 36-C , 76-H ) :   0.9756 B( 36-C , 77-H ) :   0.9825 B( 36-C , 78-H ) :   0.9837
B( 37-C , 38-C ) :   1.3380 B( 37-C , 79-H ) :   0.9790 B( 38-C , 40-C ) :   1.1848
B( 39-C , 80-H ) :   0.9721 B( 40-C , 41-C ) :   1.1768 B( 41-C , 43-C ) :   1.2498
B( 42-C , 50-C ) :   1.6396 B( 42-C , 81-H ) :   0.9696 B( 43-C , 48-C ) :   1.6013
B( 43-C , 82-H ) :   0.9752 B( 44-C , 45-C ) :   1.2795 B( 44-C , 50-C ) :   1.2533
B( 44-C , 51-C ) :   1.2493 B( 45-C , 46-C ) :   1.6321 B( 45-C , 83-H ) :   0.9704
B( 46-C , 84-H ) :   0.9708 B( 47-C , 85-H ) :   0.9760 B( 47-C , 86-H ) :   0.9826
B( 47-C , 87-H ) :   0.9829 B( 48-C , 49-C ) :   1.2449 B( 48-C , 88-H ) :   0.9727
B( 49-C , 51-C ) :   1.1938 B( 50-C , 89-H ) :   0.9720

MP2 TOTAL ENERGY:    -2130.884704856 Eh
FINAL SINGLE POINT ENERGY     -2130.884704855865

DIPOLE MOMENT
-------------
                                X             Y             Z
Electronic contribution:     -3.79588       4.01795      -0.05937
Nuclear contribution   :      0.04632       0.22049       0.08079
                        -----------------------------------------
Total Dipole Moment    :     -3.74956       4.23844       0.02142
                        -----------------------------------------
Magnitude (a.u.)       :      5.65898
Magnitude (Debye)      :     14.38398

Rotational constants in cm-1:     0.001498     0.001472     0.000763
Rotational constants in MHz :    44.922151    44.126179    22.866114

                             ****ORCA TERMINATED NORMALLY****
TOTAL RUN TIME: 0 days 1 hours 25 minutes 17 seconds 76 msec
