                         Program Version 5.0.4 -  RELEASE  -
|  1> ! PAL2
|  2> ! mp2 cc-pvdz TightSCF  NoKeepInts
|  3>
|  4> %scf
|  5>   MaxCore 2000
|  6> end
|  7> %mp2
|  8>   MaxCore 2000
|  9> end
| 10> * xyz 0 1
| 11>    C       -4.81800         5.26400         0.67300
| 12>    C        1.47400         4.04100         0.05700
| 13>    C       -2.80200         4.09300         0.04900
| 14>    C       -2.36400         5.27800        -0.56200
| 15>    C       -3.15800         6.40700        -0.53400
| 16>    C       -5.17700         7.62600         0.12000
| 17>    C        0.13200         4.30700         0.06100
| 18>    C       -0.56900         3.05600         0.04700
| 19>    C        1.64900         2.61800         0.02300
| 20>    C       -4.05700         4.11000         0.67600
| 21>    N       -4.36700         6.38900         0.07400
| 22>    N        0.38800         2.06700         0.02500
| 23>    N       -2.01000         0.39500        -0.07500
| 24>    N       -0.38800        -2.07400        -0.02700
| 25>    N        2.01000        -0.40100         0.06500
| 26>    C       -1.96000         2.86100         0.02400
| 27>    C       -2.62300         1.61500        -0.01800
| 28>    C       -5.57300        -4.32900         1.06600
| 29>    C       -4.07300         1.47100         0.05600
| 30>    C       -4.10600        -2.75600        -0.02600
| 31>    C       -4.99500        -2.75700        -1.11100
| 32>    C       -6.13200        -3.54200        -1.07600
| 33>    C       -7.65100        -5.11300         0.04000
| 34>    C       -4.32400         0.14100         0.03700
| 35>    C       -3.02500        -0.52000        -0.04800
| 36>    C       -4.42200        -3.56600         1.07500
| 37>    N       -6.40700        -4.31300         0.00100
| 38>    C       -2.86700        -1.92200        -0.04000
| 39>    C       -1.65000        -2.62400        -0.02700
| 40>    C        3.56800        -6.14200        -1.04000
| 41>    C       -1.47600        -4.04900        -0.03400
| 42>    C        2.80300        -4.09900        -0.00800
| 43>    C        3.65700        -4.38400         1.06900
| 44>    C        4.42700        -5.53000         1.05900
| 45>    C        5.24500        -7.58800         0.01400
| 46>    C       -0.13400        -4.31500        -0.02200
| 47>    C        0.56800        -3.06400        -0.02700
| 48>    C        2.77500        -5.01200        -1.07400
| 49>    N        4.37600        -6.39100         0.01700
| 50>    C        1.95900        -2.86900        -0.00900
| 51>    C        2.62100        -1.62200         0.00900
| 52>    C        5.54300         4.33900        -1.13000
| 53>    C        4.07000        -1.47900        -0.09400
| 54>    C        4.10400         2.75100        -0.02100
| 55>    C        5.02700         2.72900         1.03600
| 56>    C        6.16600         3.50900         0.97800
| 57>    C        7.61900         5.15300        -0.11500
| 58>    C        4.32100        -0.14800        -0.09200
| 59>    C        3.02500         0.51400         0.01500
| 60>    C        4.38700         3.58200        -1.11500
| 61>    C        2.86600         1.91600         0.01300
| 62>    N        6.41300         4.29600        -0.09500
| 63>    H       -5.79700         5.31900         1.13400
| 64>    H        2.27400         4.76600         0.08100
| 65>    H       -1.40100         5.33000        -1.05400
| 66>    H       -2.86000         7.34500        -0.98400
| 67>    H       -4.86900         8.22200         0.98200
| 68>    H       -5.01500         8.18700        -0.80100
| 69>    H       -6.22900         7.35300         0.21000
| 70>    H       -0.33200         5.28200         0.06900
| 71>    H       -4.45700         3.22300         1.15400
| 72>    H        0.18200         1.07200         0.00500
| 73>    H       -0.18300        -1.08000        -0.02100
| 74>    H       -5.86400        -4.96200         1.89500
| 75>    H       -4.79400         2.27200         0.13900
| 76>    H       -4.80000        -2.16000        -1.99400
| 77>    H       -6.84100        -3.58200        -1.89300
| 78>    H       -8.42800        -4.53600         0.54600
| 79>    H       -7.95600        -5.33700        -0.98100
| 80>    H       -7.45600        -6.03700         0.58400
| 81>    H       -5.28700        -0.34400         0.10000
| 82>    H       -3.78000        -3.60100         1.94700
| 83>    H        3.58700        -6.86800        -1.84300
| 84>    H       -2.27600        -4.77400        -0.05000
| 85>    H        3.71400        -3.72400         1.92600
| 86>    H        5.09200        -5.79500         1.87100
| 87>    H        6.20500        -7.32900        -0.43900
| 88>    H        5.39300        -7.91700         1.04200
| 89>    H        4.75900        -8.37300        -0.56400
| 90>    H        0.32900        -5.29000        -0.00800
| 91>    H        2.14600        -4.84200        -1.94000
| 92>    H        5.80800         4.98600        -1.95600
| 93>    H        4.78800        -2.28100        -0.18500
| 94>    H        4.86000         2.11400         1.91200
| 95>    H        6.90100         3.53100         1.77200
| 96>    H        7.38300         6.10900         0.35600
| 97>    H        8.41400         4.65200         0.43500
| 98>    H        7.92100         5.31000        -1.15000
| 99>    H        5.28300         0.33600        -0.17900
|100>    H        3.72000         3.63200        -1.96700
|101> *
|102>
|103>                          ****END OF INPUT****

CARTESIAN COORDINATES (ANGSTROEM)
---------------------------------
  C     -4.818000    5.264000    0.673000
  C      1.474000    4.041000    0.057000
  C     -2.802000    4.093000    0.049000
  C     -2.364000    5.278000   -0.562000
  C     -3.158000    6.407000   -0.534000
  C     -5.177000    7.626000    0.120000
  C      0.132000    4.307000    0.061000
  C     -0.569000    3.056000    0.047000
  C      1.649000    2.618000    0.023000
  C     -4.057000    4.110000    0.676000
  N     -4.367000    6.389000    0.074000
  N      0.388000    2.067000    0.025000
  N     -2.010000    0.395000   -0.075000
  N     -0.388000   -2.074000   -0.027000
  N      2.010000   -0.401000    0.065000
  C     -1.960000    2.861000    0.024000
  C     -2.623000    1.615000   -0.018000
  C     -5.573000   -4.329000    1.066000
  C     -4.073000    1.471000    0.056000
  C     -4.106000   -2.756000   -0.026000
  C     -4.995000   -2.757000   -1.111000
  C     -6.132000   -3.542000   -1.076000
  C     -7.651000   -5.113000    0.040000
  C     -4.324000    0.141000    0.037000
  C     -3.025000   -0.520000   -0.048000
  C     -4.422000   -3.566000    1.075000
  N     -6.407000   -4.313000    0.001000
  C     -2.867000   -1.922000   -0.040000
  C     -1.650000   -2.624000   -0.027000
  C      3.568000   -6.142000   -1.040000
  C     -1.476000   -4.049000   -0.034000
  C      2.803000   -4.099000   -0.008000
  C      3.657000   -4.384000    1.069000
  C      4.427000   -5.530000    1.059000
  C      5.245000   -7.588000    0.014000
  C     -0.134000   -4.315000   -0.022000
  C      0.568000   -3.064000   -0.027000
  C      2.775000   -5.012000   -1.074000
  N      4.376000   -6.391000    0.017000
  C      1.959000   -2.869000   -0.009000
  C      2.621000   -1.622000    0.009000
  C      5.543000    4.339000   -1.130000
  C      4.070000   -1.479000   -0.094000
  C      4.104000    2.751000   -0.021000
  C      5.027000    2.729000    1.036000
  C      6.166000    3.509000    0.978000
  C      7.619000    5.153000   -0.115000
  C      4.321000   -0.148000   -0.092000
  C      3.025000    0.514000    0.015000
  C      4.387000    3.582000   -1.115000
  C      2.866000    1.916000    0.013000
  N      6.413000    4.296000   -0.095000
  H     -5.797000    5.319000    1.134000
  H      2.274000    4.766000    0.081000
  H     -1.401000    5.330000   -1.054000
  H     -2.860000    7.345000   -0.984000
  H     -4.869000    8.222000    0.982000
  H     -5.015000    8.187000   -0.801000
  H     -6.229000    7.353000    0.210000
  H     -0.332000    5.282000    0.069000
  H     -4.457000    3.223000    1.154000
  H      0.182000    1.072000    0.005000
  H     -0.183000   -1.080000   -0.021000
  H     -5.864000   -4.962000    1.895000
  H     -4.794000    2.272000    0.139000
  H     -4.800000   -2.160000   -1.994000
  H     -6.841000   -3.582000   -1.893000
  H     -8.428000   -4.536000    0.546000
  H     -7.956000   -5.337000   -0.981000
  H     -7.456000   -6.037000    0.584000
  H     -5.287000   -0.344000    0.100000
  H     -3.780000   -3.601000    1.947000
  H      3.587000   -6.868000   -1.843000
  H     -2.276000   -4.774000   -0.050000
  H      3.714000   -3.724000    1.926000
  H      5.092000   -5.795000    1.871000
  H      6.205000   -7.329000   -0.439000
  H      5.393000   -7.917000    1.042000
  H      4.759000   -8.373000   -0.564000
  H      0.329000   -5.290000   -0.008000
  H      2.146000   -4.842000   -1.940000
  H      5.808000    4.986000   -1.956000
  H      4.788000   -2.281000   -0.185000
  H      4.860000    2.114000    1.912000
  H      6.901000    3.531000    1.772000
  H      7.383000    6.109000    0.356000
  H      8.414000    4.652000    0.435000
  H      7.921000    5.310000   -1.150000
  H      5.283000    0.336000   -0.179000
  H      3.720000    3.632000   -1.967000

 Total Charge           Charge          ....    0
 Multiplicity           Mult            ....    1
 Number of Electrons    NEL             ....  358
 Basis Dimension        Dim             ....  918

ORBITAL ENERGIES
----------------

  NO   OCC          E(Eh)            E(eV)
   0   2.0000     -15.671740      -426.4497
   1   2.0000     -15.635101      -425.4527
   2   2.0000     -15.630596      -425.3301
   3   2.0000     -15.592838      -424.3027
   4   2.0000     -15.524447      -422.4417
   5   2.0000     -15.516258      -422.2188
   6   2.0000     -15.452076      -420.4724
   7   2.0000     -15.441552      -420.1860
   8   2.0000     -11.322965      -308.1135
   9   2.0000     -11.322926      -308.1125
  10   2.0000     -11.321385      -308.0705
  11   2.0000     -11.300027      -307.4894
  12   2.0000     -11.297545      -307.4218
  13   2.0000     -11.293538      -307.3128
  14   2.0000     -11.289647      -307.2069
  15   2.0000     -11.287948      -307.1607
  16   2.0000     -11.285927      -307.1057
  17   2.0000     -11.274501      -306.7948
  18   2.0000     -11.274343      -306.7905
  19   2.0000     -11.257737      -306.3386
  20   2.0000     -11.257000      -306.3185
  21   2.0000     -11.256822      -306.3137
  22   2.0000     -11.256783      -306.3126
  23   2.0000     -11.238724      -305.8212
  24   2.0000     -11.235373      -305.7301
  25   2.0000     -11.232019      -305.6388
  26   2.0000     -11.231216      -305.6169
  27   2.0000     -11.228809      -305.5514
  28   2.0000     -11.228713      -305.5488
  29   2.0000     -11.209373      -305.0225
  30   2.0000     -11.208141      -304.9890
  31   2.0000     -11.201613      -304.8114
  32   2.0000     -11.195120      -304.6347
  33   2.0000     -11.192392      -304.5605
  34   2.0000     -11.190489      -304.5087
  35   2.0000     -11.189481      -304.4813
  36   2.0000     -11.187977      -304.4403
  37   2.0000     -11.185123      -304.3627
  38   2.0000     -11.184048      -304.3334
  39   2.0000     -11.172737      -304.0256
  40   2.0000     -11.171916      -304.0033
  41   2.0000     -11.169928      -303.9492
  42   2.0000     -11.166969      -303.8687
  43   2.0000     -11.161770      -303.7272
  44   2.0000     -11.159647      -303.6694
  45   2.0000     -11.158272      -303.6320
  46   2.0000     -11.158130      -303.6282
  47   2.0000     -11.153693      -303.5074
  48   2.0000     -11.148463      -303.3651
  49   2.0000     -11.140696      -303.1538
  50   2.0000     -11.133019      -302.9448
  51   2.0000     -11.123781      -302.6935
  52   2.0000      -1.353538       -36.8316
  53   2.0000      -1.322190       -35.9786
  54   2.0000      -1.318528       -35.8790
  55   2.0000      -1.286626       -35.0109
  56   2.0000      -1.224911       -33.3315
  57   2.0000      -1.210781       -32.9470
  58   2.0000      -1.170891       -31.8616
  59   2.0000      -1.152489       -31.3608
  60   2.0000      -1.137910       -30.9641
  61   2.0000      -1.110951       -30.2305
  62   2.0000      -1.108097       -30.1528
  63   2.0000      -1.082171       -29.4474
  64   2.0000      -1.075728       -29.2720
  65   2.0000      -1.046319       -28.4718
  66   2.0000      -1.043257       -28.3885
  67   2.0000      -1.037321       -28.2269
  68   2.0000      -1.015059       -27.6212
  69   2.0000      -1.014288       -27.6002
  70   2.0000      -1.009757       -27.4769
  71   2.0000      -0.992534       -27.0082
  72   2.0000      -0.987168       -26.8622
  73   2.0000      -0.979221       -26.6460
  74   2.0000      -0.972546       -26.4643
  75   2.0000      -0.960545       -26.1377
  76   2.0000      -0.952738       -25.9253
  77   2.0000      -0.946835       -25.7647
  78   2.0000      -0.935237       -25.4491
  79   2.0000      -0.919727       -25.0270
  80   2.0000      -0.904939       -24.6246
  81   2.0000      -0.893297       -24.3078
  82   2.0000      -0.874460       -23.7953
  83   2.0000      -0.871738       -23.7212
  84   2.0000      -0.868228       -23.6257
  85   2.0000      -0.856573       -23.3085
  86   2.0000      -0.841967       -22.9111
  87   2.0000      -0.836503       -22.7624
  88   2.0000      -0.823806       -22.4169
  89   2.0000      -0.798050       -21.7160
  90   2.0000      -0.792355       -21.5611
  91   2.0000      -0.749214       -20.3871
  92   2.0000      -0.741425       -20.1752
  93   2.0000      -0.732565       -19.9341
  94   2.0000      -0.723775       -19.6949
  95   2.0000      -0.721554       -19.6345
  96   2.0000      -0.715315       -19.4647
  97   2.0000      -0.710232       -19.3264
  98   2.0000      -0.705966       -19.2103
  99   2.0000      -0.696292       -18.9471
 100   2.0000      -0.695995       -18.9390
 101   2.0000      -0.683908       -18.6101
 102   2.0000      -0.679286       -18.4843
 103   2.0000      -0.678716       -18.4688
 104   2.0000      -0.678031       -18.4502
 105   2.0000      -0.672792       -18.3076
 106   2.0000      -0.668477       -18.1902
 107   2.0000      -0.661273       -17.9942
 108   2.0000      -0.655602       -17.8398
 109   2.0000      -0.653869       -17.7927
 110   2.0000      -0.650385       -17.6979
 111   2.0000      -0.643428       -17.5086
 112   2.0000      -0.641093       -17.4450
 113   2.0000      -0.640188       -17.4204
 114   2.0000      -0.638064       -17.3626
 115   2.0000      -0.627390       -17.0721
 116   2.0000      -0.625644       -17.0246
 117   2.0000      -0.618365       -16.8266
 118   2.0000      -0.613272       -16.6880
 119   2.0000      -0.612314       -16.6619
 120   2.0000      -0.610505       -16.6127
 121   2.0000      -0.606321       -16.4988
 122   2.0000      -0.600461       -16.3394
 123   2.0000      -0.586927       -15.9711
 124   2.0000      -0.582592       -15.8531
 125   2.0000      -0.580402       -15.7935
 126   2.0000      -0.579543       -15.7702
 127   2.0000      -0.576188       -15.6789
 128   2.0000      -0.566274       -15.4091
 129   2.0000      -0.558943       -15.2096
 130   2.0000      -0.551769       -15.0144
 131   2.0000      -0.547701       -14.9037
 132   2.0000      -0.542356       -14.7583
 133   2.0000      -0.539722       -14.6866
 134   2.0000      -0.538349       -14.6492
 135   2.0000      -0.535369       -14.5681
 136   2.0000      -0.527728       -14.3602
 137   2.0000      -0.523685       -14.2502
 138   2.0000      -0.516867       -14.0647
 139   2.0000      -0.513453       -13.9718
 140   2.0000      -0.512272       -13.9396
 141   2.0000      -0.511282       -13.9127
 142   2.0000      -0.509185       -13.8556
 143   2.0000      -0.503454       -13.6997
 144   2.0000      -0.501831       -13.6555
 145   2.0000      -0.497384       -13.5345
 146   2.0000      -0.493404       -13.4262
 147   2.0000      -0.484326       -13.1792
 148   2.0000      -0.480497       -13.0750
 149   2.0000      -0.467062       -12.7094
 150   2.0000      -0.465653       -12.6711
 151   2.0000      -0.457079       -12.4378
 152   2.0000      -0.450098       -12.2478
 153   2.0000      -0.445427       -12.1207
 154   2.0000      -0.442047       -12.0287
 155   2.0000      -0.434560       -11.8250
 156   2.0000      -0.429313       -11.6822
 157   2.0000      -0.417824       -11.3696
 158   2.0000      -0.403860       -10.9896
 159   2.0000      -0.388285       -10.5658
 160   2.0000      -0.382398       -10.4056
 161   2.0000      -0.378234       -10.2923
 162   2.0000      -0.370249       -10.0750
 163   2.0000      -0.357367        -9.7245
 164   2.0000      -0.354990        -9.6598
 165   2.0000      -0.339987        -9.2515
 166   2.0000      -0.337422        -9.1817
 167   2.0000      -0.326726        -8.8907
 168   2.0000      -0.325740        -8.8638
 169   2.0000      -0.303690        -8.2638
 170   2.0000      -0.299729        -8.1560
 171   2.0000      -0.286240        -7.7890
 172   2.0000      -0.282433        -7.6854
 173   2.0000      -0.262240        -7.1359
 174   2.0000      -0.243316        -6.6210
 175   2.0000      -0.189800        -5.1647
 176   2.0000      -0.180152        -4.9022
 177   2.0000      -0.075112        -2.0439
 178   2.0000      -0.058136        -1.5820
 179   0.0000       0.028617         0.7787
 180   0.0000       0.066676         1.8143
 181   0.0000       0.091425         2.4878
 182   0.0000       0.109090         2.9685
 183   0.0000       0.111515         3.0345

MULLIKEN ATOMIC CHARGES
-----------------------
   0 C :    0.208152
   1 N :   -0.453993
   2 C :   -0.065161
   3 N :   -0.336952
   4 C :   -0.048031
   5 N :   -0.564085
   6 C :   -0.113692
   7 N :   -0.340048
   8 C :    0.206616
   9 N :   -0.562438
  10 C :    0.117934
  11 N :   -0.438201
  12 C :   -0.082824
  13 N :   -0.431326
  14 C :    0.233985
  15 N :   -0.441135
  16 C :    0.228301
  17 C :   -0.113288
  18 C :   -0.196899
  19 C :    0.227509
  20 C :    0.212775
  21 C :   -0.093395
  22 C :   -0.090827
  23 C :   -0.040810
  24 C :    0.195518
  25 C :    0.114458
  26 C :   -0.080029
  27 C :    0.213400
  28 C :   -0.060356
  29 C :   -0.180308
  30 C :    0.244368
  31 C :    0.227072
  32 C :   -0.062229
  33 C :   -0.064111
  34 C :   -0.050674
  35 C :    0.223811
  36 C :    0.109283
  37 C :   -0.064766
  38 C :    0.232445
  39 C :   -0.058513
  40 C :   -0.182539
  41 C :    0.224963
  42 C :    0.198024
  43 C :   -0.072507
  44 C :   -0.089804
  45 C :   -0.059938
  46 C :    0.209952
  47 C :    0.115479
  48 C :   -0.068170
  49 C :    0.236902
  50 C :   -0.047607
  51 C :   -0.191582
  52 H :    0.041088
  53 H :   -0.016351
  54 H :    0.049030
  55 H :    0.038827
  56 H :    0.050072
  57 H :    0.048372
  58 H :    0.048725
  59 H :    0.001196
  60 H :    0.052355
  61 H :    0.171339
  62 H :    0.175095
  63 H :    0.055525
  64 H :   -0.008333
  65 H :    0.047489
  66 H :    0.056155
  67 H :    0.062477
  68 H :    0.057481
  69 H :    0.056780
  70 H :   -0.029014
  71 H :    0.045205
  72 H :    0.068794
  73 H :   -0.008842
  74 H :    0.058066
  75 H :    0.068119
  76 H :    0.072698
  77 H :    0.066297
  78 H :    0.065561
  79 H :   -0.016009
  80 H :    0.058860
  81 H :    0.053871
  82 H :   -0.024636
  83 H :    0.041992
  84 H :    0.053887
  85 H :    0.060472
  86 H :    0.055559
  87 H :    0.056928
  88 H :   -0.015485
  89 H :    0.045648
Sum of atomic charges:   -0.0000000

LOEWDIN ATOMIC CHARGES
----------------------
   0 C :   -0.019897
   1 N :    0.118125
   2 C :   -0.101406
   3 N :    0.183316
   4 C :   -0.005644
   5 N :   -0.133038
   6 C :   -0.040360
   7 N :    0.175901
   8 C :   -0.021863
   9 N :   -0.140335
  10 C :    0.023825
  11 N :    0.142467
  12 C :   -0.113913
  13 N :    0.161895
  14 C :   -0.029507
  15 N :    0.138366
  16 C :   -0.058001
  17 C :   -0.040333
  18 C :   -0.103285
  19 C :   -0.081800
  20 C :    0.004099
  21 C :   -0.121133
  22 C :    0.037399
  23 C :   -0.015175
  24 C :   -0.010785
  25 C :    0.029935
  26 C :   -0.107261
  27 C :   -0.113847
  28 C :   -0.026639
  29 C :   -0.100620
  30 C :   -0.032471
  31 C :    0.020578
  32 C :   -0.095004
  33 C :    0.074518
  34 C :   -0.015731
  35 C :    0.017993
  36 C :    0.034267
  37 C :   -0.095388
  38 C :   -0.050026
  39 C :   -0.018997
  40 C :   -0.108291
  41 C :   -0.092011
  42 C :   -0.010046
  43 C :   -0.100103
  44 C :    0.032717
  45 C :   -0.027228
  46 C :    0.000411
  47 C :    0.029396
  48 C :   -0.096349
  49 C :   -0.072616
  50 C :   -0.019836
  51 C :   -0.108735
  52 H :    0.024328
  53 H :    0.003199
  54 H :    0.039818
  55 H :    0.023491
  56 H :    0.021943
  57 H :    0.026674
  58 H :    0.027768
  59 H :    0.010613
  60 H :    0.041431
  61 H :    0.060113
  62 H :    0.061659
  63 H :    0.030796
  64 H :    0.005462
  65 H :    0.045971
  66 H :    0.029529
  67 H :    0.028263
  68 H :    0.031738
  69 H :    0.030474
  70 H :   -0.004157
  71 H :    0.043701
  72 H :    0.036538
  73 H :    0.006717
  74 H :    0.049712
  75 H :    0.036102
  76 H :    0.033645
  77 H :    0.035384
  78 H :    0.035057
  79 H :    0.003245
  80 H :    0.049657
  81 H :    0.028890
  82 H :   -0.002600
  83 H :    0.042620
  84 H :    0.029700
  85 H :    0.027185
  86 H :    0.030176
  87 H :    0.031271
  88 H :    0.001908
  89 H :    0.044444

  Mayer bond orders larger than 0.100000
B(  0-C ,  1-N ) :   1.0927 B(  0-C , 17-C ) :   1.7016 B(  0-C , 52-H ) :   0.9670
B(  1-N ,  8-C ) :   1.0905 B(  1-N , 10-C ) :   0.9767 B(  2-C , 12-C ) :   1.5088
B(  2-C , 16-C ) :   1.3544 B(  2-C , 53-H ) :   0.9753 B(  3-N , 14-C ) :   1.2179
B(  3-N , 16-C ) :   1.1902 B(  3-N , 61-H ) :   0.8990 B(  4-C ,  6-C ) :   1.2157
B(  4-C , 17-C ) :   1.2151 B(  4-C , 18-C ) :   1.4263 B(  5-N , 19-C ) :   1.4503
B(  5-N , 27-C ) :   1.3804 B(  6-C ,  8-C ) :   1.7001 B(  6-C , 54-H ) :   0.9581
B(  7-N , 30-C ) :   1.1954 B(  7-N , 38-C ) :   1.1921 B(  7-N , 62-H ) :   0.8970
B(  8-C , 55-H ) :   0.9677 B(  9-N , 41-C ) :   1.3957 B(  9-N , 49-C ) :   1.4245
B( 10-C , 56-H ) :   0.9769 B( 10-C , 57-H ) :   0.9821 B( 10-C , 58-H ) :   0.9843
B( 11-N , 20-C ) :   1.1303 B( 11-N , 24-C ) :   1.1093 B( 11-N , 25-C ) :   0.9598
B( 12-C , 14-C ) :   1.3542 B( 12-C , 59-H ) :   0.9733 B( 13-N , 31-C ) :   1.1549
B( 13-N , 35-C ) :   1.1518 B( 13-N , 36-C ) :   0.9446 B( 14-C , 18-C ) :   1.1343
B( 15-N , 42-C ) :   1.1084 B( 15-N , 46-C ) :   1.1219 B( 15-N , 47-C ) :   0.9617
B( 16-C , 51-C ) :   1.1735 B( 17-C , 60-H ) :   0.9554 B( 18-C , 19-C ) :   1.1396
B( 19-C , 21-C ) :   1.2430 B( 20-C , 28-C ) :   1.6276 B( 20-C , 63-H ) :   0.9703
B( 21-C , 26-C ) :   1.6099 B( 21-C , 64-H ) :   0.9675 B( 22-C , 23-C ) :   1.2890
B( 22-C , 28-C ) :   1.2656 B( 22-C , 29-C ) :   1.2232 B( 23-C , 24-C ) :   1.6195
B( 23-C , 65-H ) :   0.9704 B( 24-C , 66-H ) :   0.9694 B( 25-C , 67-H ) :   0.9760
B( 25-C , 68-H ) :   0.9828 B( 25-C , 69-H ) :   0.9823 B( 26-C , 27-C ) :   1.2393
B( 26-C , 70-H ) :   0.9709 B( 27-C , 29-C ) :   1.2151 B( 28-C , 71-H ) :   0.9719
B( 29-C , 30-C ) :   1.2387 B( 30-C , 32-C ) :   1.2856 B( 31-C , 39-C ) :   1.5956
B( 31-C , 72-H ) :   0.9684 B( 32-C , 37-C ) :   1.5732 B( 32-C , 73-H ) :   0.9785
B( 33-C , 34-C ) :   1.3019 B( 33-C , 39-C ) :   1.2973 B( 33-C , 40-C ) :   1.1885
B( 34-C , 35-C ) :   1.5927 B( 34-C , 74-H ) :   0.9698 B( 35-C , 75-H ) :   0.9684
B( 36-C , 76-H ) :   0.9767 B( 36-C , 77-H ) :   0.9817 B( 36-C , 78-H ) :   0.9825
B( 37-C , 38-C ) :   1.2901 B( 37-C , 79-H ) :   0.9767 B( 38-C , 40-C ) :   1.2288
B( 39-C , 80-H ) :   0.9707 B( 40-C , 41-C ) :   1.2456 B( 41-C , 43-C ) :   1.1895
B( 42-C , 50-C ) :   1.6339 B( 42-C , 81-H ) :   0.9697 B( 43-C , 48-C ) :   1.6629
B( 43-C , 82-H ) :   0.9724 B( 44-C , 45-C ) :   1.2642 B( 44-C , 50-C ) :   1.2709
B( 44-C , 51-C ) :   1.2609 B( 45-C , 46-C ) :   1.6351 B( 45-C , 83-H ) :   0.9717
B( 46-C , 84-H ) :   0.9700 B( 47-C , 85-H ) :   0.9762 B( 47-C , 86-H ) :   0.9829
B( 47-C , 87-H ) :   0.9825 B( 48-C , 49-C ) :   1.1927 B( 48-C , 88-H ) :   0.9747
B( 49-C , 51-C ) :   1.2387 B( 50-C , 89-H ) :   0.9710

MP2 TOTAL ENERGY:    -2130.886898485 Eh
FINAL SINGLE POINT ENERGY     -2130.886898485009

DIPOLE MOMENT
-------------
                                X             Y             Z
Electronic contribution:      2.16307      -3.78976      -0.16065
Nuclear contribution   :      0.07607       0.23934       0.16105
                        -----------------------------------------
Total Dipole Moment    :      2.23914      -3.55042       0.00040
                        -----------------------------------------
Magnitude (a.u.)       :      4.19753
Magnitude (Debye)      :     10.66926

Rotational constants in cm-1:     0.001500     0.001478     0.000761
Rotational constants in MHz :    44.976628    44.310339    22.803321

                             ****ORCA TERMINATED NORMALLY****
TOTAL RUN TIME: 0 days 1 hours 11 minutes 34 seconds 926 msec
