                         Program Version 5.0.4 -  RELEASE  -
|  1> ! PAL2
|  2> ! mp2 cc-pvdz TightSCF  NoKeepInts
|  3>
|  4> %scf
|  5>   MaxCore 2000
|  6> end
|  7> %mp2
|  8>   MaxCore 2000
|  9> end
| 10> * xyz 0 1
| 11>    C       -3.10900         6.43400         0.54800
| 12>    C        1.47400         4.04100         0.05700
| 13>    C       -2.80200         4.09300         0.04900
| 14>    C       -4.13000         4.06800        -0.40300
| 15>    C       -4.89700         5.21600        -0.36800
| 16>    C       -5.22100         7.59700         0.09400
| 17>    C        0.13200         4.30700         0.06100
| 18>    C       -0.56900         3.05600         0.04700
| 19>    C        1.64900         2.61800         0.02300
| 20>    C       -2.30100         5.31400         0.52800
| 21>    N       -4.38500         6.37600         0.10600
| 22>    N        0.38800         2.06700         0.02500
| 23>    N       -2.01000         0.39500        -0.07500
| 24>    N       -0.38800        -2.07400        -0.02700
| 25>    N        2.01000        -0.40100         0.06500
| 26>    C       -1.96000         2.86100         0.02400
| 27>    C       -2.62300         1.61500        -0.01800
| 28>    C       -5.57300        -4.32900         1.06600
| 29>    C       -4.07300         1.47100         0.05600
| 30>    C       -4.10600        -2.75600        -0.02600
| 31>    C       -4.99500        -2.75700        -1.11100
| 32>    C       -6.13200        -3.54200        -1.07600
| 33>    C       -7.65100        -5.11300         0.04000
| 34>    C       -4.32400         0.14100         0.03700
| 35>    C       -3.02500        -0.52000        -0.04800
| 36>    C       -4.42200        -3.56600         1.07500
| 37>    N       -6.40700        -4.31300         0.00100
| 38>    C       -2.86700        -1.92200        -0.04000
| 39>    C       -1.65000        -2.62400        -0.02700
| 40>    C        3.56800        -6.14200        -1.04000
| 41>    C       -1.47600        -4.04900        -0.03400
| 42>    C        2.80300        -4.09900        -0.00800
| 43>    C        3.65700        -4.38400         1.06900
| 44>    C        4.42700        -5.53000         1.05900
| 45>    C        5.24500        -7.58800         0.01400
| 46>    C       -0.13400        -4.31500        -0.02200
| 47>    C        0.56800        -3.06400        -0.02700
| 48>    C        2.77500        -5.01200        -1.07400
| 49>    N        4.37600        -6.39100         0.01700
| 50>    C        1.95900        -2.86900        -0.00900
| 51>    C        2.62100        -1.62200         0.00900
| 52>    C        5.54300         4.33900        -1.13000
| 53>    C        4.07000        -1.47900        -0.09400
| 54>    C        4.10400         2.75100        -0.02100
| 55>    C        5.02700         2.72900         1.03600
| 56>    C        6.16600         3.50900         0.97800
| 57>    C        7.61900         5.15300        -0.11500
| 58>    C        4.32100        -0.14800        -0.09200
| 59>    C        3.02500         0.51400         0.01500
| 60>    C        4.38700         3.58200        -1.11500
| 61>    C        2.86600         1.91600         0.01300
| 62>    N        6.41300         4.29600        -0.09500
| 63>    H       -2.76900         7.39300         0.92000
| 64>    H        2.27400         4.76600         0.08100
| 65>    H       -4.57100         3.15800        -0.79300
| 66>    H       -5.92200         5.24700        -0.71400
| 67>    H       -5.13300         8.07900        -0.88200
| 68>    H       -6.25700         7.31600         0.28300
| 69>    H       -4.86800         8.27000         0.87600
| 70>    H       -0.33200         5.28200         0.06900
| 71>    H       -1.28800         5.39400         0.90400
| 72>    H        0.18200         1.07200         0.00500
| 73>    H       -0.18300        -1.08000        -0.02100
| 74>    H       -5.86400        -4.96200         1.89500
| 75>    H       -4.79400         2.27200         0.13900
| 76>    H       -4.80000        -2.16000        -1.99400
| 77>    H       -6.84100        -3.58200        -1.89300
| 78>    H       -8.42800        -4.53600         0.54600
| 79>    H       -7.95600        -5.33700        -0.98100
| 80>    H       -7.45600        -6.03700         0.58400
| 81>    H       -5.28700        -0.34400         0.10000
| 82>    H       -3.78000        -3.60100         1.94700
| 83>    H        3.58700        -6.86800        -1.84300
| 84>    H       -2.27600        -4.77400        -0.05000
| 85>    H        3.71400        -3.72400         1.92600
| 86>    H        5.09200        -5.79500         1.87100
| 87>    H        6.20500        -7.32900        -0.43900
| 88>    H        5.39300        -7.91700         1.04200
| 89>    H        4.75900        -8.37300        -0.56400
| 90>    H        0.32900        -5.29000        -0.00800
| 91>    H        2.14600        -4.84200        -1.94000
| 92>    H        5.80800         4.98600        -1.95600
| 93>    H        4.78800        -2.28100        -0.18500
| 94>    H        4.86000         2.11400         1.91200
| 95>    H        6.90100         3.53100         1.77200
| 96>    H        7.38300         6.10900         0.35600
| 97>    H        8.41400         4.65200         0.43500
| 98>    H        7.92100         5.31000        -1.15000
| 99>    H        5.28300         0.33600        -0.17900
|100>    H        3.72000         3.63200        -1.96700
|101> *
|102>
|103>                          ****END OF INPUT****

CARTESIAN COORDINATES (ANGSTROEM)
---------------------------------
  C     -3.109000    6.434000    0.548000
  C      1.474000    4.041000    0.057000
  C     -2.802000    4.093000    0.049000
  C     -4.130000    4.068000   -0.403000
  C     -4.897000    5.216000   -0.368000
  C     -5.221000    7.597000    0.094000
  C      0.132000    4.307000    0.061000
  C     -0.569000    3.056000    0.047000
  C      1.649000    2.618000    0.023000
  C     -2.301000    5.314000    0.528000
  N     -4.385000    6.376000    0.106000
  N      0.388000    2.067000    0.025000
  N     -2.010000    0.395000   -0.075000
  N     -0.388000   -2.074000   -0.027000
  N      2.010000   -0.401000    0.065000
  C     -1.960000    2.861000    0.024000
  C     -2.623000    1.615000   -0.018000
  C     -5.573000   -4.329000    1.066000
  C     -4.073000    1.471000    0.056000
  C     -4.106000   -2.756000   -0.026000
  C     -4.995000   -2.757000   -1.111000
  C     -6.132000   -3.542000   -1.076000
  C     -7.651000   -5.113000    0.040000
  C     -4.324000    0.141000    0.037000
  C     -3.025000   -0.520000   -0.048000
  C     -4.422000   -3.566000    1.075000
  N     -6.407000   -4.313000    0.001000
  C     -2.867000   -1.922000   -0.040000
  C     -1.650000   -2.624000   -0.027000
  C      3.568000   -6.142000   -1.040000
  C     -1.476000   -4.049000   -0.034000
  C      2.803000   -4.099000   -0.008000
  C      3.657000   -4.384000    1.069000
  C      4.427000   -5.530000    1.059000
  C      5.245000   -7.588000    0.014000
  C     -0.134000   -4.315000   -0.022000
  C      0.568000   -3.064000   -0.027000
  C      2.775000   -5.012000   -1.074000
  N      4.376000   -6.391000    0.017000
  C      1.959000   -2.869000   -0.009000
  C      2.621000   -1.622000    0.009000
  C      5.543000    4.339000   -1.130000
  C      4.070000   -1.479000   -0.094000
  C      4.104000    2.751000   -0.021000
  C      5.027000    2.729000    1.036000
  C      6.166000    3.509000    0.978000
  C      7.619000    5.153000   -0.115000
  C      4.321000   -0.148000   -0.092000
  C      3.025000    0.514000    0.015000
  C      4.387000    3.582000   -1.115000
  C      2.866000    1.916000    0.013000
  N      6.413000    4.296000   -0.095000
  H     -2.769000    7.393000    0.920000
  H      2.274000    4.766000    0.081000
  H     -4.571000    3.158000   -0.793000
  H     -5.922000    5.247000   -0.714000
  H     -5.133000    8.079000   -0.882000
  H     -6.257000    7.316000    0.283000
  H     -4.868000    8.270000    0.876000
  H     -0.332000    5.282000    0.069000
  H     -1.288000    5.394000    0.904000
  H      0.182000    1.072000    0.005000
  H     -0.183000   -1.080000   -0.021000
  H     -5.864000   -4.962000    1.895000
  H     -4.794000    2.272000    0.139000
  H     -4.800000   -2.160000   -1.994000
  H     -6.841000   -3.582000   -1.893000
  H     -8.428000   -4.536000    0.546000
  H     -7.956000   -5.337000   -0.981000
  H     -7.456000   -6.037000    0.584000
  H     -5.287000   -0.344000    0.100000
  H     -3.780000   -3.601000    1.947000
  H      3.587000   -6.868000   -1.843000
  H     -2.276000   -4.774000   -0.050000
  H      3.714000   -3.724000    1.926000
  H      5.092000   -5.795000    1.871000
  H      6.205000   -7.329000   -0.439000
  H      5.393000   -7.917000    1.042000
  H      4.759000   -8.373000   -0.564000
  H      0.329000   -5.290000   -0.008000
  H      2.146000   -4.842000   -1.940000
  H      5.808000    4.986000   -1.956000
  H      4.788000   -2.281000   -0.185000
  H      4.860000    2.114000    1.912000
  H      6.901000    3.531000    1.772000
  H      7.383000    6.109000    0.356000
  H      8.414000    4.652000    0.435000
  H      7.921000    5.310000   -1.150000
  H      5.283000    0.336000   -0.179000
  H      3.720000    3.632000   -1.967000

 Total Charge           Charge          ....    0
 Multiplicity           Mult            ....    1
 Number of Electrons    NEL             ....  358
 Basis Dimension        Dim             ....  918

ORBITAL ENERGIES
----------------

  NO   OCC          E(Eh)            E(eV)
   0   2.0000     -15.677584      -426.6087
   1   2.0000     -15.636104      -425.4800
   2   2.0000     -15.629767      -425.3076
   3   2.0000     -15.587883      -424.1679
   4   2.0000     -15.525589      -422.4728
   5   2.0000     -15.515533      -422.1991
   6   2.0000     -15.452947      -420.4961
   7   2.0000     -15.441622      -420.1879
   8   2.0000     -11.327895      -308.2477
   9   2.0000     -11.326568      -308.2116
  10   2.0000     -11.326178      -308.2010
  11   2.0000     -11.300666      -307.5068
  12   2.0000     -11.297050      -307.4084
  13   2.0000     -11.294666      -307.3435
  14   2.0000     -11.289317      -307.1979
  15   2.0000     -11.288641      -307.1795
  16   2.0000     -11.284893      -307.0775
  17   2.0000     -11.280003      -306.9445
  18   2.0000     -11.270801      -306.6941
  19   2.0000     -11.261860      -306.4508
  20   2.0000     -11.260893      -306.4245
  21   2.0000     -11.253628      -306.2268
  22   2.0000     -11.250173      -306.1328
  23   2.0000     -11.239825      -305.8512
  24   2.0000     -11.234603      -305.7091
  25   2.0000     -11.232817      -305.6605
  26   2.0000     -11.232208      -305.6439
  27   2.0000     -11.228208      -305.5351
  28   2.0000     -11.227881      -305.5262
  29   2.0000     -11.211561      -305.0821
  30   2.0000     -11.210067      -305.0414
  31   2.0000     -11.195868      -304.6551
  32   2.0000     -11.190690      -304.5142
  33   2.0000     -11.189588      -304.4842
  34   2.0000     -11.188264      -304.4482
  35   2.0000     -11.186707      -304.4058
  36   2.0000     -11.185468      -304.3721
  37   2.0000     -11.184664      -304.3502
  38   2.0000     -11.183801      -304.3267
  39   2.0000     -11.174697      -304.0790
  40   2.0000     -11.173937      -304.0583
  41   2.0000     -11.169238      -303.9304
  42   2.0000     -11.169221      -303.9299
  43   2.0000     -11.160712      -303.6984
  44   2.0000     -11.160236      -303.6855
  45   2.0000     -11.158370      -303.6347
  46   2.0000     -11.155730      -303.5629
  47   2.0000     -11.154856      -303.5391
  48   2.0000     -11.146336      -303.3072
  49   2.0000     -11.136661      -303.0440
  50   2.0000     -11.131590      -302.9060
  51   2.0000     -11.120559      -302.6058
  52   2.0000      -1.358503       -36.9667
  53   2.0000      -1.323079       -36.0028
  54   2.0000      -1.317833       -35.8600
  55   2.0000      -1.281760       -34.8785
  56   2.0000      -1.226605       -33.3776
  57   2.0000      -1.209868       -32.9222
  58   2.0000      -1.172212       -31.8975
  59   2.0000      -1.151955       -31.3463
  60   2.0000      -1.142077       -31.0775
  61   2.0000      -1.111751       -30.2523
  62   2.0000      -1.107542       -30.1378
  63   2.0000      -1.080343       -29.3976
  64   2.0000      -1.078033       -29.3348
  65   2.0000      -1.047208       -28.4960
  66   2.0000      -1.042569       -28.3698
  67   2.0000      -1.040167       -28.3044
  68   2.0000      -1.015243       -27.6262
  69   2.0000      -1.011894       -27.5350
  70   2.0000      -1.008888       -27.4532
  71   2.0000      -0.993931       -27.0462
  72   2.0000      -0.985946       -26.8290
  73   2.0000      -0.981279       -26.7019
  74   2.0000      -0.971852       -26.4454
  75   2.0000      -0.961009       -26.1504
  76   2.0000      -0.953687       -25.9511
  77   2.0000      -0.945714       -25.7342
  78   2.0000      -0.935275       -25.4501
  79   2.0000      -0.917985       -24.9796
  80   2.0000      -0.908939       -24.7335
  81   2.0000      -0.895145       -24.3581
  82   2.0000      -0.875682       -23.8285
  83   2.0000      -0.873426       -23.7671
  84   2.0000      -0.868778       -23.6406
  85   2.0000      -0.857380       -23.3305
  86   2.0000      -0.839168       -22.8349
  87   2.0000      -0.836405       -22.7597
  88   2.0000      -0.824879       -22.4461
  89   2.0000      -0.797272       -21.6949
  90   2.0000      -0.790047       -21.4983
  91   2.0000      -0.752805       -20.4849
  92   2.0000      -0.746590       -20.3157
  93   2.0000      -0.733759       -19.9666
  94   2.0000      -0.725176       -19.7330
  95   2.0000      -0.722474       -19.6595
  96   2.0000      -0.716948       -19.5091
  97   2.0000      -0.713537       -19.4163
  98   2.0000      -0.708398       -19.2765
  99   2.0000      -0.697838       -18.9891
 100   2.0000      -0.696344       -18.9485
 101   2.0000      -0.685370       -18.6499
 102   2.0000      -0.682812       -18.5802
 103   2.0000      -0.680709       -18.5230
 104   2.0000      -0.679349       -18.4860
 105   2.0000      -0.672995       -18.3131
 106   2.0000      -0.670732       -18.2515
 107   2.0000      -0.660739       -17.9796
 108   2.0000      -0.655753       -17.8439
 109   2.0000      -0.654316       -17.8048
 110   2.0000      -0.650107       -17.6903
 111   2.0000      -0.644554       -17.5392
 112   2.0000      -0.644012       -17.5245
 113   2.0000      -0.638365       -17.3708
 114   2.0000      -0.636855       -17.3297
 115   2.0000      -0.627104       -17.0644
 116   2.0000      -0.622082       -16.9277
 117   2.0000      -0.619666       -16.8620
 118   2.0000      -0.614131       -16.7113
 119   2.0000      -0.613259       -16.6876
 120   2.0000      -0.610137       -16.6027
 121   2.0000      -0.609692       -16.5906
 122   2.0000      -0.599564       -16.3150
 123   2.0000      -0.586451       -15.9581
 124   2.0000      -0.582778       -15.8582
 125   2.0000      -0.580454       -15.7950
 126   2.0000      -0.578942       -15.7538
 127   2.0000      -0.573432       -15.6039
 128   2.0000      -0.568941       -15.4817
 129   2.0000      -0.559196       -15.2165
 130   2.0000      -0.551341       -15.0027
 131   2.0000      -0.547660       -14.9026
 132   2.0000      -0.543122       -14.7791
 133   2.0000      -0.542308       -14.7570
 134   2.0000      -0.539428       -14.6786
 135   2.0000      -0.534765       -14.5517
 136   2.0000      -0.528830       -14.3902
 137   2.0000      -0.520557       -14.1651
 138   2.0000      -0.518300       -14.1037
 139   2.0000      -0.514308       -13.9950
 140   2.0000      -0.511830       -13.9276
 141   2.0000      -0.510673       -13.8961
 142   2.0000      -0.509943       -13.8763
 143   2.0000      -0.503860       -13.7107
 144   2.0000      -0.500936       -13.6312
 145   2.0000      -0.495680       -13.4881
 146   2.0000      -0.492482       -13.4011
 147   2.0000      -0.482321       -13.1246
 148   2.0000      -0.477982       -13.0066
 149   2.0000      -0.467182       -12.7127
 150   2.0000      -0.465982       -12.6800
 151   2.0000      -0.457125       -12.4390
 152   2.0000      -0.450674       -12.2635
 153   2.0000      -0.445805       -12.1310
 154   2.0000      -0.440520       -11.9871
 155   2.0000      -0.427976       -11.6458
 156   2.0000      -0.419747       -11.4219
 157   2.0000      -0.410513       -11.1706
 158   2.0000      -0.407556       -11.0901
 159   2.0000      -0.387307       -10.5392
 160   2.0000      -0.386184       -10.5086
 161   2.0000      -0.377975       -10.2852
 162   2.0000      -0.371424       -10.1070
 163   2.0000      -0.358166        -9.7462
 164   2.0000      -0.354429        -9.6445
 165   2.0000      -0.340888        -9.2760
 166   2.0000      -0.337870        -9.1939
 167   2.0000      -0.326238        -8.8774
 168   2.0000      -0.321553        -8.7499
 169   2.0000      -0.305746        -8.3198
 170   2.0000      -0.299327        -8.1451
 171   2.0000      -0.285126        -7.7587
 172   2.0000      -0.280050        -7.6205
 173   2.0000      -0.262789        -7.1509
 174   2.0000      -0.242310        -6.5936
 175   2.0000      -0.190103        -5.1730
 176   2.0000      -0.180685        -4.9167
 177   2.0000      -0.078121        -2.1258
 178   2.0000      -0.059113        -1.6086
 179   0.0000       0.028202         0.7674
 180   0.0000       0.065477         1.7817
 181   0.0000       0.090791         2.4705
 182   0.0000       0.107616         2.9284
 183   0.0000       0.112777         3.0688

MULLIKEN ATOMIC CHARGES
-----------------------
   0 C :    0.216224
   1 N :   -0.456224
   2 C :   -0.072749
   3 N :   -0.339006
   4 C :   -0.057332
   5 N :   -0.564294
   6 C :   -0.116547
   7 N :   -0.340716
   8 C :    0.206910
   9 N :   -0.562527
  10 C :    0.118792
  11 N :   -0.438055
  12 C :   -0.072190
  13 N :   -0.429871
  14 C :    0.216215
  15 N :   -0.441366
  16 C :    0.231518
  17 C :   -0.127606
  18 C :   -0.156007
  19 C :    0.202628
  20 C :    0.214303
  21 C :   -0.085832
  22 C :   -0.089276
  23 C :   -0.040137
  24 C :    0.194910
  25 C :    0.114325
  26 C :   -0.084056
  27 C :    0.212646
  28 C :   -0.061114
  29 C :   -0.181991
  30 C :    0.245624
  31 C :    0.230192
  32 C :   -0.061335
  33 C :   -0.061402
  34 C :   -0.050190
  35 C :    0.226392
  36 C :    0.108515
  37 C :   -0.064339
  38 C :    0.232174
  39 C :   -0.058616
  40 C :   -0.181012
  41 C :    0.224660
  42 C :    0.197112
  43 C :   -0.072653
  44 C :   -0.090748
  45 C :   -0.061277
  46 C :    0.210282
  47 C :    0.115595
  48 C :   -0.067494
  49 C :    0.237962
  50 C :   -0.046536
  51 C :   -0.194712
  52 H :    0.038135
  53 H :   -0.017528
  54 H :    0.053585
  55 H :    0.036068
  56 H :    0.048671
  57 H :    0.048493
  58 H :    0.046410
  59 H :   -0.000656
  60 H :    0.049166
  61 H :    0.170925
  62 H :    0.175641
  63 H :    0.056064
  64 H :   -0.005881
  65 H :    0.047000
  66 H :    0.056180
  67 H :    0.063085
  68 H :    0.057557
  69 H :    0.056884
  70 H :   -0.029236
  71 H :    0.045652
  72 H :    0.070767
  73 H :   -0.008040
  74 H :    0.059924
  75 H :    0.070091
  76 H :    0.074475
  77 H :    0.067611
  78 H :    0.066812
  79 H :   -0.016084
  80 H :    0.060638
  81 H :    0.053957
  82 H :   -0.025207
  83 H :    0.041196
  84 H :    0.053461
  85 H :    0.060287
  86 H :    0.055147
  87 H :    0.056900
  88 H :   -0.014710
  89 H :    0.046787
Sum of atomic charges:    0.0000000

LOEWDIN ATOMIC CHARGES
----------------------
   0 C :   -0.018629
   1 N :    0.117122
   2 C :   -0.102575
   3 N :    0.183237
   4 C :   -0.012933
   5 N :   -0.131369
   6 C :   -0.038804
   7 N :    0.175311
   8 C :   -0.026105
   9 N :   -0.140573
  10 C :    0.023346
  11 N :    0.142951
  12 C :   -0.115605
  13 N :    0.165210
  14 C :   -0.025634
  15 N :    0.137841
  16 C :   -0.058674
  17 C :   -0.047495
  18 C :   -0.104135
  19 C :   -0.080308
  20 C :    0.005591
  21 C :   -0.122934
  22 C :    0.038526
  23 C :   -0.014740
  24 C :   -0.011276
  25 C :    0.030063
  26 C :   -0.109042
  27 C :   -0.116774
  28 C :   -0.026838
  29 C :   -0.098713
  30 C :   -0.031180
  31 C :    0.024083
  32 C :   -0.093581
  33 C :    0.080109
  34 C :   -0.014739
  35 C :    0.021047
  36 C :    0.035005
  37 C :   -0.094290
  38 C :   -0.050322
  39 C :   -0.018380
  40 C :   -0.108188
  41 C :   -0.093052
  42 C :   -0.010818
  43 C :   -0.099761
  44 C :    0.031927
  45 C :   -0.028396
  46 C :    0.000533
  47 C :    0.029284
  48 C :   -0.095884
  49 C :   -0.069774
  50 C :   -0.019058
  51 C :   -0.109988
  52 H :    0.023248
  53 H :    0.002638
  54 H :    0.037623
  55 H :    0.022590
  56 H :    0.021351
  57 H :    0.026610
  58 H :    0.026752
  59 H :    0.011407
  60 H :    0.034272
  61 H :    0.059984
  62 H :    0.061931
  63 H :    0.031088
  64 H :    0.008943
  65 H :    0.045835
  66 H :    0.029511
  67 H :    0.028548
  68 H :    0.031777
  69 H :    0.030541
  70 H :   -0.004433
  71 H :    0.043864
  72 H :    0.037486
  73 H :    0.007107
  74 H :    0.050532
  75 H :    0.037033
  76 H :    0.034563
  77 H :    0.036003
  78 H :    0.035649
  79 H :    0.003203
  80 H :    0.050411
  81 H :    0.028901
  82 H :   -0.002900
  83 H :    0.042204
  84 H :    0.029533
  85 H :    0.027092
  86 H :    0.029990
  87 H :    0.031260
  88 H :    0.002281
  89 H :    0.044949

  Mayer bond orders larger than 0.100000
B(  0-C ,  1-N ) :   1.0975 B(  0-C , 17-C ) :   1.7111 B(  0-C , 52-H ) :   0.9647
B(  1-N ,  8-C ) :   1.0836 B(  1-N , 10-C ) :   0.9784 B(  2-C , 12-C ) :   1.4982
B(  2-C , 16-C ) :   1.3633 B(  2-C , 53-H ) :   0.9749 B(  3-N , 14-C ) :   1.2190
B(  3-N , 16-C ) :   1.1880 B(  3-N , 61-H ) :   0.8993 B(  4-C ,  6-C ) :   1.2124
B(  4-C , 17-C ) :   1.2106 B(  4-C , 18-C ) :   1.4552 B(  5-N , 19-C ) :   1.4552
B(  5-N , 27-C ) :   1.3760 B(  6-C ,  8-C ) :   1.7164 B(  6-C , 54-H ) :   0.9396
B(  7-N , 30-C ) :   1.1944 B(  7-N , 38-C ) :   1.1910 B(  7-N , 62-H ) :   0.8967
B(  8-C , 55-H ) :   0.9662 B(  9-N , 41-C ) :   1.3925 B(  9-N , 49-C ) :   1.4276
B( 10-C , 56-H ) :   0.9771 B( 10-C , 57-H ) :   0.9831 B( 10-C , 58-H ) :   0.9835
B( 11-N , 20-C ) :   1.1320 B( 11-N , 24-C ) :   1.1089 B( 11-N , 25-C ) :   0.9594
B( 12-C , 14-C ) :   1.3580 B( 12-C , 59-H ) :   0.9659 B( 13-N , 31-C ) :   1.1608
B( 13-N , 35-C ) :   1.1570 B( 13-N , 36-C ) :   0.9422 B( 14-C , 18-C ) :   1.1231
B( 15-N , 42-C ) :   1.1068 B( 15-N , 46-C ) :   1.1224 B( 15-N , 47-C ) :   0.9620
B( 16-C , 51-C ) :   1.1688 B( 17-C , 60-H ) :   0.9395 B( 18-C , 19-C ) :   1.1229
B( 19-C , 21-C ) :   1.2492 B( 20-C , 28-C ) :   1.6268 B( 20-C , 63-H ) :   0.9702
B( 21-C , 26-C ) :   1.5986 B( 21-C , 64-H ) :   0.9648 B( 22-C , 23-C ) :   1.2907
B( 22-C , 28-C ) :   1.2658 B( 22-C , 29-C ) :   1.2224 B( 23-C , 24-C ) :   1.6183
B( 23-C , 65-H ) :   0.9704 B( 24-C , 66-H ) :   0.9695 B( 25-C , 67-H ) :   0.9760
B( 25-C , 68-H ) :   0.9828 B( 25-C , 69-H ) :   0.9823 B( 26-C , 27-C ) :   1.2473
B( 26-C , 70-H ) :   0.9690 B( 27-C , 29-C ) :   1.2099 B( 28-C , 71-H ) :   0.9719
B( 29-C , 30-C ) :   1.2458 B( 30-C , 32-C ) :   1.2791 B( 31-C , 39-C ) :   1.5899
B( 31-C , 72-H ) :   0.9682 B( 32-C , 37-C ) :   1.5802 B( 32-C , 73-H ) :   0.9785
B( 33-C , 34-C ) :   1.3068 B( 33-C , 39-C ) :   1.3017 B( 33-C , 40-C ) :   1.1780
B( 34-C , 35-C ) :   1.5867 B( 34-C , 74-H ) :   0.9696 B( 35-C , 75-H ) :   0.9682
B( 36-C , 76-H ) :   0.9767 B( 36-C , 77-H ) :   0.9816 B( 36-C , 78-H ) :   0.9824
B( 37-C , 38-C ) :   1.2841 B( 37-C , 79-H ) :   0.9766 B( 38-C , 40-C ) :   1.2342
B( 39-C , 80-H ) :   0.9706 B( 40-C , 41-C ) :   1.2492 B( 41-C , 43-C ) :   1.1872
B( 42-C , 50-C ) :   1.6352 B( 42-C , 81-H ) :   0.9697 B( 43-C , 48-C ) :   1.6651
B( 43-C , 82-H ) :   0.9721 B( 44-C , 45-C ) :   1.2623 B( 44-C , 50-C ) :   1.2703
B( 44-C , 51-C ) :   1.2643 B( 45-C , 46-C ) :   1.6363 B( 45-C , 83-H ) :   0.9718
B( 46-C , 84-H ) :   0.9701 B( 47-C , 85-H ) :   0.9762 B( 47-C , 86-H ) :   0.9829
B( 47-C , 87-H ) :   0.9825 B( 48-C , 49-C ) :   1.1907 B( 48-C , 88-H ) :   0.9749
B( 49-C , 51-C ) :   1.2405 B( 50-C , 89-H ) :   0.9709

MP2 TOTAL ENERGY:    -2130.864052709 Eh
FINAL SINGLE POINT ENERGY     -2130.864052709339

DIPOLE MOMENT
-------------
                                X             Y             Z
Electronic contribution:      2.52020      -4.29199      -0.07023
Nuclear contribution   :     -0.01705       0.17622       0.07963
                        -----------------------------------------
Total Dipole Moment    :      2.50314      -4.11577       0.00940
                        -----------------------------------------
Magnitude (a.u.)       :      4.81719
Magnitude (Debye)      :     12.24433

Rotational constants in cm-1:     0.001503     0.001477     0.000760
Rotational constants in MHz :    45.051719    44.273315    22.793390

                             ****ORCA TERMINATED NORMALLY****
TOTAL RUN TIME: 0 days 1 hours 4 minutes 44 seconds 565 msec
