                         Program Version 5.0.4 -  RELEASE  -
|  1> ! PAL2
|  2> ! mp2 cc-pvdz TightSCF  NoKeepInts
|  3>
|  4> %scf
|  5>   MaxCore 2000
|  6> end
|  7> %mp2
|  8>   MaxCore 2000
|  9> end
| 10> * xyz 0 1
| 11>    C       -4.51700         5.50100        -0.90000
| 12>    C        1.47400         4.04100         0.05700
| 13>    C       -2.80200         4.09300         0.04900
| 14>    C       -2.65700         5.04500         1.07000
| 15>    C       -3.44100         6.18100         1.07500
| 16>    C       -5.20300         7.60800         0.15300
| 17>    C        0.13200         4.30700         0.06100
| 18>    C       -0.56900         3.05600         0.04700
| 19>    C        1.64900         2.61800         0.02300
| 20>    C       -3.76000         4.34600        -0.94400
| 21>    N       -4.35200         6.39900         0.09800
| 22>    N        0.38800         2.06700         0.02500
| 23>    N       -2.01000         0.39500        -0.07500
| 24>    N       -0.38800        -2.07400        -0.02700
| 25>    N        2.01000        -0.40100         0.06500
| 26>    C       -1.96000         2.86100         0.02400
| 27>    C       -2.62300         1.61500        -0.01800
| 28>    C       -5.57300        -4.32900         1.06600
| 29>    C       -4.07300         1.47100         0.05600
| 30>    C       -4.10600        -2.75600        -0.02600
| 31>    C       -4.99500        -2.75700        -1.11100
| 32>    C       -6.13200        -3.54200        -1.07600
| 33>    C       -7.65100        -5.11300         0.04000
| 34>    C       -4.32400         0.14100         0.03700
| 35>    C       -3.02500        -0.52000        -0.04800
| 36>    C       -4.42200        -3.56600         1.07500
| 37>    N       -6.40700        -4.31300         0.00100
| 38>    C       -2.86700        -1.92200        -0.04000
| 39>    C       -1.65000        -2.62400        -0.02700
| 40>    C        3.56800        -6.14200        -1.04000
| 41>    C       -1.47600        -4.04900        -0.03400
| 42>    C        2.80300        -4.09900        -0.00800
| 43>    C        3.65700        -4.38400         1.06900
| 44>    C        4.42700        -5.53000         1.05900
| 45>    C        5.24500        -7.58800         0.01400
| 46>    C       -0.13400        -4.31500        -0.02200
| 47>    C        0.56800        -3.06400        -0.02700
| 48>    C        2.77500        -5.01200        -1.07400
| 49>    N        4.37600        -6.39100         0.01700
| 50>    C        1.95900        -2.86900        -0.00900
| 51>    C        2.62100        -1.62200         0.00900
| 52>    C        5.54300         4.33900        -1.13000
| 53>    C        4.07000        -1.47900        -0.09400
| 54>    C        4.10400         2.75100        -0.02100
| 55>    C        5.02700         2.72900         1.03600
| 56>    C        6.16600         3.50900         0.97800
| 57>    C        7.61900         5.15300        -0.11500
| 58>    C        4.32100        -0.14800        -0.09200
| 59>    C        3.02500         0.51400         0.01500
| 60>    C        4.38700         3.58200        -1.11500
| 61>    C        2.86600         1.91600         0.01300
| 62>    N        6.41300         4.29600        -0.09500
| 63>    H       -5.25900         5.74300        -1.65100
| 64>    H        2.27400         4.76600         0.08100
| 65>    H       -1.94100         4.90200         1.87000
| 66>    H       -3.37100         6.93900         1.84500
| 67>    H       -6.07500         7.40200         0.77700
| 68>    H       -4.62200         8.42700         0.57900
| 69>    H       -5.51800         7.86100        -0.85900
| 70>    H       -0.33200         5.28200         0.06900
| 71>    H       -3.91000         3.65600        -1.76700
| 72>    H        0.18200         1.07200         0.00500
| 73>    H       -0.18300        -1.08000        -0.02100
| 74>    H       -5.86400        -4.96200         1.89500
| 75>    H       -4.79400         2.27200         0.13900
| 76>    H       -4.80000        -2.16000        -1.99400
| 77>    H       -6.84100        -3.58200        -1.89300
| 78>    H       -8.42800        -4.53600         0.54600
| 79>    H       -7.95600        -5.33700        -0.98100
| 80>    H       -7.45600        -6.03700         0.58400
| 81>    H       -5.28700        -0.34400         0.10000
| 82>    H       -3.78000        -3.60100         1.94700
| 83>    H        3.58700        -6.86800        -1.84300
| 84>    H       -2.27600        -4.77400        -0.05000
| 85>    H        3.71400        -3.72400         1.92600
| 86>    H        5.09200        -5.79500         1.87100
| 87>    H        6.20500        -7.32900        -0.43900
| 88>    H        5.39300        -7.91700         1.04200
| 89>    H        4.75900        -8.37300        -0.56400
| 90>    H        0.32900        -5.29000        -0.00800
| 91>    H        2.14600        -4.84200        -1.94000
| 92>    H        5.80800         4.98600        -1.95600
| 93>    H        4.78800        -2.28100        -0.18500
| 94>    H        4.86000         2.11400         1.91200
| 95>    H        6.90100         3.53100         1.77200
| 96>    H        7.38300         6.10900         0.35600
| 97>    H        8.41400         4.65200         0.43500
| 98>    H        7.92100         5.31000        -1.15000
| 99>    H        5.28300         0.33600        -0.17900
|100>    H        3.72000         3.63200        -1.96700
|101> *
|102>
|103>                          ****END OF INPUT****

CARTESIAN COORDINATES (ANGSTROEM)
---------------------------------
  C     -4.517000    5.501000   -0.900000
  C      1.474000    4.041000    0.057000
  C     -2.802000    4.093000    0.049000
  C     -2.657000    5.045000    1.070000
  C     -3.441000    6.181000    1.075000
  C     -5.203000    7.608000    0.153000
  C      0.132000    4.307000    0.061000
  C     -0.569000    3.056000    0.047000
  C      1.649000    2.618000    0.023000
  C     -3.760000    4.346000   -0.944000
  N     -4.352000    6.399000    0.098000
  N      0.388000    2.067000    0.025000
  N     -2.010000    0.395000   -0.075000
  N     -0.388000   -2.074000   -0.027000
  N      2.010000   -0.401000    0.065000
  C     -1.960000    2.861000    0.024000
  C     -2.623000    1.615000   -0.018000
  C     -5.573000   -4.329000    1.066000
  C     -4.073000    1.471000    0.056000
  C     -4.106000   -2.756000   -0.026000
  C     -4.995000   -2.757000   -1.111000
  C     -6.132000   -3.542000   -1.076000
  C     -7.651000   -5.113000    0.040000
  C     -4.324000    0.141000    0.037000
  C     -3.025000   -0.520000   -0.048000
  C     -4.422000   -3.566000    1.075000
  N     -6.407000   -4.313000    0.001000
  C     -2.867000   -1.922000   -0.040000
  C     -1.650000   -2.624000   -0.027000
  C      3.568000   -6.142000   -1.040000
  C     -1.476000   -4.049000   -0.034000
  C      2.803000   -4.099000   -0.008000
  C      3.657000   -4.384000    1.069000
  C      4.427000   -5.530000    1.059000
  C      5.245000   -7.588000    0.014000
  C     -0.134000   -4.315000   -0.022000
  C      0.568000   -3.064000   -0.027000
  C      2.775000   -5.012000   -1.074000
  N      4.376000   -6.391000    0.017000
  C      1.959000   -2.869000   -0.009000
  C      2.621000   -1.622000    0.009000
  C      5.543000    4.339000   -1.130000
  C      4.070000   -1.479000   -0.094000
  C      4.104000    2.751000   -0.021000
  C      5.027000    2.729000    1.036000
  C      6.166000    3.509000    0.978000
  C      7.619000    5.153000   -0.115000
  C      4.321000   -0.148000   -0.092000
  C      3.025000    0.514000    0.015000
  C      4.387000    3.582000   -1.115000
  C      2.866000    1.916000    0.013000
  N      6.413000    4.296000   -0.095000
  H     -5.259000    5.743000   -1.651000
  H      2.274000    4.766000    0.081000
  H     -1.941000    4.902000    1.870000
  H     -3.371000    6.939000    1.845000
  H     -6.075000    7.402000    0.777000
  H     -4.622000    8.427000    0.579000
  H     -5.518000    7.861000   -0.859000
  H     -0.332000    5.282000    0.069000
  H     -3.910000    3.656000   -1.767000
  H      0.182000    1.072000    0.005000
  H     -0.183000   -1.080000   -0.021000
  H     -5.864000   -4.962000    1.895000
  H     -4.794000    2.272000    0.139000
  H     -4.800000   -2.160000   -1.994000
  H     -6.841000   -3.582000   -1.893000
  H     -8.428000   -4.536000    0.546000
  H     -7.956000   -5.337000   -0.981000
  H     -7.456000   -6.037000    0.584000
  H     -5.287000   -0.344000    0.100000
  H     -3.780000   -3.601000    1.947000
  H      3.587000   -6.868000   -1.843000
  H     -2.276000   -4.774000   -0.050000
  H      3.714000   -3.724000    1.926000
  H      5.092000   -5.795000    1.871000
  H      6.205000   -7.329000   -0.439000
  H      5.393000   -7.917000    1.042000
  H      4.759000   -8.373000   -0.564000
  H      0.329000   -5.290000   -0.008000
  H      2.146000   -4.842000   -1.940000
  H      5.808000    4.986000   -1.956000
  H      4.788000   -2.281000   -0.185000
  H      4.860000    2.114000    1.912000
  H      6.901000    3.531000    1.772000
  H      7.383000    6.109000    0.356000
  H      8.414000    4.652000    0.435000
  H      7.921000    5.310000   -1.150000
  H      5.283000    0.336000   -0.179000
  H      3.720000    3.632000   -1.967000

 Total Charge           Charge          ....    0
 Multiplicity           Mult            ....    1
 Number of Electrons    NEL             ....  358
 Basis Dimension        Dim             ....  918

ORBITAL ENERGIES
----------------

  NO   OCC          E(Eh)            E(eV)
   0   2.0000     -15.644745      -425.7152
   1   2.0000     -15.639781      -425.5801
   2   2.0000     -15.628506      -425.2733
   3   2.0000     -15.617826      -424.9826
   4   2.0000     -15.520003      -422.3207
   5   2.0000     -15.515545      -422.1994
   6   2.0000     -15.445111      -420.2828
   7   2.0000     -15.444015      -420.2530
   8   2.0000     -11.306177      -307.6567
   9   2.0000     -11.302841      -307.5659
  10   2.0000     -11.300681      -307.5072
  11   2.0000     -11.298026      -307.4349
  12   2.0000     -11.295913      -307.3774
  13   2.0000     -11.295572      -307.3681
  14   2.0000     -11.293894      -307.3225
  15   2.0000     -11.289992      -307.2163
  16   2.0000     -11.286050      -307.1090
  17   2.0000     -11.285030      -307.0813
  18   2.0000     -11.278095      -306.8926
  19   2.0000     -11.277463      -306.8754
  20   2.0000     -11.248878      -306.0975
  21   2.0000     -11.243154      -305.9418
  22   2.0000     -11.238409      -305.8127
  23   2.0000     -11.237527      -305.7887
  24   2.0000     -11.234946      -305.7184
  25   2.0000     -11.234321      -305.7014
  26   2.0000     -11.232913      -305.6631
  27   2.0000     -11.226548      -305.4899
  28   2.0000     -11.226412      -305.4862
  29   2.0000     -11.224958      -305.4466
  30   2.0000     -11.219044      -305.2857
  31   2.0000     -11.218537      -305.2719
  32   2.0000     -11.202334      -304.8310
  33   2.0000     -11.201708      -304.8140
  34   2.0000     -11.193236      -304.5834
  35   2.0000     -11.192804      -304.5717
  36   2.0000     -11.174786      -304.0814
  37   2.0000     -11.173040      -304.0339
  38   2.0000     -11.173016      -304.0332
  39   2.0000     -11.172856      -304.0289
  40   2.0000     -11.169061      -303.9256
  41   2.0000     -11.168560      -303.9120
  42   2.0000     -11.166668      -303.8605
  43   2.0000     -11.165210      -303.8208
  44   2.0000     -11.162207      -303.7391
  45   2.0000     -11.160830      -303.7016
  46   2.0000     -11.151741      -303.4543
  47   2.0000     -11.149803      -303.4016
  48   2.0000     -11.145185      -303.2759
  49   2.0000     -11.142759      -303.2099
  50   2.0000     -11.140898      -303.1593
  51   2.0000     -11.137897      -303.0776
  52   2.0000      -1.330465       -36.2038
  53   2.0000      -1.326146       -36.0863
  54   2.0000      -1.316438       -35.8221
  55   2.0000      -1.307969       -35.5916
  56   2.0000      -1.219126       -33.1741
  57   2.0000      -1.212086       -32.9825
  58   2.0000      -1.162162       -31.6240
  59   2.0000      -1.156952       -31.4823
  60   2.0000      -1.118443       -30.4344
  61   2.0000      -1.113890       -30.3105
  62   2.0000      -1.105588       -30.0846
  63   2.0000      -1.098900       -29.9026
  64   2.0000      -1.054197       -28.6862
  65   2.0000      -1.049957       -28.5708
  66   2.0000      -1.041041       -28.3282
  67   2.0000      -1.033619       -28.1262
  68   2.0000      -1.027541       -27.9608
  69   2.0000      -1.010647       -27.5011
  70   2.0000      -1.009325       -27.4651
  71   2.0000      -0.996966       -27.1288
  72   2.0000      -0.983461       -26.7613
  73   2.0000      -0.975106       -26.5340
  74   2.0000      -0.970229       -26.4013
  75   2.0000      -0.959431       -26.1074
  76   2.0000      -0.952400       -25.9161
  77   2.0000      -0.943389       -25.6709
  78   2.0000      -0.939926       -25.5767
  79   2.0000      -0.923222       -25.1221
  80   2.0000      -0.893597       -24.3160
  81   2.0000      -0.880537       -23.9606
  82   2.0000      -0.876494       -23.8506
  83   2.0000      -0.868500       -23.6331
  84   2.0000      -0.862958       -23.4823
  85   2.0000      -0.856910       -23.3177
  86   2.0000      -0.848214       -23.0811
  87   2.0000      -0.843364       -22.9491
  88   2.0000      -0.821704       -22.3597
  89   2.0000      -0.798610       -21.7313
  90   2.0000      -0.797511       -21.7014
  91   2.0000      -0.739667       -20.1274
  92   2.0000      -0.730724       -19.8840
  93   2.0000      -0.729519       -19.8512
  94   2.0000      -0.721231       -19.6257
  95   2.0000      -0.719788       -19.5864
  96   2.0000      -0.712245       -19.3812
  97   2.0000      -0.708259       -19.2727
  98   2.0000      -0.698945       -19.0193
  99   2.0000      -0.693327       -18.8664
 100   2.0000      -0.685510       -18.6537
 101   2.0000      -0.680762       -18.5245
 102   2.0000      -0.679523       -18.4908
 103   2.0000      -0.673108       -18.3162
 104   2.0000      -0.668499       -18.1908
 105   2.0000      -0.665796       -18.1172
 106   2.0000      -0.662195       -18.0192
 107   2.0000      -0.661278       -17.9943
 108   2.0000      -0.657845       -17.9009
 109   2.0000      -0.656178       -17.8555
 110   2.0000      -0.652212       -17.7476
 111   2.0000      -0.650050       -17.6888
 112   2.0000      -0.646419       -17.5899
 113   2.0000      -0.642590       -17.4858
 114   2.0000      -0.634856       -17.2753
 115   2.0000      -0.622828       -16.9480
 116   2.0000      -0.620505       -16.8848
 117   2.0000      -0.616697       -16.7812
 118   2.0000      -0.610787       -16.6204
 119   2.0000      -0.609265       -16.5790
 120   2.0000      -0.608166       -16.5491
 121   2.0000      -0.603880       -16.4324
 122   2.0000      -0.600755       -16.3474
 123   2.0000      -0.592978       -16.1358
 124   2.0000      -0.588859       -16.0237
 125   2.0000      -0.585358       -15.9284
 126   2.0000      -0.578199       -15.7336
 127   2.0000      -0.573051       -15.5935
 128   2.0000      -0.570927       -15.5357
 129   2.0000      -0.560530       -15.2528
 130   2.0000      -0.553856       -15.0712
 131   2.0000      -0.544693       -14.8218
 132   2.0000      -0.541678       -14.7398
 133   2.0000      -0.535586       -14.5740
 134   2.0000      -0.533754       -14.5242
 135   2.0000      -0.529628       -14.4119
 136   2.0000      -0.524530       -14.2732
 137   2.0000      -0.522806       -14.2263
 138   2.0000      -0.519059       -14.1243
 139   2.0000      -0.517122       -14.0716
 140   2.0000      -0.509348       -13.8601
 141   2.0000      -0.505564       -13.7571
 142   2.0000      -0.504551       -13.7295
 143   2.0000      -0.502616       -13.6769
 144   2.0000      -0.499709       -13.5978
 145   2.0000      -0.498371       -13.5614
 146   2.0000      -0.495837       -13.4924
 147   2.0000      -0.492645       -13.4056
 148   2.0000      -0.490523       -13.3478
 149   2.0000      -0.469106       -12.7650
 150   2.0000      -0.460675       -12.5356
 151   2.0000      -0.451684       -12.2909
 152   2.0000      -0.448467       -12.2034
 153   2.0000      -0.446159       -12.1406
 154   2.0000      -0.445377       -12.1193
 155   2.0000      -0.439218       -11.9517
 156   2.0000      -0.435328       -11.8459
 157   2.0000      -0.431766       -11.7489
 158   2.0000      -0.391991       -10.6666
 159   2.0000      -0.382173       -10.3995
 160   2.0000      -0.379876       -10.3370
 161   2.0000      -0.372487       -10.1359
 162   2.0000      -0.363959        -9.9038
 163   2.0000      -0.360236        -9.8025
 164   2.0000      -0.352760        -9.5991
 165   2.0000      -0.346162        -9.4195
 166   2.0000      -0.337241        -9.1768
 167   2.0000      -0.332741        -9.0544
 168   2.0000      -0.329461        -8.9651
 169   2.0000      -0.300191        -8.1686
 170   2.0000      -0.296871        -8.0783
 171   2.0000      -0.288477        -7.8499
 172   2.0000      -0.287140        -7.8135
 173   2.0000      -0.255215        -6.9448
 174   2.0000      -0.247976        -6.7478
 175   2.0000      -0.188265        -5.1230
 176   2.0000      -0.178163        -4.8481
 177   2.0000      -0.067145        -1.8271
 178   2.0000      -0.055086        -1.4990
 179   0.0000       0.030618         0.8332
 180   0.0000       0.070375         1.9150
 181   0.0000       0.093060         2.5323
 182   0.0000       0.098184         2.6717
 183   0.0000       0.130246         3.5442

MULLIKEN ATOMIC CHARGES
-----------------------
   0 C :    0.204662
   1 N :   -0.445511
   2 C :   -0.064723
   3 N :   -0.337294
   4 C :   -0.070273
   5 N :   -0.561768
   6 C :   -0.072772
   7 N :   -0.338647
   8 C :    0.203268
   9 N :   -0.562917
  10 C :    0.115727
  11 N :   -0.437205
  12 C :   -0.071361
  13 N :   -0.437558
  14 C :    0.235162
  15 N :   -0.440904
  16 C :    0.233579
  17 C :   -0.072429
  18 C :   -0.194016
  19 C :    0.224479
  20 C :    0.210067
  21 C :   -0.078414
  22 C :   -0.086174
  23 C :   -0.046993
  24 C :    0.204259
  25 C :    0.113725
  26 C :   -0.073430
  27 C :    0.220058
  28 C :   -0.053950
  29 C :   -0.183884
  30 C :    0.237671
  31 C :    0.215588
  32 C :   -0.064090
  33 C :   -0.076889
  34 C :   -0.049656
  35 C :    0.208836
  36 C :    0.112857
  37 C :   -0.066051
  38 C :    0.236336
  39 C :   -0.061124
  40 C :   -0.187098
  41 C :    0.221008
  42 C :    0.201621
  43 C :   -0.073620
  44 C :   -0.089481
  45 C :   -0.054768
  46 C :    0.204725
  47 C :    0.115655
  48 C :   -0.073425
  49 C :    0.228444
  50 C :   -0.051390
  51 C :   -0.190858
  52 H :    0.050599
  53 H :   -0.014671
  54 H :    0.046144
  55 H :    0.049558
  56 H :    0.056685
  57 H :    0.054459
  58 H :    0.053563
  59 H :   -0.009815
  60 H :    0.044146
  61 H :    0.172274
  62 H :    0.173559
  63 H :    0.057188
  64 H :   -0.017270
  65 H :    0.046783
  66 H :    0.057749
  67 H :    0.063462
  68 H :    0.058303
  69 H :    0.058814
  70 H :   -0.025460
  71 H :    0.048088
  72 H :    0.059597
  73 H :   -0.012804
  74 H :    0.049655
  75 H :    0.058653
  76 H :    0.064757
  77 H :    0.060225
  78 H :    0.059389
  79 H :   -0.014136
  80 H :    0.049980
  81 H :    0.053579
  82 H :   -0.024233
  83 H :    0.042404
  84 H :    0.053024
  85 H :    0.059125
  86 H :    0.055933
  87 H :    0.056680
  88 H :   -0.020455
  89 H :    0.045415
Sum of atomic charges:   -0.0000000

LOEWDIN ATOMIC CHARGES
----------------------
   0 C :   -0.009326
   1 N :    0.130703
   2 C :   -0.100693
   3 N :    0.179262
   4 C :    0.023491
   5 N :   -0.135970
   6 C :   -0.026875
   7 N :    0.176972
   8 C :   -0.010704
   9 N :   -0.139154
  10 C :    0.027327
  11 N :    0.145239
  12 C :   -0.102598
  13 N :    0.147040
  14 C :   -0.042218
  15 N :    0.138209
  16 C :   -0.049252
  17 C :   -0.028122
  18 C :   -0.106183
  19 C :   -0.087042
  20 C :    0.002550
  21 C :   -0.105958
  22 C :    0.043612
  23 C :   -0.019017
  24 C :   -0.002452
  25 C :    0.030565
  26 C :   -0.104804
  27 C :   -0.099844
  28 C :   -0.021892
  29 C :   -0.104934
  30 C :   -0.042821
  31 C :    0.006796
  32 C :   -0.097461
  33 C :    0.049441
  34 C :   -0.018338
  35 C :    0.001031
  36 C :    0.030882
  37 C :   -0.099286
  38 C :   -0.042925
  39 C :   -0.023879
  40 C :   -0.108504
  41 C :   -0.094505
  42 C :   -0.006931
  43 C :   -0.104009
  44 C :    0.033259
  45 C :   -0.023941
  46 C :   -0.004261
  47 C :    0.029225
  48 C :   -0.103299
  49 C :   -0.085175
  50 C :   -0.022128
  51 C :   -0.109124
  52 H :    0.027790
  53 H :    0.004030
  54 H :    0.042591
  55 H :    0.027929
  56 H :    0.025233
  57 H :    0.029500
  58 H :    0.029921
  59 H :    0.005335
  60 H :    0.042357
  61 H :    0.060352
  62 H :    0.060849
  63 H :    0.031394
  64 H :    0.000271
  65 H :    0.045412
  66 H :    0.030537
  67 H :    0.028820
  68 H :    0.032115
  69 H :    0.031380
  70 H :   -0.002637
  71 H :    0.045306
  72 H :    0.032244
  73 H :    0.004807
  74 H :    0.046210
  75 H :    0.031536
  76 H :    0.029529
  77 H :    0.032528
  78 H :    0.032170
  79 H :    0.004207
  80 H :    0.045747
  81 H :    0.028907
  82 H :   -0.002266
  83 H :    0.043097
  84 H :    0.029127
  85 H :    0.026576
  86 H :    0.030298
  87 H :    0.031147
  88 H :   -0.000456
  89 H :    0.044124

  Mayer bond orders larger than 0.100000
B(  0-C ,  1-N ) :   1.1076 B(  0-C , 17-C ) :   1.6546 B(  0-C , 52-H ) :   0.9692
B(  1-N ,  8-C ) :   1.1044 B(  1-N , 10-C ) :   0.9668 B(  2-C , 12-C ) :   1.5310
B(  2-C , 16-C ) :   1.3294 B(  2-C , 53-H ) :   0.9776 B(  3-N , 14-C ) :   1.2069
B(  3-N , 16-C ) :   1.1943 B(  3-N , 61-H ) :   0.8988 B(  4-C ,  6-C ) :   1.2474
B(  4-C , 17-C ) :   1.2503 B(  4-C , 18-C ) :   1.3112 B(  5-N , 19-C ) :   1.4282
B(  5-N , 27-C ) :   1.3988 B(  6-C ,  8-C ) :   1.6569 B(  6-C , 54-H ) :   0.9703
B(  7-N , 30-C ) :   1.1927 B(  7-N , 38-C ) :   1.1997 B(  7-N , 62-H ) :   0.8979
B(  8-C , 55-H ) :   0.9702 B(  9-N , 41-C ) :   1.4035 B(  9-N , 49-C ) :   1.4200
B( 10-C , 56-H ) :   0.9763 B( 10-C , 57-H ) :   0.9826 B( 10-C , 58-H ) :   0.9831
B( 11-N , 20-C ) :   1.1276 B( 11-N , 24-C ) :   1.1214 B( 11-N , 25-C ) :   0.9577
B( 12-C , 14-C ) :   1.3318 B( 12-C , 59-H ) :   0.9766 B( 13-N , 31-C ) :   1.1326
B( 13-N , 35-C ) :   1.1252 B( 13-N , 36-C ) :   0.9558 B( 14-C , 18-C ) :   1.1817
B( 15-N , 42-C ) :   1.1133 B( 15-N , 46-C ) :   1.1161 B( 15-N , 47-C ) :   0.9624
B( 16-C , 51-C ) :   1.1947 B( 17-C , 60-H ) :   0.9701 B( 18-C , 19-C ) :   1.1942
B( 19-C , 21-C ) :   1.2203 B( 20-C , 28-C ) :   1.6223 B( 20-C , 63-H ) :   0.9702
B( 21-C , 26-C ) :   1.6358 B( 21-C , 64-H ) :   0.9729 B( 22-C , 23-C ) :   1.2864
B( 22-C , 28-C ) :   1.2742 B( 22-C , 29-C ) :   1.2246 B( 23-C , 24-C ) :   1.6165
B( 23-C , 65-H ) :   0.9708 B( 24-C , 66-H ) :   0.9692 B( 25-C , 67-H ) :   0.9761
B( 25-C , 68-H ) :   0.9829 B( 25-C , 69-H ) :   0.9821 B( 26-C , 27-C ) :   1.2161
B( 26-C , 70-H ) :   0.9728 B( 27-C , 29-C ) :   1.2256 B( 28-C , 71-H ) :   0.9715
B( 29-C , 30-C ) :   1.2205 B( 30-C , 32-C ) :   1.3034 B( 31-C , 39-C ) :   1.6215
B( 31-C , 72-H ) :   0.9693 B( 32-C , 37-C ) :   1.5551 B( 32-C , 73-H ) :   0.9779
B( 33-C , 34-C ) :   1.2827 B( 33-C , 39-C ) :   1.2753 B( 33-C , 40-C ) :   1.2323
B( 34-C , 35-C ) :   1.6182 B( 34-C , 74-H ) :   0.9702 B( 35-C , 75-H ) :   0.9693
B( 36-C , 76-H ) :   0.9764 B( 36-C , 77-H ) :   0.9820 B( 36-C , 78-H ) :   0.9829
B( 37-C , 38-C ) :   1.3054 B( 37-C , 79-H ) :   0.9776 B( 38-C , 40-C ) :   1.2151
B( 39-C , 80-H ) :   0.9713 B( 40-C , 41-C ) :   1.2246 B( 41-C , 43-C ) :   1.2096
B( 42-C , 50-C ) :   1.6342 B( 42-C , 81-H ) :   0.9696 B( 43-C , 48-C ) :   1.6418
B( 43-C , 82-H ) :   0.9733 B( 44-C , 45-C ) :   1.2683 B( 44-C , 50-C ) :   1.2676
B( 44-C , 51-C ) :   1.2586 B( 45-C , 46-C ) :   1.6338 B( 45-C , 83-H ) :   0.9713
B( 46-C , 84-H ) :   0.9702 B( 47-C , 85-H ) :   0.9761 B( 47-C , 86-H ) :   0.9828
B( 47-C , 87-H ) :   0.9826 B( 48-C , 49-C ) :   1.2104 B( 48-C , 88-H ) :   0.9741
B( 49-C , 51-C ) :   1.2208 B( 50-C , 89-H ) :   0.9712

MP2 TOTAL ENERGY:    -2130.915931905 Eh
FINAL SINGLE POINT ENERGY     -2130.915931904999

DIPOLE MOMENT
-------------
                                X             Y             Z
Electronic contribution:      0.30158      -1.63636      -0.21045
Nuclear contribution   :      0.00744       0.19118       0.22778
                        -----------------------------------------
Total Dipole Moment    :      0.30902      -1.44518       0.01733
                        -----------------------------------------
Magnitude (a.u.)       :      1.47795
Magnitude (Debye)      :      3.75664

Rotational constants in cm-1:     0.001498     0.001475     0.000762
Rotational constants in MHz :    44.921054    44.215804    22.842773

                             ****ORCA TERMINATED NORMALLY****
TOTAL RUN TIME: 0 days 1 hours 26 minutes 49 seconds 516 msec
