                         Program Version 5.0.4 -  RELEASE  -
|  1> ! PAL2
|  2> ! mp2 cc-pvdz TightSCF  NoKeepInts
|  3>
|  4> %scf
|  5>   MaxCore 2000
|  6> end
|  7> %mp2
|  8>   MaxCore 2000
|  9> end
| 10> * xyz 0 1
| 11>    C       -3.64300         6.10000        -0.99400
| 12>    C        1.47400         4.04100         0.05700
| 13>    C       -2.80200         4.09300         0.04900
| 14>    C       -3.55900         4.42600         1.18300
| 15>    C       -4.32900         5.57200         1.19100
| 16>    C       -5.22500         7.59300         0.14000
| 17>    C        0.13200         4.30700         0.06100
| 18>    C       -0.56900         3.05600         0.04700
| 19>    C        1.64900         2.61800         0.02300
| 20>    C       -2.86300         4.96200        -1.05200
| 21>    N       -4.36100         6.39200         0.11500
| 22>    N        0.38800         2.06700         0.02500
| 23>    N       -2.01000         0.39500        -0.07500
| 24>    N       -0.38800        -2.07400        -0.02700
| 25>    N        2.01000        -0.40100         0.06500
| 26>    C       -1.96000         2.86100         0.02400
| 27>    C       -2.62300         1.61500        -0.01800
| 28>    C       -5.57300        -4.32900         1.06600
| 29>    C       -4.07300         1.47100         0.05600
| 30>    C       -4.10600        -2.75600        -0.02600
| 31>    C       -4.99500        -2.75700        -1.11100
| 32>    C       -6.13200        -3.54200        -1.07600
| 33>    C       -7.65100        -5.11300         0.04000
| 34>    C       -4.32400         0.14100         0.03700
| 35>    C       -3.02500        -0.52000        -0.04800
| 36>    C       -4.42200        -3.56600         1.07500
| 37>    N       -6.40700        -4.31300         0.00100
| 38>    C       -2.86700        -1.92200        -0.04000
| 39>    C       -1.65000        -2.62400        -0.02700
| 40>    C        3.56800        -6.14200        -1.04000
| 41>    C       -1.47600        -4.04900        -0.03400
| 42>    C        2.80300        -4.09900        -0.00800
| 43>    C        3.65700        -4.38400         1.06900
| 44>    C        4.42700        -5.53000         1.05900
| 45>    C        5.24500        -7.58800         0.01400
| 46>    C       -0.13400        -4.31500        -0.02200
| 47>    C        0.56800        -3.06400        -0.02700
| 48>    C        2.77500        -5.01200        -1.07400
| 49>    N        4.37600        -6.39100         0.01700
| 50>    C        1.95900        -2.86900        -0.00900
| 51>    C        2.62100        -1.62200         0.00900
| 52>    C        5.54300         4.33900        -1.13000
| 53>    C        4.07000        -1.47900        -0.09400
| 54>    C        4.10400         2.75100        -0.02100
| 55>    C        5.02700         2.72900         1.03600
| 56>    C        6.16600         3.50900         0.97800
| 57>    C        7.61900         5.15300        -0.11500
| 58>    C        4.32100        -0.14800        -0.09200
| 59>    C        3.02500         0.51400         0.01500
| 60>    C        4.38700         3.58200        -1.11500
| 61>    C        2.86600         1.91600         0.01300
| 62>    N        6.41300         4.29600        -0.09500
| 63>    H       -3.71100         6.80400        -1.81400
| 64>    H        2.27400         4.76600         0.08100
| 65>    H       -3.56100         3.79100         2.06000
| 66>    H       -4.93600         5.86500         2.03700
| 67>    H       -6.23300         7.31300        -0.17400
| 68>    H       -5.24500         7.98900         1.15600
| 69>    H       -4.81300         8.33600        -0.54200
| 70>    H       -0.33200         5.28200         0.06900
| 71>    H       -2.29000         4.76700        -1.95100
| 72>    H        0.18200         1.07200         0.00500
| 73>    H       -0.18300        -1.08000        -0.02100
| 74>    H       -5.86400        -4.96200         1.89500
| 75>    H       -4.79400         2.27200         0.13900
| 76>    H       -4.80000        -2.16000        -1.99400
| 77>    H       -6.84100        -3.58200        -1.89300
| 78>    H       -8.42800        -4.53600         0.54600
| 79>    H       -7.95600        -5.33700        -0.98100
| 80>    H       -7.45600        -6.03700         0.58400
| 81>    H       -5.28700        -0.34400         0.10000
| 82>    H       -3.78000        -3.60100         1.94700
| 83>    H        3.58700        -6.86800        -1.84300
| 84>    H       -2.27600        -4.77400        -0.05000
| 85>    H        3.71400        -3.72400         1.92600
| 86>    H        5.09200        -5.79500         1.87100
| 87>    H        6.20500        -7.32900        -0.43900
| 88>    H        5.39300        -7.91700         1.04200
| 89>    H        4.75900        -8.37300        -0.56400
| 90>    H        0.32900        -5.29000        -0.00800
| 91>    H        2.14600        -4.84200        -1.94000
| 92>    H        5.80800         4.98600        -1.95600
| 93>    H        4.78800        -2.28100        -0.18500
| 94>    H        4.86000         2.11400         1.91200
| 95>    H        6.90100         3.53100         1.77200
| 96>    H        7.38300         6.10900         0.35600
| 97>    H        8.41400         4.65200         0.43500
| 98>    H        7.92100         5.31000        -1.15000
| 99>    H        5.28300         0.33600        -0.17900
|100>    H        3.72000         3.63200        -1.96700
|101> *
|102>
|103>                          ****END OF INPUT****

CARTESIAN COORDINATES (ANGSTROEM)
---------------------------------
  C     -3.643000    6.100000   -0.994000
  C      1.474000    4.041000    0.057000
  C     -2.802000    4.093000    0.049000
  C     -3.559000    4.426000    1.183000
  C     -4.329000    5.572000    1.191000
  C     -5.225000    7.593000    0.140000
  C      0.132000    4.307000    0.061000
  C     -0.569000    3.056000    0.047000
  C      1.649000    2.618000    0.023000
  C     -2.863000    4.962000   -1.052000
  N     -4.361000    6.392000    0.115000
  N      0.388000    2.067000    0.025000
  N     -2.010000    0.395000   -0.075000
  N     -0.388000   -2.074000   -0.027000
  N      2.010000   -0.401000    0.065000
  C     -1.960000    2.861000    0.024000
  C     -2.623000    1.615000   -0.018000
  C     -5.573000   -4.329000    1.066000
  C     -4.073000    1.471000    0.056000
  C     -4.106000   -2.756000   -0.026000
  C     -4.995000   -2.757000   -1.111000
  C     -6.132000   -3.542000   -1.076000
  C     -7.651000   -5.113000    0.040000
  C     -4.324000    0.141000    0.037000
  C     -3.025000   -0.520000   -0.048000
  C     -4.422000   -3.566000    1.075000
  N     -6.407000   -4.313000    0.001000
  C     -2.867000   -1.922000   -0.040000
  C     -1.650000   -2.624000   -0.027000
  C      3.568000   -6.142000   -1.040000
  C     -1.476000   -4.049000   -0.034000
  C      2.803000   -4.099000   -0.008000
  C      3.657000   -4.384000    1.069000
  C      4.427000   -5.530000    1.059000
  C      5.245000   -7.588000    0.014000
  C     -0.134000   -4.315000   -0.022000
  C      0.568000   -3.064000   -0.027000
  C      2.775000   -5.012000   -1.074000
  N      4.376000   -6.391000    0.017000
  C      1.959000   -2.869000   -0.009000
  C      2.621000   -1.622000    0.009000
  C      5.543000    4.339000   -1.130000
  C      4.070000   -1.479000   -0.094000
  C      4.104000    2.751000   -0.021000
  C      5.027000    2.729000    1.036000
  C      6.166000    3.509000    0.978000
  C      7.619000    5.153000   -0.115000
  C      4.321000   -0.148000   -0.092000
  C      3.025000    0.514000    0.015000
  C      4.387000    3.582000   -1.115000
  C      2.866000    1.916000    0.013000
  N      6.413000    4.296000   -0.095000
  H     -3.711000    6.804000   -1.814000
  H      2.274000    4.766000    0.081000
  H     -3.561000    3.791000    2.060000
  H     -4.936000    5.865000    2.037000
  H     -6.233000    7.313000   -0.174000
  H     -5.245000    7.989000    1.156000
  H     -4.813000    8.336000   -0.542000
  H     -0.332000    5.282000    0.069000
  H     -2.290000    4.767000   -1.951000
  H      0.182000    1.072000    0.005000
  H     -0.183000   -1.080000   -0.021000
  H     -5.864000   -4.962000    1.895000
  H     -4.794000    2.272000    0.139000
  H     -4.800000   -2.160000   -1.994000
  H     -6.841000   -3.582000   -1.893000
  H     -8.428000   -4.536000    0.546000
  H     -7.956000   -5.337000   -0.981000
  H     -7.456000   -6.037000    0.584000
  H     -5.287000   -0.344000    0.100000
  H     -3.780000   -3.601000    1.947000
  H      3.587000   -6.868000   -1.843000
  H     -2.276000   -4.774000   -0.050000
  H      3.714000   -3.724000    1.926000
  H      5.092000   -5.795000    1.871000
  H      6.205000   -7.329000   -0.439000
  H      5.393000   -7.917000    1.042000
  H      4.759000   -8.373000   -0.564000
  H      0.329000   -5.290000   -0.008000
  H      2.146000   -4.842000   -1.940000
  H      5.808000    4.986000   -1.956000
  H      4.788000   -2.281000   -0.185000
  H      4.860000    2.114000    1.912000
  H      6.901000    3.531000    1.772000
  H      7.383000    6.109000    0.356000
  H      8.414000    4.652000    0.435000
  H      7.921000    5.310000   -1.150000
  H      5.283000    0.336000   -0.179000
  H      3.720000    3.632000   -1.967000

 Total Charge           Charge          ....    0
 Multiplicity           Mult            ....    1
 Number of Electrons    NEL             ....  358
 Basis Dimension        Dim             ....  918

ORBITAL ENERGIES
----------------

  NO   OCC          E(Eh)            E(eV)
   0   2.0000     -15.662834      -426.2074
   1   2.0000     -15.637035      -425.5054
   2   2.0000     -15.626708      -425.2243
   3   2.0000     -15.609601      -424.7588
   4   2.0000     -15.518070      -422.2682
   5   2.0000     -15.512104      -422.1058
   6   2.0000     -15.446601      -420.3234
   7   2.0000     -15.436490      -420.0483
   8   2.0000     -11.316907      -307.9487
   9   2.0000     -11.314104      -307.8724
  10   2.0000     -11.312748      -307.8355
  11   2.0000     -11.301260      -307.5229
  12   2.0000     -11.294625      -307.3424
  13   2.0000     -11.294386      -307.3359
  14   2.0000     -11.290574      -307.2321
  15   2.0000     -11.285796      -307.1021
  16   2.0000     -11.284152      -307.0574
  17   2.0000     -11.281431      -306.9833
  18   2.0000     -11.270871      -306.6960
  19   2.0000     -11.268179      -306.6227
  20   2.0000     -11.263941      -306.5074
  21   2.0000     -11.250635      -306.1453
  22   2.0000     -11.250049      -306.1294
  23   2.0000     -11.240314      -305.8645
  24   2.0000     -11.232514      -305.6522
  25   2.0000     -11.231663      -305.6291
  26   2.0000     -11.230895      -305.6082
  27   2.0000     -11.224973      -305.4471
  28   2.0000     -11.224733      -305.4405
  29   2.0000     -11.215384      -305.1861
  30   2.0000     -11.212677      -305.1125
  31   2.0000     -11.211852      -305.0900
  32   2.0000     -11.201079      -304.7969
  33   2.0000     -11.200750      -304.7879
  34   2.0000     -11.190563      -304.5107
  35   2.0000     -11.190209      -304.5011
  36   2.0000     -11.180512      -304.2372
  37   2.0000     -11.180016      -304.2237
  38   2.0000     -11.178347      -304.1783
  39   2.0000     -11.168106      -303.8996
  40   2.0000     -11.164967      -303.8142
  41   2.0000     -11.162834      -303.7562
  42   2.0000     -11.159944      -303.6775
  43   2.0000     -11.159869      -303.6755
  44   2.0000     -11.157873      -303.6211
  45   2.0000     -11.155856      -303.5663
  46   2.0000     -11.153165      -303.4931
  47   2.0000     -11.150336      -303.4161
  48   2.0000     -11.150173      -303.4116
  49   2.0000     -11.145537      -303.2855
  50   2.0000     -11.131547      -302.9048
  51   2.0000     -11.128992      -302.8353
  52   2.0000      -1.345203       -36.6048
  53   2.0000      -1.323816       -36.0229
  54   2.0000      -1.314675       -35.7741
  55   2.0000      -1.300327       -35.3837
  56   2.0000      -1.217804       -33.1381
  57   2.0000      -1.208949       -32.8972
  58   2.0000      -1.166239       -31.7350
  59   2.0000      -1.149482       -31.2790
  60   2.0000      -1.129806       -30.7436
  61   2.0000      -1.111564       -30.2472
  62   2.0000      -1.104012       -30.0417
  63   2.0000      -1.090938       -29.6859
  64   2.0000      -1.067873       -29.0583
  65   2.0000      -1.047650       -28.5080
  66   2.0000      -1.039265       -28.2798
  67   2.0000      -1.030951       -28.0536
  68   2.0000      -1.025945       -27.9174
  69   2.0000      -1.012661       -27.5559
  70   2.0000      -1.006709       -27.3939
  71   2.0000      -0.993032       -27.0218
  72   2.0000      -0.982516       -26.7356
  73   2.0000      -0.973925       -26.5019
  74   2.0000      -0.971394       -26.4330
  75   2.0000      -0.959922       -26.1208
  76   2.0000      -0.949133       -25.8272
  77   2.0000      -0.948170       -25.8010
  78   2.0000      -0.931878       -25.3577
  79   2.0000      -0.921291       -25.0696
  80   2.0000      -0.896517       -24.3955
  81   2.0000      -0.887839       -24.1593
  82   2.0000      -0.874776       -23.8039
  83   2.0000      -0.866414       -23.5763
  84   2.0000      -0.863165       -23.4879
  85   2.0000      -0.855266       -23.2730
  86   2.0000      -0.850014       -23.1300
  87   2.0000      -0.836016       -22.7491
  88   2.0000      -0.822293       -22.3757
  89   2.0000      -0.796994       -21.6873
  90   2.0000      -0.795284       -21.6408
  91   2.0000      -0.743052       -20.2195
  92   2.0000      -0.733525       -19.9602
  93   2.0000      -0.726958       -19.7815
  94   2.0000      -0.722066       -19.6484
  95   2.0000      -0.716735       -19.5033
  96   2.0000      -0.710230       -19.3264
  97   2.0000      -0.704552       -19.1718
  98   2.0000      -0.700826       -19.0704
  99   2.0000      -0.693472       -18.8703
 100   2.0000      -0.691734       -18.8230
 101   2.0000      -0.681833       -18.5536
 102   2.0000      -0.678544       -18.4641
 103   2.0000      -0.672607       -18.3026
 104   2.0000      -0.672299       -18.2942
 105   2.0000      -0.669413       -18.2157
 106   2.0000      -0.663586       -18.0571
 107   2.0000      -0.659726       -17.9521
 108   2.0000      -0.656370       -17.8607
 109   2.0000      -0.655473       -17.8363
 110   2.0000      -0.650016       -17.6878
 111   2.0000      -0.647979       -17.6324
 112   2.0000      -0.643168       -17.5015
 113   2.0000      -0.636872       -17.3302
 114   2.0000      -0.633198       -17.2302
 115   2.0000      -0.632831       -17.2202
 116   2.0000      -0.622795       -16.9471
 117   2.0000      -0.615266       -16.7422
 118   2.0000      -0.613287       -16.6884
 119   2.0000      -0.608901       -16.5690
 120   2.0000      -0.606850       -16.5132
 121   2.0000      -0.599726       -16.3194
 122   2.0000      -0.598702       -16.2915
 123   2.0000      -0.594316       -16.1721
 124   2.0000      -0.591854       -16.1052
 125   2.0000      -0.583398       -15.8751
 126   2.0000      -0.576908       -15.6985
 127   2.0000      -0.572034       -15.5658
 128   2.0000      -0.566076       -15.4037
 129   2.0000      -0.562321       -15.3015
 130   2.0000      -0.556412       -15.1407
 131   2.0000      -0.548531       -14.9263
 132   2.0000      -0.539396       -14.6777
 133   2.0000      -0.535308       -14.5665
 134   2.0000      -0.533360       -14.5135
 135   2.0000      -0.531961       -14.4754
 136   2.0000      -0.524099       -14.2615
 137   2.0000      -0.521028       -14.1779
 138   2.0000      -0.517446       -14.0804
 139   2.0000      -0.514121       -13.9899
 140   2.0000      -0.509731       -13.8705
 141   2.0000      -0.506436       -13.7808
 142   2.0000      -0.503437       -13.6992
 143   2.0000      -0.499326       -13.5873
 144   2.0000      -0.498436       -13.5631
 145   2.0000      -0.496173       -13.5016
 146   2.0000      -0.493504       -13.4289
 147   2.0000      -0.490855       -13.3568
 148   2.0000      -0.485907       -13.2222
 149   2.0000      -0.466282       -12.6882
 150   2.0000      -0.461385       -12.5549
 151   2.0000      -0.453436       -12.3386
 152   2.0000      -0.448000       -12.1907
 153   2.0000      -0.443575       -12.0703
 154   2.0000      -0.441344       -12.0096
 155   2.0000      -0.440056       -11.9745
 156   2.0000      -0.431405       -11.7391
 157   2.0000      -0.424957       -11.5637
 158   2.0000      -0.395857       -10.7718
 159   2.0000      -0.382167       -10.3993
 160   2.0000      -0.375692       -10.2231
 161   2.0000      -0.374262       -10.1842
 162   2.0000      -0.366332        -9.9684
 163   2.0000      -0.358274        -9.7491
 164   2.0000      -0.351145        -9.5551
 165   2.0000      -0.340005        -9.2520
 166   2.0000      -0.338358        -9.2072
 167   2.0000      -0.334995        -9.1157
 168   2.0000      -0.322545        -8.7769
 169   2.0000      -0.299753        -8.1567
 170   2.0000      -0.295791        -8.0489
 171   2.0000      -0.286730        -7.8023
 172   2.0000      -0.284959        -7.7541
 173   2.0000      -0.259152        -7.0519
 174   2.0000      -0.241647        -6.5756
 175   2.0000      -0.186116        -5.0645
 176   2.0000      -0.175925        -4.7872
 177   2.0000      -0.063320        -1.7230
 178   2.0000      -0.052082        -1.4172
 179   0.0000       0.033129         0.9015
 180   0.0000       0.066434         1.8078
 181   0.0000       0.092340         2.5127
 182   0.0000       0.095737         2.6051
 183   0.0000       0.118413         3.2222

MULLIKEN ATOMIC CHARGES
-----------------------
   0 C :    0.218808
   1 N :   -0.431383
   2 C :   -0.065768
   3 N :   -0.339812
   4 C :   -0.073712
   5 N :   -0.564881
   6 C :   -0.043399
   7 N :   -0.337110
   8 C :    0.216669
   9 N :   -0.564609
  10 C :    0.110006
  11 N :   -0.437947
  12 C :   -0.064256
  13 N :   -0.445250
  14 C :    0.233795
  15 N :   -0.440666
  16 C :    0.243482
  17 C :   -0.048586
  18 C :   -0.199868
  19 C :    0.237827
  20 C :    0.200404
  21 C :   -0.076072
  22 C :   -0.086658
  23 C :   -0.056799
  24 C :    0.212339
  25 C :    0.114000
  26 C :   -0.070155
  27 C :    0.234701
  28 C :   -0.046377
  29 C :   -0.191784
  30 C :    0.228954
  31 C :    0.199146
  32 C :   -0.066587
  33 C :   -0.091819
  34 C :   -0.051020
  35 C :    0.192405
  36 C :    0.117418
  37 C :   -0.068520
  38 C :    0.239640
  39 C :   -0.062653
  40 C :   -0.196658
  41 C :    0.219774
  42 C :    0.208341
  43 C :   -0.074744
  44 C :   -0.089132
  45 C :   -0.045756
  46 C :    0.195669
  47 C :    0.115836
  48 C :   -0.077717
  49 C :    0.218105
  50 C :   -0.059202
  51 C :   -0.188635
  52 H :    0.065896
  53 H :   -0.011306
  54 H :    0.054931
  55 H :    0.064505
  56 H :    0.069764
  57 H :    0.065094
  58 H :    0.063452
  59 H :   -0.019865
  60 H :    0.053198
  61 H :    0.174895
  62 H :    0.170440
  63 H :    0.055601
  64 H :   -0.026074
  65 H :    0.045300
  66 H :    0.057289
  67 H :    0.061351
  68 H :    0.057721
  69 H :    0.059416
  70 H :   -0.020317
  71 H :    0.048005
  72 H :    0.047306
  73 H :   -0.017589
  74 H :    0.038336
  75 H :    0.046272
  76 H :    0.054336
  77 H :    0.052319
  78 H :    0.051601
  79 H :   -0.013070
  80 H :    0.038543
  81 H :    0.052666
  82 H :   -0.022663
  83 H :    0.043763
  84 H :    0.052220
  85 H :    0.057556
  86 H :    0.056821
  87 H :    0.056039
  88 H :   -0.025830
  89 H :    0.042298
Sum of atomic charges:   -0.0000000

LOEWDIN ATOMIC CHARGES
----------------------
   0 C :    0.013786
   1 N :    0.158904
   2 C :   -0.100436
   3 N :    0.175698
   4 C :    0.067620
   5 N :   -0.143262
   6 C :   -0.015083
   7 N :    0.177914
   8 C :    0.012586
   9 N :   -0.139058
  10 C :    0.033278
  11 N :    0.143587
  12 C :   -0.099983
  13 N :    0.128126
  14 C :   -0.052057
  15 N :    0.137966
  16 C :   -0.033575
  17 C :   -0.018119
  18 C :   -0.112932
  19 C :   -0.088369
  20 C :   -0.006387
  21 C :   -0.102254
  22 C :    0.041933
  23 C :   -0.025742
  24 C :    0.004387
  25 C :    0.030185
  26 C :   -0.098877
  27 C :   -0.076464
  28 C :   -0.017862
  29 C :   -0.114108
  30 C :   -0.054528
  31 C :   -0.012604
  32 C :   -0.102071
  33 C :    0.017851
  34 C :   -0.023589
  35 C :   -0.018493
  36 C :    0.026531
  37 C :   -0.105518
  38 C :   -0.036976
  39 C :   -0.029267
  40 C :   -0.111245
  41 C :   -0.092002
  42 C :   -0.001486
  43 C :   -0.108197
  44 C :    0.033168
  45 C :   -0.018158
  46 C :   -0.012374
  47 C :    0.029044
  48 C :   -0.108482
  49 C :   -0.102461
  50 C :   -0.027563
  51 C :   -0.107978
  52 H :    0.034731
  53 H :    0.005631
  54 H :    0.048888
  55 H :    0.034355
  56 H :    0.031984
  57 H :    0.034619
  58 H :    0.034318
  59 H :    0.002113
  60 H :    0.048291
  61 H :    0.061594
  62 H :    0.059191
  63 H :    0.030346
  64 H :   -0.002989
  65 H :    0.044221
  66 H :    0.030686
  67 H :    0.027868
  68 H :    0.031832
  69 H :    0.031563
  70 H :   -0.000124
  71 H :    0.045695
  72 H :    0.026510
  73 H :    0.002527
  74 H :    0.041395
  75 H :    0.025749
  76 H :    0.024178
  77 H :    0.028825
  78 H :    0.028525
  79 H :    0.004821
  80 H :    0.040863
  81 H :    0.028782
  82 H :   -0.001341
  83 H :    0.044174
  84 H :    0.028429
  85 H :    0.025861
  86 H :    0.030636
  87 H :    0.030835
  88 H :   -0.003026
  89 H :    0.042438

  Mayer bond orders larger than 0.100000
B(  0-C ,  1-N ) :   1.1474 B(  0-C , 17-C ) :   1.5926 B(  0-C , 52-H ) :   0.9687
B(  1-N ,  8-C ) :   1.1440 B(  1-N , 10-C ) :   0.9482 B(  2-C , 12-C ) :   1.5518
B(  2-C , 16-C ) :   1.3056 B(  2-C , 53-H ) :   0.9784 B(  3-N , 14-C ) :   1.1906
B(  3-N , 16-C ) :   1.1998 B(  3-N , 61-H ) :   0.8969 B(  4-C ,  6-C ) :   1.3025
B(  4-C , 17-C ) :   1.3028 B(  4-C , 18-C ) :   1.1781 B(  5-N , 19-C ) :   1.3938
B(  5-N , 27-C ) :   1.4254 B(  6-C ,  8-C ) :   1.5918 B(  6-C , 54-H ) :   0.9711
B(  7-N , 30-C ) :   1.1908 B(  7-N , 38-C ) :   1.2073 B(  7-N , 62-H ) :   0.8997
B(  8-C , 55-H ) :   0.9692 B(  9-N , 41-C ) :   1.4218 B(  9-N , 49-C ) :   1.4035
B( 10-C , 56-H ) :   0.9763 B( 10-C , 57-H ) :   0.9813 B( 10-C , 58-H ) :   0.9829
B( 11-N , 20-C ) :   1.1152 B( 11-N , 24-C ) :   1.1305 B( 11-N , 25-C ) :   0.9588
B( 12-C , 14-C ) :   1.3054 B( 12-C , 59-H ) :   0.9774 B( 13-N , 31-C ) :   1.1035
B( 13-N , 35-C ) :   1.0963 B( 13-N , 36-C ) :   0.9701 B( 14-C , 18-C ) :   1.2219
B( 15-N , 42-C ) :   1.1222 B( 15-N , 46-C ) :   1.1052 B( 15-N , 47-C ) :   0.9631
B( 16-C , 51-C ) :   1.2160 B( 17-C , 60-H ) :   0.9716 B( 18-C , 19-C ) :   1.2567
B( 19-C , 21-C ) :   1.1897 B( 20-C , 28-C ) :   1.6235 B( 20-C , 63-H ) :   0.9705
B( 21-C , 26-C ) :   1.6592 B( 21-C , 64-H ) :   0.9723 B( 22-C , 23-C ) :   1.2734
B( 22-C , 28-C ) :   1.2785 B( 22-C , 29-C ) :   1.2411 B( 23-C , 24-C ) :   1.6232
B( 23-C , 65-H ) :   0.9714 B( 24-C , 66-H ) :   0.9690 B( 25-C , 67-H ) :   0.9763
B( 25-C , 68-H ) :   0.9831 B( 25-C , 69-H ) :   0.9820 B( 26-C , 27-C ) :   1.1937
B( 26-C , 70-H ) :   0.9743 B( 27-C , 29-C ) :   1.2357 B( 28-C , 71-H ) :   0.9712
B( 29-C , 30-C ) :   1.1923 B( 30-C , 32-C ) :   1.3326 B( 31-C , 39-C ) :   1.6551
B( 31-C , 72-H ) :   0.9703 B( 32-C , 37-C ) :   1.5256 B( 32-C , 73-H ) :   0.9774
B( 33-C , 34-C ) :   1.2551 B( 33-C , 39-C ) :   1.2486 B( 33-C , 40-C ) :   1.2978
B( 34-C , 35-C ) :   1.6529 B( 34-C , 74-H ) :   0.9708 B( 35-C , 75-H ) :   0.9703
B( 36-C , 76-H ) :   0.9759 B( 36-C , 77-H ) :   0.9823 B( 36-C , 78-H ) :   0.9834
B( 37-C , 38-C ) :   1.3316 B( 37-C , 79-H ) :   0.9784 B( 38-C , 40-C ) :   1.1920
B( 39-C , 80-H ) :   0.9718 B( 40-C , 41-C ) :   1.1974 B( 41-C , 43-C ) :   1.2303
B( 42-C , 50-C ) :   1.6351 B( 42-C , 81-H ) :   0.9696 B( 43-C , 48-C ) :   1.6212
B( 43-C , 82-H ) :   0.9747 B( 44-C , 45-C ) :   1.2772 B( 44-C , 50-C ) :   1.2608
B( 44-C , 51-C ) :   1.2492 B( 45-C , 46-C ) :   1.6305 B( 45-C , 83-H ) :   0.9707
B( 46-C , 84-H ) :   0.9704 B( 47-C , 85-H ) :   0.9761 B( 47-C , 86-H ) :   0.9827
B( 47-C , 87-H ) :   0.9827 B( 48-C , 49-C ) :   1.2272 B( 48-C , 88-H ) :   0.9732
B( 49-C , 51-C ) :   1.2111 B( 50-C , 89-H ) :   0.9717

MP2 TOTAL ENERGY:    -2130.902608741 Eh
FINAL SINGLE POINT ENERGY     -2130.902608741349

DIPOLE MOMENT
-------------
                                X             Y             Z
Electronic contribution:     -2.01086       1.82653      -0.14775
Nuclear contribution   :     -0.04241       0.15645       0.18704
                        -----------------------------------------
Total Dipole Moment    :     -2.05327       1.98298       0.03929
                        -----------------------------------------
Magnitude (a.u.)       :      2.85476
Magnitude (Debye)      :      7.25622

Rotational constants in cm-1:     0.001498     0.001473     0.000762
Rotational constants in MHz :    44.923828    44.160542    22.856984

                             ****ORCA TERMINATED NORMALLY****
TOTAL RUN TIME: 0 days 1 hours 34 minutes 59 seconds 509 msec
