                         Program Version 5.0.4 -  RELEASE  -
|  1> ! PAL2
|  2> ! mp2 cc-pvdz TightSCF  NoKeepInts
|  3>
|  4> %scf
|  5>   MaxCore 2000
|  6> end
|  7> %mp2
|  8>   MaxCore 2000
|  9> end
| 10> * xyz 0 1
| 11>    C       -4.64400         5.41200        -0.78300
| 12>    C        1.47400         4.04100         0.05700
| 13>    C       -2.80200         4.09300         0.04900
| 14>    C       -2.52800         5.13600         0.94700
| 15>    C       -3.31400         6.27100         0.95300
| 16>    C       -5.19800         7.61100         0.15200
| 17>    C        0.13200         4.30700         0.06100
| 18>    C       -0.56900         3.05600         0.04700
| 19>    C        1.64900         2.61800         0.02300
| 20>    C       -3.89000         4.25600        -0.82300
| 21>    N       -4.35200         6.39900         0.09500
| 22>    N        0.38800         2.06700         0.02500
| 23>    N       -2.01000         0.39500        -0.07500
| 24>    N       -0.38800        -2.07400        -0.02700
| 25>    N        2.01000        -0.40100         0.06500
| 26>    C       -1.96000         2.86100         0.02400
| 27>    C       -2.62300         1.61500        -0.01800
| 28>    C       -5.57300        -4.32900         1.06600
| 29>    C       -4.07300         1.47100         0.05600
| 30>    C       -4.10600        -2.75600        -0.02600
| 31>    C       -4.99500        -2.75700        -1.11100
| 32>    C       -6.13200        -3.54200        -1.07600
| 33>    C       -7.65100        -5.11300         0.04000
| 34>    C       -4.32400         0.14100         0.03700
| 35>    C       -3.02500        -0.52000        -0.04800
| 36>    C       -4.42200        -3.56600         1.07500
| 37>    N       -6.40700        -4.31300         0.00100
| 38>    C       -2.86700        -1.92200        -0.04000
| 39>    C       -1.65000        -2.62400        -0.02700
| 40>    C        3.56800        -6.14200        -1.04000
| 41>    C       -1.47600        -4.04900        -0.03400
| 42>    C        2.80300        -4.09900        -0.00800
| 43>    C        3.65700        -4.38400         1.06900
| 44>    C        4.42700        -5.53000         1.05900
| 45>    C        5.24500        -7.58800         0.01400
| 46>    C       -0.13400        -4.31500        -0.02200
| 47>    C        0.56800        -3.06400        -0.02700
| 48>    C        2.77500        -5.01200        -1.07400
| 49>    N        4.37600        -6.39100         0.01700
| 50>    C        1.95900        -2.86900        -0.00900
| 51>    C        2.62100        -1.62200         0.00900
| 52>    C        5.54300         4.33900        -1.13000
| 53>    C        4.07000        -1.47900        -0.09400
| 54>    C        4.10400         2.75100        -0.02100
| 55>    C        5.02700         2.72900         1.03600
| 56>    C        6.16600         3.50900         0.97800
| 57>    C        7.61900         5.15300        -0.11500
| 58>    C        4.32100        -0.14800        -0.09200
| 59>    C        3.02500         0.51400         0.01500
| 60>    C        4.38700         3.58200        -1.11500
| 61>    C        2.86600         1.91600         0.01300
| 62>    N        6.41300         4.29600        -0.09500
| 63>    H       -5.48300         5.58600        -1.44500
| 64>    H        2.27400         4.76600         0.08100
| 65>    H       -1.70800         5.06600         1.65200
| 66>    H       -3.14600         7.09600         1.63300
| 67>    H       -5.97500         7.46700         0.90600
| 68>    H       -4.57300         8.46400         0.41600
| 69>    H       -5.65100         7.76900        -0.82700
| 70>    H       -0.33200         5.28200         0.06900
| 71>    H       -4.14400         3.49200        -1.55000
| 72>    H        0.18200         1.07200         0.00500
| 73>    H       -0.18300        -1.08000        -0.02100
| 74>    H       -5.86400        -4.96200         1.89500
| 75>    H       -4.79400         2.27200         0.13900
| 76>    H       -4.80000        -2.16000        -1.99400
| 77>    H       -6.84100        -3.58200        -1.89300
| 78>    H       -8.42800        -4.53600         0.54600
| 79>    H       -7.95600        -5.33700        -0.98100
| 80>    H       -7.45600        -6.03700         0.58400
| 81>    H       -5.28700        -0.34400         0.10000
| 82>    H       -3.78000        -3.60100         1.94700
| 83>    H        3.58700        -6.86800        -1.84300
| 84>    H       -2.27600        -4.77400        -0.05000
| 85>    H        3.71400        -3.72400         1.92600
| 86>    H        5.09200        -5.79500         1.87100
| 87>    H        6.20500        -7.32900        -0.43900
| 88>    H        5.39300        -7.91700         1.04200
| 89>    H        4.75900        -8.37300        -0.56400
| 90>    H        0.32900        -5.29000        -0.00800
| 91>    H        2.14600        -4.84200        -1.94000
| 92>    H        5.80800         4.98600        -1.95600
| 93>    H        4.78800        -2.28100        -0.18500
| 94>    H        4.86000         2.11400         1.91200
| 95>    H        6.90100         3.53100         1.77200
| 96>    H        7.38300         6.10900         0.35600
| 97>    H        8.41400         4.65200         0.43500
| 98>    H        7.92100         5.31000        -1.15000
| 99>    H        5.28300         0.33600        -0.17900
|100>    H        3.72000         3.63200        -1.96700
|101> *
|102>
|103>                          ****END OF INPUT****

CARTESIAN COORDINATES (ANGSTROEM)
---------------------------------
  C     -4.644000    5.412000   -0.783000
  C      1.474000    4.041000    0.057000
  C     -2.802000    4.093000    0.049000
  C     -2.528000    5.136000    0.947000
  C     -3.314000    6.271000    0.953000
  C     -5.198000    7.611000    0.152000
  C      0.132000    4.307000    0.061000
  C     -0.569000    3.056000    0.047000
  C      1.649000    2.618000    0.023000
  C     -3.890000    4.256000   -0.823000
  N     -4.352000    6.399000    0.095000
  N      0.388000    2.067000    0.025000
  N     -2.010000    0.395000   -0.075000
  N     -0.388000   -2.074000   -0.027000
  N      2.010000   -0.401000    0.065000
  C     -1.960000    2.861000    0.024000
  C     -2.623000    1.615000   -0.018000
  C     -5.573000   -4.329000    1.066000
  C     -4.073000    1.471000    0.056000
  C     -4.106000   -2.756000   -0.026000
  C     -4.995000   -2.757000   -1.111000
  C     -6.132000   -3.542000   -1.076000
  C     -7.651000   -5.113000    0.040000
  C     -4.324000    0.141000    0.037000
  C     -3.025000   -0.520000   -0.048000
  C     -4.422000   -3.566000    1.075000
  N     -6.407000   -4.313000    0.001000
  C     -2.867000   -1.922000   -0.040000
  C     -1.650000   -2.624000   -0.027000
  C      3.568000   -6.142000   -1.040000
  C     -1.476000   -4.049000   -0.034000
  C      2.803000   -4.099000   -0.008000
  C      3.657000   -4.384000    1.069000
  C      4.427000   -5.530000    1.059000
  C      5.245000   -7.588000    0.014000
  C     -0.134000   -4.315000   -0.022000
  C      0.568000   -3.064000   -0.027000
  C      2.775000   -5.012000   -1.074000
  N      4.376000   -6.391000    0.017000
  C      1.959000   -2.869000   -0.009000
  C      2.621000   -1.622000    0.009000
  C      5.543000    4.339000   -1.130000
  C      4.070000   -1.479000   -0.094000
  C      4.104000    2.751000   -0.021000
  C      5.027000    2.729000    1.036000
  C      6.166000    3.509000    0.978000
  C      7.619000    5.153000   -0.115000
  C      4.321000   -0.148000   -0.092000
  C      3.025000    0.514000    0.015000
  C      4.387000    3.582000   -1.115000
  C      2.866000    1.916000    0.013000
  N      6.413000    4.296000   -0.095000
  H     -5.483000    5.586000   -1.445000
  H      2.274000    4.766000    0.081000
  H     -1.708000    5.066000    1.652000
  H     -3.146000    7.096000    1.633000
  H     -5.975000    7.467000    0.906000
  H     -4.573000    8.464000    0.416000
  H     -5.651000    7.769000   -0.827000
  H     -0.332000    5.282000    0.069000
  H     -4.144000    3.492000   -1.550000
  H      0.182000    1.072000    0.005000
  H     -0.183000   -1.080000   -0.021000
  H     -5.864000   -4.962000    1.895000
  H     -4.794000    2.272000    0.139000
  H     -4.800000   -2.160000   -1.994000
  H     -6.841000   -3.582000   -1.893000
  H     -8.428000   -4.536000    0.546000
  H     -7.956000   -5.337000   -0.981000
  H     -7.456000   -6.037000    0.584000
  H     -5.287000   -0.344000    0.100000
  H     -3.780000   -3.601000    1.947000
  H      3.587000   -6.868000   -1.843000
  H     -2.276000   -4.774000   -0.050000
  H      3.714000   -3.724000    1.926000
  H      5.092000   -5.795000    1.871000
  H      6.205000   -7.329000   -0.439000
  H      5.393000   -7.917000    1.042000
  H      4.759000   -8.373000   -0.564000
  H      0.329000   -5.290000   -0.008000
  H      2.146000   -4.842000   -1.940000
  H      5.808000    4.986000   -1.956000
  H      4.788000   -2.281000   -0.185000
  H      4.860000    2.114000    1.912000
  H      6.901000    3.531000    1.772000
  H      7.383000    6.109000    0.356000
  H      8.414000    4.652000    0.435000
  H      7.921000    5.310000   -1.150000
  H      5.283000    0.336000   -0.179000
  H      3.720000    3.632000   -1.967000

 Total Charge           Charge          ....    0
 Multiplicity           Mult            ....    1
 Number of Electrons    NEL             ....  358
 Basis Dimension        Dim             ....  918

ORBITAL ENERGIES
----------------

  NO   OCC          E(Eh)            E(eV)
   0   2.0000     -15.658768      -426.0967
   1   2.0000     -15.638944      -425.5573
   2   2.0000     -15.628479      -425.2725
   3   2.0000     -15.602583      -424.5679
   4   2.0000     -15.522817      -422.3973
   5   2.0000     -15.515755      -422.2051
   6   2.0000     -15.448538      -420.3761
   7   2.0000     -15.443622      -420.2423
   8   2.0000     -11.314912      -307.8944
   9   2.0000     -11.312431      -307.8269
  10   2.0000     -11.309997      -307.7607
  11   2.0000     -11.302363      -307.5529
  12   2.0000     -11.296053      -307.3812
  13   2.0000     -11.295875      -307.3764
  14   2.0000     -11.292226      -307.2771
  15   2.0000     -11.287047      -307.1362
  16   2.0000     -11.284457      -307.0657
  17   2.0000     -11.280796      -306.9661
  18   2.0000     -11.265717      -306.5558
  19   2.0000     -11.265693      -306.5551
  20   2.0000     -11.262226      -306.4607
  21   2.0000     -11.248508      -306.0875
  22   2.0000     -11.247601      -306.0628
  23   2.0000     -11.242443      -305.9224
  24   2.0000     -11.234640      -305.7101
  25   2.0000     -11.234058      -305.6942
  26   2.0000     -11.233098      -305.6681
  27   2.0000     -11.226901      -305.4995
  28   2.0000     -11.226685      -305.4936
  29   2.0000     -11.212188      -305.0991
  30   2.0000     -11.207332      -304.9670
  31   2.0000     -11.206877      -304.9546
  32   2.0000     -11.206691      -304.9496
  33   2.0000     -11.205637      -304.9209
  34   2.0000     -11.191101      -304.5254
  35   2.0000     -11.190687      -304.5141
  36   2.0000     -11.181769      -304.2714
  37   2.0000     -11.178806      -304.1908
  38   2.0000     -11.178284      -304.1766
  39   2.0000     -11.173975      -304.0593
  40   2.0000     -11.167668      -303.8877
  41   2.0000     -11.167665      -303.8876
  42   2.0000     -11.165380      -303.8254
  43   2.0000     -11.165023      -303.8157
  44   2.0000     -11.164536      -303.8025
  45   2.0000     -11.162053      -303.7349
  46   2.0000     -11.151506      -303.4479
  47   2.0000     -11.149665      -303.3978
  48   2.0000     -11.147823      -303.3477
  49   2.0000     -11.145724      -303.2906
  50   2.0000     -11.137596      -303.0694
  51   2.0000     -11.132629      -302.9342
  52   2.0000      -1.342461       -36.5302
  53   2.0000      -1.325473       -36.0679
  54   2.0000      -1.316563       -35.8255
  55   2.0000      -1.295529       -35.2531
  56   2.0000      -1.222667       -33.2705
  57   2.0000      -1.211076       -32.9550
  58   2.0000      -1.166069       -31.7303
  59   2.0000      -1.155414       -31.4404
  60   2.0000      -1.128450       -30.7067
  61   2.0000      -1.113649       -30.3039
  62   2.0000      -1.106084       -30.0981
  63   2.0000      -1.089204       -29.6387
  64   2.0000      -1.065408       -28.9912
  65   2.0000      -1.049405       -28.5558
  66   2.0000      -1.041270       -28.3344
  67   2.0000      -1.031856       -28.0782
  68   2.0000      -1.022454       -27.8224
  69   2.0000      -1.013333       -27.5742
  70   2.0000      -1.009348       -27.4658
  71   2.0000      -0.993463       -27.0335
  72   2.0000      -0.986872       -26.8542
  73   2.0000      -0.975263       -26.5383
  74   2.0000      -0.973071       -26.4786
  75   2.0000      -0.958798       -26.0902
  76   2.0000      -0.950821       -25.8731
  77   2.0000      -0.947183       -25.7742
  78   2.0000      -0.937258       -25.5041
  79   2.0000      -0.921961       -25.0878
  80   2.0000      -0.897618       -24.4254
  81   2.0000      -0.888562       -24.1790
  82   2.0000      -0.876301       -23.8454
  83   2.0000      -0.869362       -23.6565
  84   2.0000      -0.863831       -23.5060
  85   2.0000      -0.854694       -23.2574
  86   2.0000      -0.846282       -23.0285
  87   2.0000      -0.839486       -22.8436
  88   2.0000      -0.822015       -22.3682
  89   2.0000      -0.798770       -21.7356
  90   2.0000      -0.795593       -21.6492
  91   2.0000      -0.742821       -20.2132
  92   2.0000      -0.736000       -20.0276
  93   2.0000      -0.731348       -19.9010
  94   2.0000      -0.722907       -19.6713
  95   2.0000      -0.719501       -19.5786
  96   2.0000      -0.713242       -19.4083
  97   2.0000      -0.705249       -19.1908
  98   2.0000      -0.701229       -19.0814
  99   2.0000      -0.695866       -18.9355
 100   2.0000      -0.692244       -18.8369
 101   2.0000      -0.681548       -18.5459
 102   2.0000      -0.678807       -18.4713
 103   2.0000      -0.674123       -18.3438
 104   2.0000      -0.670831       -18.2542
 105   2.0000      -0.670315       -18.2402
 106   2.0000      -0.663981       -18.0678
 107   2.0000      -0.662101       -18.0167
 108   2.0000      -0.656996       -17.8778
 109   2.0000      -0.654684       -17.8149
 110   2.0000      -0.650517       -17.7015
 111   2.0000      -0.647718       -17.6253
 112   2.0000      -0.643593       -17.5130
 113   2.0000      -0.636719       -17.3260
 114   2.0000      -0.632274       -17.2051
 115   2.0000      -0.630792       -17.1647
 116   2.0000      -0.623085       -16.9550
 117   2.0000      -0.616183       -16.7672
 118   2.0000      -0.613339       -16.6898
 119   2.0000      -0.611557       -16.6413
 120   2.0000      -0.608575       -16.5602
 121   2.0000      -0.601907       -16.3787
 122   2.0000      -0.597849       -16.2683
 123   2.0000      -0.590596       -16.0709
 124   2.0000      -0.589489       -16.0408
 125   2.0000      -0.584658       -15.9094
 126   2.0000      -0.578330       -15.7372
 127   2.0000      -0.576390       -15.6844
 128   2.0000      -0.563463       -15.3326
 129   2.0000      -0.558538       -15.1986
 130   2.0000      -0.554089       -15.0775
 131   2.0000      -0.549604       -14.9555
 132   2.0000      -0.542164       -14.7530
 133   2.0000      -0.538142       -14.6436
 134   2.0000      -0.534181       -14.5358
 135   2.0000      -0.532037       -14.4775
 136   2.0000      -0.525224       -14.2921
 137   2.0000      -0.523521       -14.2457
 138   2.0000      -0.517627       -14.0853
 139   2.0000      -0.516938       -14.0666
 140   2.0000      -0.509764       -13.8714
 141   2.0000      -0.508807       -13.8454
 142   2.0000      -0.508148       -13.8274
 143   2.0000      -0.501829       -13.6555
 144   2.0000      -0.500440       -13.6177
 145   2.0000      -0.497482       -13.5372
 146   2.0000      -0.493940       -13.4408
 147   2.0000      -0.487672       -13.2702
 148   2.0000      -0.487144       -13.2559
 149   2.0000      -0.469240       -12.7687
 150   2.0000      -0.462945       -12.5974
 151   2.0000      -0.454911       -12.3788
 152   2.0000      -0.448165       -12.1952
 153   2.0000      -0.446961       -12.1624
 154   2.0000      -0.446017       -12.1368
 155   2.0000      -0.439954       -11.9718
 156   2.0000      -0.433849       -11.8056
 157   2.0000      -0.429336       -11.6828
 158   2.0000      -0.397901       -10.8274
 159   2.0000      -0.384790       -10.4707
 160   2.0000      -0.379167       -10.3177
 161   2.0000      -0.373534       -10.1644
 162   2.0000      -0.370870       -10.0919
 163   2.0000      -0.359873        -9.7926
 164   2.0000      -0.353126        -9.6090
 165   2.0000      -0.337419        -9.1816
 166   2.0000      -0.336060        -9.1447
 167   2.0000      -0.335557        -9.1310
 168   2.0000      -0.328642        -8.9428
 169   2.0000      -0.301086        -8.1930
 170   2.0000      -0.299828        -8.1587
 171   2.0000      -0.287471        -7.8225
 172   2.0000      -0.285312        -7.7637
 173   2.0000      -0.258306        -7.0289
 174   2.0000      -0.246369        -6.7041
 175   2.0000      -0.189142        -5.1468
 176   2.0000      -0.179256        -4.8778
 177   2.0000      -0.070538        -1.9194
 178   2.0000      -0.056571        -1.5394
 179   0.0000       0.029484         0.8023
 180   0.0000       0.068711         1.8697
 181   0.0000       0.092542         2.5182
 182   0.0000       0.103019         2.8033
 183   0.0000       0.120356         3.2750

MULLIKEN ATOMIC CHARGES
-----------------------
   0 C :    0.204266
   1 N :   -0.450467
   2 C :   -0.064007
   3 N :   -0.336090
   4 C :   -0.057891
   5 N :   -0.560828
   6 C :   -0.096938
   7 N :   -0.339391
   8 C :    0.203759
   9 N :   -0.562752
  10 C :    0.117409
  11 N :   -0.437410
  12 C :   -0.077698
  13 N :   -0.434364
  14 C :    0.233186
  15 N :   -0.441251
  16 C :    0.230537
  17 C :   -0.094451
  18 C :   -0.187398
  19 C :    0.220209
  20 C :    0.212388
  21 C :   -0.086182
  22 C :   -0.087476
  23 C :   -0.043802
  24 C :    0.200366
  25 C :    0.113893
  26 C :   -0.073795
  27 C :    0.215236
  28 C :   -0.057060
  29 C :   -0.181687
  30 C :    0.241005
  31 C :    0.222041
  32 C :   -0.062872
  33 C :   -0.070461
  34 C :   -0.049572
  35 C :    0.215968
  36 C :    0.111013
  37 C :   -0.065353
  38 C :    0.234833
  39 C :   -0.060258
  40 C :   -0.184208
  41 C :    0.222310
  42 C :    0.199220
  43 C :   -0.073219
  44 C :   -0.090482
  45 C :   -0.057796
  46 C :    0.206990
  47 C :    0.115710
  48 C :   -0.070954
  49 C :    0.232600
  50 C :   -0.049237
  51 C :   -0.191808
  52 H :    0.045018
  53 H :   -0.015489
  54 H :    0.048332
  55 H :    0.043986
  56 H :    0.052424
  57 H :    0.050863
  58 H :    0.050189
  59 H :   -0.003640
  60 H :    0.046844
  61 H :    0.171591
  62 H :    0.174508
  63 H :    0.056998
  64 H :   -0.010827
  65 H :    0.046966
  66 H :    0.057304
  67 H :    0.063546
  68 H :    0.058131
  69 H :    0.058138
  70 H :   -0.026781
  71 H :    0.047297
  72 H :    0.064413
  73 H :   -0.010724
  74 H :    0.054071
  75 H :    0.063548
  76 H :    0.068912
  77 H :    0.063379
  78 H :    0.062531
  79 H :   -0.014824
  80 H :    0.054516
  81 H :    0.053553
  82 H :   -0.024691
  83 H :    0.041640
  84 H :    0.053008
  85 H :    0.059448
  86 H :    0.055446
  87 H :    0.056657
  88 H :   -0.017899
  89 H :    0.045838
Sum of atomic charges:   -0.0000000

LOEWDIN ATOMIC CHARGES
----------------------
   0 C :   -0.017250
   1 N :    0.121682
   2 C :   -0.100975
   3 N :    0.181544
   4 C :    0.007723
   5 N :   -0.132897
   6 C :   -0.033683
   7 N :    0.176437
   8 C :   -0.017350
   9 N :   -0.139698
  10 C :    0.025217
  11 N :    0.144650
  12 C :   -0.104824
  13 N :    0.154705
  14 C :   -0.038150
  15 N :    0.137704
  16 C :   -0.053949
  17 C :   -0.033234
  18 C :   -0.102655
  19 C :   -0.086337
  20 C :    0.004405
  21 C :   -0.108906
  22 C :    0.041735
  23 C :   -0.016975
  24 C :   -0.006069
  25 C :    0.030445
  26 C :   -0.106087
  27 C :   -0.107885
  28 C :   -0.023898
  29 C :   -0.101876
  30 C :   -0.038063
  31 C :    0.014390
  32 C :   -0.095649
  33 C :    0.062359
  34 C :   -0.016587
  35 C :    0.009271
  36 C :    0.032633
  37 C :   -0.097230
  38 C :   -0.045656
  39 C :   -0.021637
  40 C :   -0.108151
  41 C :   -0.094343
  42 C :   -0.009076
  43 C :   -0.102271
  44 C :    0.031849
  45 C :   -0.026052
  46 C :   -0.002407
  47 C :    0.029178
  48 C :   -0.100208
  49 C :   -0.078507
  50 C :   -0.020844
  51 C :   -0.109405
  52 H :    0.025512
  53 H :    0.003639
  54 H :    0.041209
  55 H :    0.025647
  56 H :    0.023146
  57 H :    0.027703
  58 H :    0.028451
  59 H :    0.007333
  60 H :    0.041343
  61 H :    0.060119
  62 H :    0.061342
  63 H :    0.031405
  64 H :    0.002377
  65 H :    0.045648
  66 H :    0.030194
  67 H :    0.028823
  68 H :    0.032039
  69 H :    0.031094
  70 H :   -0.003252
  71 H :    0.044786
  72 H :    0.034507
  73 H :    0.005804
  74 H :    0.048081
  75 H :    0.033867
  76 H :    0.031675
  77 H :    0.034010
  78 H :    0.033643
  79 H :    0.003838
  80 H :    0.047715
  81 H :    0.028808
  82 H :   -0.002560
  83 H :    0.042595
  84 H :    0.029213
  85 H :    0.026705
  86 H :    0.030096
  87 H :    0.031141
  88 H :    0.000761
  89 H :    0.044405

  Mayer bond orders larger than 0.100000
B(  0-C ,  1-N ) :   1.0950 B(  0-C , 17-C ) :   1.6826 B(  0-C , 52-H ) :   0.9686
B(  1-N ,  8-C ) :   1.0953 B(  1-N , 10-C ) :   0.9731 B(  2-C , 12-C ) :   1.5228
B(  2-C , 16-C ) :   1.3403 B(  2-C , 53-H ) :   0.9770 B(  3-N , 14-C ) :   1.2131
B(  3-N , 16-C ) :   1.1934 B(  3-N , 61-H ) :   0.8992 B(  4-C ,  6-C ) :   1.2268
B(  4-C , 17-C ) :   1.2271 B(  4-C , 18-C ) :   1.3707 B(  5-N , 19-C ) :   1.4408
B(  5-N , 27-C ) :   1.3893 B(  6-C ,  8-C ) :   1.6816 B(  6-C , 54-H ) :   0.9678
B(  7-N , 30-C ) :   1.1934 B(  7-N , 38-C ) :   1.1964 B(  7-N , 62-H ) :   0.8973
B(  8-C , 55-H ) :   0.9696 B(  9-N , 41-C ) :   1.3980 B(  9-N , 49-C ) :   1.4241
B( 10-C , 56-H ) :   0.9765 B( 10-C , 57-H ) :   0.9829 B( 10-C , 58-H ) :   0.9833
B( 11-N , 20-C ) :   1.1302 B( 11-N , 24-C ) :   1.1163 B( 11-N , 25-C ) :   0.9581
B( 12-C , 14-C ) :   1.3430 B( 12-C , 59-H ) :   0.9752 B( 13-N , 31-C ) :   1.1446
B( 13-N , 35-C ) :   1.1380 B( 13-N , 36-C ) :   0.9500 B( 14-C , 18-C ) :   1.1586
B( 15-N , 42-C ) :   1.1097 B( 15-N , 46-C ) :   1.1184 B( 15-N , 47-C ) :   0.9625
B( 16-C , 51-C ) :   1.1841 B( 17-C , 60-H ) :   0.9676 B( 18-C , 19-C ) :   1.1669
B( 19-C , 21-C ) :   1.2302 B( 20-C , 28-C ) :   1.6236 B( 20-C , 63-H ) :   0.9701
B( 21-C , 26-C ) :   1.6285 B( 21-C , 64-H ) :   0.9715 B( 22-C , 23-C ) :   1.2893
B( 22-C , 28-C ) :   1.2711 B( 22-C , 29-C ) :   1.2213 B( 23-C , 24-C ) :   1.6163
B( 23-C , 65-H ) :   0.9706 B( 24-C , 66-H ) :   0.9693 B( 25-C , 67-H ) :   0.9761
B( 25-C , 68-H ) :   0.9828 B( 25-C , 69-H ) :   0.9822 B( 26-C , 27-C ) :   1.2248
B( 26-C , 70-H ) :   0.9720 B( 27-C , 29-C ) :   1.2214 B( 28-C , 71-H ) :   0.9717
B( 29-C , 30-C ) :   1.2305 B( 30-C , 32-C ) :   1.2932 B( 31-C , 39-C ) :   1.6082
B( 31-C , 72-H ) :   0.9688 B( 32-C , 37-C ) :   1.5657 B( 32-C , 73-H ) :   0.9782
B( 33-C , 34-C ) :   1.2933 B( 33-C , 39-C ) :   1.2862 B( 33-C , 40-C ) :   1.2085
B( 34-C , 35-C ) :   1.6047 B( 34-C , 74-H ) :   0.9700 B( 35-C , 75-H ) :   0.9689
B( 36-C , 76-H ) :   0.9765 B( 36-C , 77-H ) :   0.9818 B( 36-C , 78-H ) :   0.9827
B( 37-C , 38-C ) :   1.2962 B( 37-C , 79-H ) :   0.9772 B( 38-C , 40-C ) :   1.2231
B( 39-C , 80-H ) :   0.9711 B( 40-C , 41-C ) :   1.2354 B( 41-C , 43-C ) :   1.2003
B( 42-C , 50-C ) :   1.6352 B( 42-C , 81-H ) :   0.9696 B( 43-C , 48-C ) :   1.6513
B( 43-C , 82-H ) :   0.9728 B( 44-C , 45-C ) :   1.2650 B( 44-C , 50-C ) :   1.2684
B( 44-C , 51-C ) :   1.2621 B( 45-C , 46-C ) :   1.6357 B( 45-C , 83-H ) :   0.9716
B( 46-C , 84-H ) :   0.9702 B( 47-C , 85-H ) :   0.9762 B( 47-C , 86-H ) :   0.9829
B( 47-C , 87-H ) :   0.9825 B( 48-C , 49-C ) :   1.2025 B( 48-C , 88-H ) :   0.9745
B( 49-C , 51-C ) :   1.2277 B( 50-C , 89-H ) :   0.9711

MP2 TOTAL ENERGY:    -2130.914655024 Eh
FINAL SINGLE POINT ENERGY     -2130.914655024085

DIPOLE MOMENT
-------------
                                X             Y             Z
Electronic contribution:      1.20748      -2.86088      -0.21860
Nuclear contribution   :      0.01908       0.19688       0.22706
                        -----------------------------------------
Total Dipole Moment    :      1.22655      -2.66400       0.00846
                        -----------------------------------------
Magnitude (a.u.)       :      2.93281
Magnitude (Debye)      :      7.45462

Rotational constants in cm-1:     0.001499     0.001476     0.000761
Rotational constants in MHz :    44.938035    44.251948    22.828308

                             ****ORCA TERMINATED NORMALLY****
TOTAL RUN TIME: 0 days 1 hours 9 minutes 50 seconds 786 msec
