                         Program Version 5.0.4 -  RELEASE  -
|  1> ! PAL2
|  2> ! mp2 cc-pvdz TightSCF  NoKeepInts
|  3>
|  4> %scf
|  5>   MaxCore 2000
|  6> end
|  7> %mp2
|  8>   MaxCore 2000
|  9> end
| 10> * xyz 0 1
| 11>    C       -4.86100         5.23600         0.57700
| 12>    C        1.47400         4.04100         0.05700
| 13>    C       -2.80200         4.09300         0.04900
| 14>    C       -2.31900         5.30700        -0.46400
| 15>    C       -3.11400         6.43600        -0.43700
| 16>    C       -5.17700         7.62600         0.12300
| 17>    C        0.13200         4.30700         0.06100
| 18>    C       -0.56900         3.05600         0.04700
| 19>    C        1.64900         2.61800         0.02300
| 20>    C       -4.10200         4.08200         0.57800
| 21>    N       -4.36500         6.39000         0.07500
| 22>    N        0.38800         2.06700         0.02500
| 23>    N       -2.01000         0.39500        -0.07500
| 24>    N       -0.38800        -2.07400        -0.02700
| 25>    N        2.01000        -0.40100         0.06500
| 26>    C       -1.96000         2.86100         0.02400
| 27>    C       -2.62300         1.61500        -0.01800
| 28>    C       -5.57300        -4.32900         1.06600
| 29>    C       -4.07300         1.47100         0.05600
| 30>    C       -4.10600        -2.75600        -0.02600
| 31>    C       -4.99500        -2.75700        -1.11100
| 32>    C       -6.13200        -3.54200        -1.07600
| 33>    C       -7.65100        -5.11300         0.04000
| 34>    C       -4.32400         0.14100         0.03700
| 35>    C       -3.02500        -0.52000        -0.04800
| 36>    C       -4.42200        -3.56600         1.07500
| 37>    N       -6.40700        -4.31300         0.00100
| 38>    C       -2.86700        -1.92200        -0.04000
| 39>    C       -1.65000        -2.62400        -0.02700
| 40>    C        3.56800        -6.14200        -1.04000
| 41>    C       -1.47600        -4.04900        -0.03400
| 42>    C        2.80300        -4.09900        -0.00800
| 43>    C        3.65700        -4.38400         1.06900
| 44>    C        4.42700        -5.53000         1.05900
| 45>    C        5.24500        -7.58800         0.01400
| 46>    C       -0.13400        -4.31500        -0.02200
| 47>    C        0.56800        -3.06400        -0.02700
| 48>    C        2.77500        -5.01200        -1.07400
| 49>    N        4.37600        -6.39100         0.01700
| 50>    C        1.95900        -2.86900        -0.00900
| 51>    C        2.62100        -1.62200         0.00900
| 52>    C        5.54300         4.33900        -1.13000
| 53>    C        4.07000        -1.47900        -0.09400
| 54>    C        4.10400         2.75100        -0.02100
| 55>    C        5.02700         2.72900         1.03600
| 56>    C        6.16600         3.50900         0.97800
| 57>    C        7.61900         5.15300        -0.11500
| 58>    C        4.32100        -0.14800        -0.09200
| 59>    C        3.02500         0.51400         0.01500
| 60>    C        4.38700         3.58200        -1.11500
| 61>    C        2.86600         1.91600         0.01300
| 62>    N        6.41300         4.29600        -0.09500
| 63>    H       -5.87200         5.27100         0.96400
| 64>    H        2.27400         4.76600         0.08100
| 65>    H       -1.32100         5.38100        -0.87700
| 66>    H       -2.78200         7.39500        -0.81300
| 67>    H       -4.93600         8.17500         1.03600
| 68>    H       -4.94500         8.23300        -0.75200
| 69>    H       -6.23200         7.35300         0.11800
| 70>    H       -0.33200         5.28200         0.06900
| 71>    H       -4.53700         3.17200         0.97600
| 72>    H        0.18200         1.07200         0.00500
| 73>    H       -0.18300        -1.08000        -0.02100
| 74>    H       -5.86400        -4.96200         1.89500
| 75>    H       -4.79400         2.27200         0.13900
| 76>    H       -4.80000        -2.16000        -1.99400
| 77>    H       -6.84100        -3.58200        -1.89300
| 78>    H       -8.42800        -4.53600         0.54600
| 79>    H       -7.95600        -5.33700        -0.98100
| 80>    H       -7.45600        -6.03700         0.58400
| 81>    H       -5.28700        -0.34400         0.10000
| 82>    H       -3.78000        -3.60100         1.94700
| 83>    H        3.58700        -6.86800        -1.84300
| 84>    H       -2.27600        -4.77400        -0.05000
| 85>    H        3.71400        -3.72400         1.92600
| 86>    H        5.09200        -5.79500         1.87100
| 87>    H        6.20500        -7.32900        -0.43900
| 88>    H        5.39300        -7.91700         1.04200
| 89>    H        4.75900        -8.37300        -0.56400
| 90>    H        0.32900        -5.29000        -0.00800
| 91>    H        2.14600        -4.84200        -1.94000
| 92>    H        5.80800         4.98600        -1.95600
| 93>    H        4.78800        -2.28100        -0.18500
| 94>    H        4.86000         2.11400         1.91200
| 95>    H        6.90100         3.53100         1.77200
| 96>    H        7.38300         6.10900         0.35600
| 97>    H        8.41400         4.65200         0.43500
| 98>    H        7.92100         5.31000        -1.15000
| 99>    H        5.28300         0.33600        -0.17900
|100>    H        3.72000         3.63200        -1.96700
|101> *
|102>
|103>                          ****END OF INPUT****

CARTESIAN COORDINATES (ANGSTROEM)
---------------------------------
  C     -4.861000    5.236000    0.577000
  C      1.474000    4.041000    0.057000
  C     -2.802000    4.093000    0.049000
  C     -2.319000    5.307000   -0.464000
  C     -3.114000    6.436000   -0.437000
  C     -5.177000    7.626000    0.123000
  C      0.132000    4.307000    0.061000
  C     -0.569000    3.056000    0.047000
  C      1.649000    2.618000    0.023000
  C     -4.102000    4.082000    0.578000
  N     -4.365000    6.390000    0.075000
  N      0.388000    2.067000    0.025000
  N     -2.010000    0.395000   -0.075000
  N     -0.388000   -2.074000   -0.027000
  N      2.010000   -0.401000    0.065000
  C     -1.960000    2.861000    0.024000
  C     -2.623000    1.615000   -0.018000
  C     -5.573000   -4.329000    1.066000
  C     -4.073000    1.471000    0.056000
  C     -4.106000   -2.756000   -0.026000
  C     -4.995000   -2.757000   -1.111000
  C     -6.132000   -3.542000   -1.076000
  C     -7.651000   -5.113000    0.040000
  C     -4.324000    0.141000    0.037000
  C     -3.025000   -0.520000   -0.048000
  C     -4.422000   -3.566000    1.075000
  N     -6.407000   -4.313000    0.001000
  C     -2.867000   -1.922000   -0.040000
  C     -1.650000   -2.624000   -0.027000
  C      3.568000   -6.142000   -1.040000
  C     -1.476000   -4.049000   -0.034000
  C      2.803000   -4.099000   -0.008000
  C      3.657000   -4.384000    1.069000
  C      4.427000   -5.530000    1.059000
  C      5.245000   -7.588000    0.014000
  C     -0.134000   -4.315000   -0.022000
  C      0.568000   -3.064000   -0.027000
  C      2.775000   -5.012000   -1.074000
  N      4.376000   -6.391000    0.017000
  C      1.959000   -2.869000   -0.009000
  C      2.621000   -1.622000    0.009000
  C      5.543000    4.339000   -1.130000
  C      4.070000   -1.479000   -0.094000
  C      4.104000    2.751000   -0.021000
  C      5.027000    2.729000    1.036000
  C      6.166000    3.509000    0.978000
  C      7.619000    5.153000   -0.115000
  C      4.321000   -0.148000   -0.092000
  C      3.025000    0.514000    0.015000
  C      4.387000    3.582000   -1.115000
  C      2.866000    1.916000    0.013000
  N      6.413000    4.296000   -0.095000
  H     -5.872000    5.271000    0.964000
  H      2.274000    4.766000    0.081000
  H     -1.321000    5.381000   -0.877000
  H     -2.782000    7.395000   -0.813000
  H     -4.936000    8.175000    1.036000
  H     -4.945000    8.233000   -0.752000
  H     -6.232000    7.353000    0.118000
  H     -0.332000    5.282000    0.069000
  H     -4.537000    3.172000    0.976000
  H      0.182000    1.072000    0.005000
  H     -0.183000   -1.080000   -0.021000
  H     -5.864000   -4.962000    1.895000
  H     -4.794000    2.272000    0.139000
  H     -4.800000   -2.160000   -1.994000
  H     -6.841000   -3.582000   -1.893000
  H     -8.428000   -4.536000    0.546000
  H     -7.956000   -5.337000   -0.981000
  H     -7.456000   -6.037000    0.584000
  H     -5.287000   -0.344000    0.100000
  H     -3.780000   -3.601000    1.947000
  H      3.587000   -6.868000   -1.843000
  H     -2.276000   -4.774000   -0.050000
  H      3.714000   -3.724000    1.926000
  H      5.092000   -5.795000    1.871000
  H      6.205000   -7.329000   -0.439000
  H      5.393000   -7.917000    1.042000
  H      4.759000   -8.373000   -0.564000
  H      0.329000   -5.290000   -0.008000
  H      2.146000   -4.842000   -1.940000
  H      5.808000    4.986000   -1.956000
  H      4.788000   -2.281000   -0.185000
  H      4.860000    2.114000    1.912000
  H      6.901000    3.531000    1.772000
  H      7.383000    6.109000    0.356000
  H      8.414000    4.652000    0.435000
  H      7.921000    5.310000   -1.150000
  H      5.283000    0.336000   -0.179000
  H      3.720000    3.632000   -1.967000

 Total Charge           Charge          ....    0
 Multiplicity           Mult            ....    1
 Number of Electrons    NEL             ....  358
 Basis Dimension        Dim             ....  918

ORBITAL ENERGIES
----------------

  NO   OCC          E(Eh)            E(eV)
   0   2.0000     -15.675192      -426.5437
   1   2.0000     -15.634454      -425.4351
   2   2.0000     -15.631080      -425.3433
   3   2.0000     -15.590563      -424.2408
   4   2.0000     -15.524798      -422.4512
   5   2.0000     -15.516085      -422.2141
   6   2.0000     -15.452880      -420.4942
   7   2.0000     -15.440870      -420.1674
   8   2.0000     -11.325721      -308.1885
   9   2.0000     -11.325093      -308.1715
  10   2.0000     -11.324375      -308.1519
  11   2.0000     -11.299625      -307.4784
  12   2.0000     -11.297875      -307.4308
  13   2.0000     -11.293185      -307.3032
  14   2.0000     -11.290273      -307.2240
  15   2.0000     -11.287194      -307.1401
  16   2.0000     -11.286190      -307.1128
  17   2.0000     -11.277742      -306.8830
  18   2.0000     -11.272466      -306.7394
  19   2.0000     -11.260167      -306.4047
  20   2.0000     -11.259197      -306.3783
  21   2.0000     -11.254588      -306.2529
  22   2.0000     -11.254152      -306.2411
  23   2.0000     -11.238133      -305.8051
  24   2.0000     -11.235870      -305.7436
  25   2.0000     -11.231543      -305.6258
  26   2.0000     -11.230739      -305.6040
  27   2.0000     -11.229197      -305.5620
  28   2.0000     -11.229088      -305.5590
  29   2.0000     -11.210134      -305.0433
  30   2.0000     -11.208836      -305.0079
  31   2.0000     -11.198655      -304.7309
  32   2.0000     -11.190443      -304.5074
  33   2.0000     -11.189801      -304.4900
  34   2.0000     -11.189560      -304.4834
  35   2.0000     -11.188996      -304.4681
  36   2.0000     -11.186582      -304.4024
  37   2.0000     -11.186569      -304.4020
  38   2.0000     -11.185383      -304.3697
  39   2.0000     -11.173152      -304.0369
  40   2.0000     -11.172481      -304.0187
  41   2.0000     -11.170294      -303.9592
  42   2.0000     -11.167598      -303.8858
  43   2.0000     -11.160857      -303.7024
  44   2.0000     -11.159873      -303.6756
  45   2.0000     -11.158335      -303.6337
  46   2.0000     -11.156477      -303.5832
  47   2.0000     -11.155005      -303.5431
  48   2.0000     -11.147807      -303.3472
  49   2.0000     -11.138521      -303.0946
  50   2.0000     -11.131475      -302.9028
  51   2.0000     -11.120797      -302.6123
  52   2.0000      -1.356473       -36.9115
  53   2.0000      -1.321635       -35.9635
  54   2.0000      -1.318965       -35.8909
  55   2.0000      -1.284269       -34.9467
  56   2.0000      -1.225510       -33.3478
  57   2.0000      -1.210544       -32.9406
  58   2.0000      -1.172036       -31.8927
  59   2.0000      -1.151626       -31.3374
  60   2.0000      -1.140392       -31.0316
  61   2.0000      -1.110527       -30.2190
  62   2.0000      -1.108462       -30.1628
  63   2.0000      -1.080061       -29.3900
  64   2.0000      -1.078455       -29.3462
  65   2.0000      -1.045794       -28.4575
  66   2.0000      -1.043676       -28.3999
  67   2.0000      -1.038944       -28.2711
  68   2.0000      -1.014583       -27.6082
  69   2.0000      -1.013679       -27.5836
  70   2.0000      -1.009568       -27.4718
  71   2.0000      -0.992908       -27.0184
  72   2.0000      -0.986642       -26.8479
  73   2.0000      -0.980295       -26.6752
  74   2.0000      -0.972420       -26.4609
  75   2.0000      -0.961113       -26.1532
  76   2.0000      -0.953523       -25.9467
  77   2.0000      -0.946257       -25.7490
  78   2.0000      -0.935195       -25.4479
  79   2.0000      -0.918800       -25.0018
  80   2.0000      -0.907265       -24.6879
  81   2.0000      -0.894416       -24.3383
  82   2.0000      -0.874884       -23.8068
  83   2.0000      -0.872072       -23.7303
  84   2.0000      -0.869246       -23.6534
  85   2.0000      -0.857316       -23.3287
  86   2.0000      -0.841465       -22.8974
  87   2.0000      -0.835917       -22.7465
  88   2.0000      -0.824669       -22.4404
  89   2.0000      -0.797600       -21.7038
  90   2.0000      -0.791149       -21.5283
  91   2.0000      -0.751394       -20.4465
  92   2.0000      -0.745065       -20.2742
  93   2.0000      -0.732984       -19.9455
  94   2.0000      -0.724670       -19.7193
  95   2.0000      -0.722065       -19.6484
  96   2.0000      -0.716345       -19.4927
  97   2.0000      -0.712500       -19.3881
  98   2.0000      -0.708037       -19.2667
  99   2.0000      -0.697017       -18.9668
 100   2.0000      -0.696246       -18.9458
 101   2.0000      -0.685354       -18.6494
 102   2.0000      -0.681481       -18.5440
 103   2.0000      -0.681096       -18.5336
 104   2.0000      -0.678441       -18.4613
 105   2.0000      -0.673491       -18.3266
 106   2.0000      -0.670103       -18.2344
 107   2.0000      -0.660691       -17.9783
 108   2.0000      -0.656575       -17.8663
 109   2.0000      -0.653386       -17.7795
 110   2.0000      -0.650972       -17.7139
 111   2.0000      -0.643685       -17.5156
 112   2.0000      -0.642789       -17.4912
 113   2.0000      -0.639477       -17.4010
 114   2.0000      -0.637683       -17.3522
 115   2.0000      -0.627795       -17.0832
 116   2.0000      -0.623990       -16.9796
 117   2.0000      -0.619897       -16.8682
 118   2.0000      -0.612904       -16.6780
 119   2.0000      -0.612494       -16.6668
 120   2.0000      -0.610915       -16.6238
 121   2.0000      -0.608442       -16.5566
 122   2.0000      -0.600541       -16.3416
 123   2.0000      -0.586723       -15.9655
 124   2.0000      -0.581995       -15.8369
 125   2.0000      -0.580367       -15.7926
 126   2.0000      -0.579641       -15.7728
 127   2.0000      -0.573697       -15.6111
 128   2.0000      -0.567935       -15.4543
 129   2.0000      -0.559286       -15.2189
 130   2.0000      -0.551545       -15.0083
 131   2.0000      -0.547514       -14.8986
 132   2.0000      -0.542325       -14.7574
 133   2.0000      -0.541352       -14.7309
 134   2.0000      -0.538427       -14.6513
 135   2.0000      -0.535616       -14.5749
 136   2.0000      -0.529049       -14.3962
 137   2.0000      -0.522294       -14.2123
 138   2.0000      -0.516926       -14.0663
 139   2.0000      -0.514030       -13.9875
 140   2.0000      -0.512092       -13.9347
 141   2.0000      -0.511130       -13.9086
 142   2.0000      -0.509276       -13.8581
 143   2.0000      -0.503801       -13.7091
 144   2.0000      -0.502122       -13.6634
 145   2.0000      -0.496930       -13.5221
 146   2.0000      -0.492110       -13.3910
 147   2.0000      -0.483279       -13.1507
 148   2.0000      -0.479290       -13.0421
 149   2.0000      -0.466709       -12.6998
 150   2.0000      -0.466329       -12.6895
 151   2.0000      -0.457135       -12.4393
 152   2.0000      -0.450725       -12.2648
 153   2.0000      -0.445063       -12.1108
 154   2.0000      -0.441005       -12.0003
 155   2.0000      -0.428741       -11.6666
 156   2.0000      -0.426134       -11.5957
 157   2.0000      -0.410171       -11.1613
 158   2.0000      -0.404279       -11.0010
 159   2.0000      -0.388517       -10.5721
 160   2.0000      -0.384654       -10.4670
 161   2.0000      -0.378348       -10.2954
 162   2.0000      -0.370202       -10.0737
 163   2.0000      -0.356950        -9.7131
 164   2.0000      -0.355363        -9.6699
 165   2.0000      -0.340842        -9.2748
 166   2.0000      -0.337551        -9.1852
 167   2.0000      -0.325719        -8.8633
 168   2.0000      -0.323816        -8.8115
 169   2.0000      -0.304451        -8.2845
 170   2.0000      -0.299615        -8.1529
 171   2.0000      -0.285789        -7.7767
 172   2.0000      -0.281145        -7.6504
 173   2.0000      -0.262988        -7.1563
 174   2.0000      -0.242359        -6.5949
 175   2.0000      -0.189909        -5.1677
 176   2.0000      -0.180387        -4.9086
 177   2.0000      -0.076676        -2.0864
 178   2.0000      -0.058690        -1.5970
 179   0.0000       0.028435         0.7738
 180   0.0000       0.066066         1.7978
 181   0.0000       0.091019         2.4768
 182   0.0000       0.109193         2.9713
 183   0.0000       0.111254         3.0274

MULLIKEN ATOMIC CHARGES
-----------------------
   0 C :    0.209097
   1 N :   -0.454983
   2 C :   -0.067824
   3 N :   -0.338026
   4 C :   -0.048886
   5 N :   -0.565166
   6 C :   -0.117211
   7 N :   -0.340356
   8 C :    0.208811
   9 N :   -0.562323
  10 C :    0.118759
  11 N :   -0.438339
  12 C :   -0.079158
  13 N :   -0.430484
  14 C :    0.230312
  15 N :   -0.441080
  16 C :    0.228730
  17 C :   -0.114237
  18 C :   -0.191861
  19 C :    0.223693
  20 C :    0.213083
  21 C :   -0.088797
  22 C :   -0.091027
  23 C :   -0.040165
  24 C :    0.194584
  25 C :    0.114545
  26 C :   -0.083751
  27 C :    0.213459
  28 C :   -0.061028
  29 C :   -0.180483
  30 C :    0.245227
  31 C :    0.228467
  32 C :   -0.061997
  33 C :   -0.062416
  34 C :   -0.050884
  35 C :    0.225843
  36 C :    0.108823
  37 C :   -0.064522
  38 C :    0.231856
  39 C :   -0.058140
  40 C :   -0.181968
  41 C :    0.225418
  42 C :    0.197716
  43 C :   -0.072414
  44 C :   -0.089637
  45 C :   -0.060611
  46 C :    0.210701
  47 C :    0.115425
  48 C :   -0.067572
  49 C :    0.237901
  50 C :   -0.047079
  51 C :   -0.192175
  52 H :    0.039279
  53 H :   -0.016869
  54 H :    0.048292
  55 H :    0.037485
  56 H :    0.049644
  57 H :    0.047573
  58 H :    0.048043
  59 H :    0.000504
  60 H :    0.051518
  61 H :    0.171248
  62 H :    0.175286
  63 H :    0.055329
  64 H :   -0.010468
  65 H :    0.047387
  66 H :    0.055892
  67 H :    0.062390
  68 H :    0.057340
  69 H :    0.056533
  70 H :   -0.029735
  71 H :    0.044903
  72 H :    0.069946
  73 H :   -0.008397
  74 H :    0.059133
  75 H :    0.069319
  76 H :    0.073716
  77 H :    0.067073
  78 H :    0.066354
  79 H :   -0.016277
  80 H :    0.059986
  81 H :    0.054060
  82 H :   -0.024737
  83 H :    0.041982
  84 H :    0.054048
  85 H :    0.060689
  86 H :    0.055559
  87 H :    0.057044
  88 H :   -0.014961
  89 H :    0.046038
Sum of atomic charges:    0.0000000

LOEWDIN ATOMIC CHARGES
----------------------
   0 C :   -0.020838
   1 N :    0.118237
   2 C :   -0.101604
   3 N :    0.183355
   4 C :   -0.008992
   5 N :   -0.133165
   6 C :   -0.042312
   7 N :    0.175604
   8 C :   -0.021889
   9 N :   -0.140439
  10 C :    0.023751
  11 N :    0.142122
  12 C :   -0.116284
  13 N :    0.163843
  14 C :   -0.026155
  15 N :    0.138551
  16 C :   -0.058977
  17 C :   -0.039597
  18 C :   -0.104631
  19 C :   -0.080092
  20 C :    0.004280
  21 C :   -0.122302
  22 C :    0.036995
  23 C :   -0.014830
  24 C :   -0.011714
  25 C :    0.029854
  26 C :   -0.108092
  27 C :   -0.115270
  28 C :   -0.027166
  29 C :   -0.100222
  30 C :   -0.031128
  31 C :    0.022264
  32 C :   -0.094703
  33 C :    0.077814
  34 C :   -0.015453
  35 C :    0.020258
  36 C :    0.034704
  37 C :   -0.094757
  38 C :   -0.051043
  39 C :   -0.018356
  40 C :   -0.108318
  41 C :   -0.091688
  42 C :   -0.010226
  43 C :   -0.099670
  44 C :    0.033059
  45 C :   -0.027634
  46 C :    0.001113
  47 C :    0.029448
  48 C :   -0.095608
  49 C :   -0.071071
  50 C :   -0.019400
  51 C :   -0.108759
  52 H :    0.023686
  53 H :    0.002964
  54 H :    0.037219
  55 H :    0.023071
  56 H :    0.021846
  57 H :    0.026284
  58 H :    0.027398
  59 H :    0.011401
  60 H :    0.037018
  61 H :    0.060102
  62 H :    0.061756
  63 H :    0.030727
  64 H :    0.005283
  65 H :    0.045968
  66 H :    0.029383
  67 H :    0.028212
  68 H :    0.031674
  69 H :    0.030364
  70 H :   -0.004501
  71 H :    0.043540
  72 H :    0.037075
  73 H :    0.006935
  74 H :    0.050155
  75 H :    0.036689
  76 H :    0.034175
  77 H :    0.035750
  78 H :    0.035428
  79 H :    0.003115
  80 H :    0.050158
  81 H :    0.028958
  82 H :   -0.002662
  83 H :    0.042578
  84 H :    0.029796
  85 H :    0.027290
  86 H :    0.030183
  87 H :    0.031327
  88 H :    0.002158
  89 H :    0.044632

  Mayer bond orders larger than 0.100000
B(  0-C ,  1-N ) :   1.0909 B(  0-C , 17-C ) :   1.7086 B(  0-C , 52-H ) :   0.9659
B(  1-N ,  8-C ) :   1.0925 B(  1-N , 10-C ) :   0.9773 B(  2-C , 12-C ) :   1.5034
B(  2-C , 16-C ) :   1.3591 B(  2-C , 53-H ) :   0.9747 B(  3-N , 14-C ) :   1.2191
B(  3-N , 16-C ) :   1.1881 B(  3-N , 61-H ) :   0.8990 B(  4-C ,  6-C ) :   1.2139
B(  4-C , 17-C ) :   1.2120 B(  4-C , 18-C ) :   1.4425 B(  5-N , 19-C ) :   1.4530
B(  5-N , 27-C ) :   1.3777 B(  6-C ,  8-C ) :   1.7044 B(  6-C , 54-H ) :   0.9495
B(  7-N , 30-C ) :   1.1956 B(  7-N , 38-C ) :   1.1909 B(  7-N , 62-H ) :   0.8969
B(  8-C , 55-H ) :   0.9668 B(  9-N , 41-C ) :   1.3949 B(  9-N , 49-C ) :   1.4250
B( 10-C , 56-H ) :   0.9772 B( 10-C , 57-H ) :   0.9822 B( 10-C , 58-H ) :   0.9843
B( 11-N , 20-C ) :   1.1305 B( 11-N , 24-C ) :   1.1081 B( 11-N , 25-C ) :   0.9601
B( 12-C , 14-C ) :   1.3562 B( 12-C , 59-H ) :   0.9697 B( 13-N , 31-C ) :   1.1578
B( 13-N , 35-C ) :   1.1555 B( 13-N , 36-C ) :   0.9432 B( 14-C , 18-C ) :   1.1287
B( 15-N , 42-C ) :   1.1081 B( 15-N , 46-C ) :   1.1229 B( 15-N , 47-C ) :   0.9615
B( 16-C , 51-C ) :   1.1711 B( 17-C , 60-H ) :   0.9435 B( 18-C , 19-C ) :   1.1321
B( 19-C , 21-C ) :   1.2469 B( 20-C , 28-C ) :   1.6282 B( 20-C , 63-H ) :   0.9703
B( 21-C , 26-C ) :   1.6014 B( 21-C , 64-H ) :   0.9611 B( 22-C , 23-C ) :   1.2891
B( 22-C , 28-C ) :   1.2646 B( 22-C , 29-C ) :   1.2240 B( 23-C , 24-C ) :   1.6200
B( 23-C , 65-H ) :   0.9703 B( 24-C , 66-H ) :   0.9695 B( 25-C , 67-H ) :   0.9760
B( 25-C , 68-H ) :   0.9828 B( 25-C , 69-H ) :   0.9823 B( 26-C , 27-C ) :   1.2457
B( 26-C , 70-H ) :   0.9702 B( 27-C , 29-C ) :   1.2117 B( 28-C , 71-H ) :   0.9719
B( 29-C , 30-C ) :   1.2420 B( 30-C , 32-C ) :   1.2827 B( 31-C , 39-C ) :   1.5921
B( 31-C , 72-H ) :   0.9683 B( 32-C , 37-C ) :   1.5761 B( 32-C , 73-H ) :   0.9785
B( 33-C , 34-C ) :   1.3042 B( 33-C , 39-C ) :   1.3003 B( 33-C , 40-C ) :   1.1830
B( 34-C , 35-C ) :   1.5894 B( 34-C , 74-H ) :   0.9697 B( 35-C , 75-H ) :   0.9683
B( 36-C , 76-H ) :   0.9767 B( 36-C , 77-H ) :   0.9816 B( 36-C , 78-H ) :   0.9824
B( 37-C , 38-C ) :   1.2878 B( 37-C , 79-H ) :   0.9766 B( 38-C , 40-C ) :   1.2311
B( 39-C , 80-H ) :   0.9706 B( 40-C , 41-C ) :   1.2480 B( 41-C , 43-C ) :   1.1871
B( 42-C , 50-C ) :   1.6336 B( 42-C , 81-H ) :   0.9697 B( 43-C , 48-C ) :   1.6655
B( 43-C , 82-H ) :   0.9723 B( 44-C , 45-C ) :   1.2639 B( 44-C , 50-C ) :   1.2715
B( 44-C , 51-C ) :   1.2609 B( 45-C , 46-C ) :   1.6349 B( 45-C , 83-H ) :   0.9718
B( 46-C , 84-H ) :   0.9700 B( 47-C , 85-H ) :   0.9762 B( 47-C , 86-H ) :   0.9829
B( 47-C , 87-H ) :   0.9825 B( 48-C , 49-C ) :   1.1905 B( 48-C , 88-H ) :   0.9748
B( 49-C , 51-C ) :   1.2411 B( 50-C , 89-H ) :   0.9710

MP2 TOTAL ENERGY:    -2130.867618863 Eh
FINAL SINGLE POINT ENERGY     -2130.867618863490

DIPOLE MOMENT
-------------
                                X             Y             Z
Electronic contribution:      2.41351      -4.03481      -0.16875
Nuclear contribution   :      0.07663       0.23823       0.16753
                        -----------------------------------------
Total Dipole Moment    :      2.49014      -3.79658      -0.00122
                        -----------------------------------------
Magnitude (a.u.)       :      4.54036
Magnitude (Debye)      :     11.54067

Rotational constants in cm-1:     0.001501     0.001479     0.000760
Rotational constants in MHz :    44.987228    44.325288    22.796413

                             ****ORCA TERMINATED NORMALLY****
TOTAL RUN TIME: 0 days 1 hours 19 minutes 19 seconds 766 msec
