                         Program Version 5.0.4 -  RELEASE  -
|  1> ! PAL2
|  2> ! mp2 cc-pvdz TightSCF  NoKeepInts
|  3>
|  4> %scf
|  5>   MaxCore 2000
|  6> end
|  7> %mp2
|  8>   MaxCore 2000
|  9> end
| 10> * xyz 0 1
| 11>    C       -3.17700         6.38500         0.70600
| 12>    C        1.47400         4.04100         0.05700
| 13>    C       -2.80200         4.09300         0.04900
| 14>    C       -4.06200         4.11800        -0.56800
| 15>    C       -4.83000         5.26400        -0.53100
| 16>    C       -5.21700         7.60000         0.09200
| 17>    C        0.13200         4.30700         0.06100
| 18>    C       -0.56900         3.05600         0.04700
| 19>    C        1.64900         2.61800         0.02300
| 20>    C       -2.37000         5.26400         0.69100
| 21>    N       -4.38700         6.37500         0.10200
| 22>    N        0.38800         2.06700         0.02500
| 23>    N       -2.01000         0.39500        -0.07500
| 24>    N       -0.38800        -2.07400        -0.02700
| 25>    N        2.01000        -0.40100         0.06500
| 26>    C       -1.96000         2.86100         0.02400
| 27>    C       -2.62300         1.61500        -0.01800
| 28>    C       -5.57300        -4.32900         1.06600
| 29>    C       -4.07300         1.47100         0.05600
| 30>    C       -4.10600        -2.75600        -0.02600
| 31>    C       -4.99500        -2.75700        -1.11100
| 32>    C       -6.13200        -3.54200        -1.07600
| 33>    C       -7.65100        -5.11300         0.04000
| 34>    C       -4.32400         0.14100         0.03700
| 35>    C       -3.02500        -0.52000        -0.04800
| 36>    C       -4.42200        -3.56600         1.07500
| 37>    N       -6.40700        -4.31300         0.00100
| 38>    C       -2.86700        -1.92200        -0.04000
| 39>    C       -1.65000        -2.62400        -0.02700
| 40>    C        3.56800        -6.14200        -1.04000
| 41>    C       -1.47600        -4.04900        -0.03400
| 42>    C        2.80300        -4.09900        -0.00800
| 43>    C        3.65700        -4.38400         1.06900
| 44>    C        4.42700        -5.53000         1.05900
| 45>    C        5.24500        -7.58800         0.01400
| 46>    C       -0.13400        -4.31500        -0.02200
| 47>    C        0.56800        -3.06400        -0.02700
| 48>    C        2.77500        -5.01200        -1.07400
| 49>    N        4.37600        -6.39100         0.01700
| 50>    C        1.95900        -2.86900        -0.00900
| 51>    C        2.62100        -1.62200         0.00900
| 52>    C        5.54300         4.33900        -1.13000
| 53>    C        4.07000        -1.47900        -0.09400
| 54>    C        4.10400         2.75100        -0.02100
| 55>    C        5.02700         2.72900         1.03600
| 56>    C        6.16600         3.50900         0.97800
| 57>    C        7.61900         5.15300        -0.11500
| 58>    C        4.32100        -0.14800        -0.09200
| 59>    C        3.02500         0.51400         0.01500
| 60>    C        4.38700         3.58200        -1.11500
| 61>    C        2.86600         1.91600         0.01300
| 62>    N        6.41300         4.29600        -0.09500
| 63>    H       -2.88900         7.30500         1.20000
| 64>    H        2.27400         4.76600         0.08100
| 65>    H       -4.44700         3.24900        -1.08800
| 66>    H       -5.80300         5.33400        -0.99900
| 67>    H       -5.00800         8.16300        -0.82100
| 68>    H       -6.26800         7.31200         0.12200
| 69>    H       -4.96900         8.19900         0.96700
| 70>    H       -0.33200         5.28200         0.06900
| 71>    H       -1.41200         5.30300         1.19800
| 72>    H        0.18200         1.07200         0.00500
| 73>    H       -0.18300        -1.08000        -0.02100
| 74>    H       -5.86400        -4.96200         1.89500
| 75>    H       -4.79400         2.27200         0.13900
| 76>    H       -4.80000        -2.16000        -1.99400
| 77>    H       -6.84100        -3.58200        -1.89300
| 78>    H       -8.42800        -4.53600         0.54600
| 79>    H       -7.95600        -5.33700        -0.98100
| 80>    H       -7.45600        -6.03700         0.58400
| 81>    H       -5.28700        -0.34400         0.10000
| 82>    H       -3.78000        -3.60100         1.94700
| 83>    H        3.58700        -6.86800        -1.84300
| 84>    H       -2.27600        -4.77400        -0.05000
| 85>    H        3.71400        -3.72400         1.92600
| 86>    H        5.09200        -5.79500         1.87100
| 87>    H        6.20500        -7.32900        -0.43900
| 88>    H        5.39300        -7.91700         1.04200
| 89>    H        4.75900        -8.37300        -0.56400
| 90>    H        0.32900        -5.29000        -0.00800
| 91>    H        2.14600        -4.84200        -1.94000
| 92>    H        5.80800         4.98600        -1.95600
| 93>    H        4.78800        -2.28100        -0.18500
| 94>    H        4.86000         2.11400         1.91200
| 95>    H        6.90100         3.53100         1.77200
| 96>    H        7.38300         6.10900         0.35600
| 97>    H        8.41400         4.65200         0.43500
| 98>    H        7.92100         5.31000        -1.15000
| 99>    H        5.28300         0.33600        -0.17900
|100>    H        3.72000         3.63200        -1.96700
|101> *
|102>
|103>                          ****END OF INPUT****

CARTESIAN COORDINATES (ANGSTROEM)
---------------------------------
  C     -3.177000    6.385000    0.706000
  C      1.474000    4.041000    0.057000
  C     -2.802000    4.093000    0.049000
  C     -4.062000    4.118000   -0.568000
  C     -4.830000    5.264000   -0.531000
  C     -5.217000    7.600000    0.092000
  C      0.132000    4.307000    0.061000
  C     -0.569000    3.056000    0.047000
  C      1.649000    2.618000    0.023000
  C     -2.370000    5.264000    0.691000
  N     -4.387000    6.375000    0.102000
  N      0.388000    2.067000    0.025000
  N     -2.010000    0.395000   -0.075000
  N     -0.388000   -2.074000   -0.027000
  N      2.010000   -0.401000    0.065000
  C     -1.960000    2.861000    0.024000
  C     -2.623000    1.615000   -0.018000
  C     -5.573000   -4.329000    1.066000
  C     -4.073000    1.471000    0.056000
  C     -4.106000   -2.756000   -0.026000
  C     -4.995000   -2.757000   -1.111000
  C     -6.132000   -3.542000   -1.076000
  C     -7.651000   -5.113000    0.040000
  C     -4.324000    0.141000    0.037000
  C     -3.025000   -0.520000   -0.048000
  C     -4.422000   -3.566000    1.075000
  N     -6.407000   -4.313000    0.001000
  C     -2.867000   -1.922000   -0.040000
  C     -1.650000   -2.624000   -0.027000
  C      3.568000   -6.142000   -1.040000
  C     -1.476000   -4.049000   -0.034000
  C      2.803000   -4.099000   -0.008000
  C      3.657000   -4.384000    1.069000
  C      4.427000   -5.530000    1.059000
  C      5.245000   -7.588000    0.014000
  C     -0.134000   -4.315000   -0.022000
  C      0.568000   -3.064000   -0.027000
  C      2.775000   -5.012000   -1.074000
  N      4.376000   -6.391000    0.017000
  C      1.959000   -2.869000   -0.009000
  C      2.621000   -1.622000    0.009000
  C      5.543000    4.339000   -1.130000
  C      4.070000   -1.479000   -0.094000
  C      4.104000    2.751000   -0.021000
  C      5.027000    2.729000    1.036000
  C      6.166000    3.509000    0.978000
  C      7.619000    5.153000   -0.115000
  C      4.321000   -0.148000   -0.092000
  C      3.025000    0.514000    0.015000
  C      4.387000    3.582000   -1.115000
  C      2.866000    1.916000    0.013000
  N      6.413000    4.296000   -0.095000
  H     -2.889000    7.305000    1.200000
  H      2.274000    4.766000    0.081000
  H     -4.447000    3.249000   -1.088000
  H     -5.803000    5.334000   -0.999000
  H     -5.008000    8.163000   -0.821000
  H     -6.268000    7.312000    0.122000
  H     -4.969000    8.199000    0.967000
  H     -0.332000    5.282000    0.069000
  H     -1.412000    5.303000    1.198000
  H      0.182000    1.072000    0.005000
  H     -0.183000   -1.080000   -0.021000
  H     -5.864000   -4.962000    1.895000
  H     -4.794000    2.272000    0.139000
  H     -4.800000   -2.160000   -1.994000
  H     -6.841000   -3.582000   -1.893000
  H     -8.428000   -4.536000    0.546000
  H     -7.956000   -5.337000   -0.981000
  H     -7.456000   -6.037000    0.584000
  H     -5.287000   -0.344000    0.100000
  H     -3.780000   -3.601000    1.947000
  H      3.587000   -6.868000   -1.843000
  H     -2.276000   -4.774000   -0.050000
  H      3.714000   -3.724000    1.926000
  H      5.092000   -5.795000    1.871000
  H      6.205000   -7.329000   -0.439000
  H      5.393000   -7.917000    1.042000
  H      4.759000   -8.373000   -0.564000
  H      0.329000   -5.290000   -0.008000
  H      2.146000   -4.842000   -1.940000
  H      5.808000    4.986000   -1.956000
  H      4.788000   -2.281000   -0.185000
  H      4.860000    2.114000    1.912000
  H      6.901000    3.531000    1.772000
  H      7.383000    6.109000    0.356000
  H      8.414000    4.652000    0.435000
  H      7.921000    5.310000   -1.150000
  H      5.283000    0.336000   -0.179000
  H      3.720000    3.632000   -1.967000

 Total Charge           Charge          ....    0
 Multiplicity           Mult            ....    1
 Number of Electrons    NEL             ....  358
 Basis Dimension        Dim             ....  918

ORBITAL ENERGIES
----------------

  NO   OCC          E(Eh)            E(eV)
   0   2.0000     -15.672979      -426.4834
   1   2.0000     -15.637174      -425.5091
   2   2.0000     -15.628941      -425.2851
   3   2.0000     -15.590179      -424.2303
   4   2.0000     -15.525202      -422.4622
   5   2.0000     -15.515781      -422.2059
   6   2.0000     -15.451865      -420.4666
   7   2.0000     -15.442764      -420.2190
   8   2.0000     -11.324202      -308.1472
   9   2.0000     -11.323727      -308.1343
  10   2.0000     -11.322161      -308.0917
  11   2.0000     -11.301333      -307.5249
  12   2.0000     -11.296496      -307.3933
  13   2.0000     -11.295312      -307.3611
  14   2.0000     -11.289856      -307.2126
  15   2.0000     -11.288343      -307.1714
  16   2.0000     -11.284377      -307.0635
  17   2.0000     -11.275680      -306.8268
  18   2.0000     -11.272828      -306.7492
  19   2.0000     -11.258631      -306.3629
  20   2.0000     -11.257685      -306.3372
  21   2.0000     -11.256476      -306.3043
  22   2.0000     -11.253345      -306.2191
  23   2.0000     -11.240845      -305.8789
  24   2.0000     -11.233754      -305.6860
  25   2.0000     -11.233619      -305.6823
  26   2.0000     -11.233044      -305.6667
  27   2.0000     -11.227554      -305.5173
  28   2.0000     -11.227243      -305.5088
  29   2.0000     -11.210692      -305.0584
  30   2.0000     -11.209234      -305.0188
  31   2.0000     -11.199805      -304.7622
  32   2.0000     -11.192756      -304.5704
  33   2.0000     -11.192184      -304.5548
  34   2.0000     -11.189405      -304.4792
  35   2.0000     -11.188854      -304.4642
  36   2.0000     -11.188613      -304.4576
  37   2.0000     -11.184655      -304.3499
  38   2.0000     -11.183608      -304.3214
  39   2.0000     -11.174483      -304.0731
  40   2.0000     -11.173174      -304.0375
  41   2.0000     -11.168677      -303.9152
  42   2.0000     -11.168561      -303.9120
  43   2.0000     -11.161843      -303.7292
  44   2.0000     -11.160203      -303.6845
  45   2.0000     -11.158288      -303.6325
  46   2.0000     -11.157990      -303.6243
  47   2.0000     -11.152976      -303.4879
  48   2.0000     -11.147295      -303.3333
  49   2.0000     -11.139921      -303.1327
  50   2.0000     -11.133703      -302.9634
  51   2.0000     -11.125139      -302.7304
  52   2.0000      -1.354588       -36.8602
  53   2.0000      -1.324005       -36.0280
  54   2.0000      -1.317096       -35.8400
  55   2.0000      -1.284458       -34.9519
  56   2.0000      -1.225912       -33.3587
  57   2.0000      -1.210136       -32.9295
  58   2.0000      -1.170620       -31.8542
  59   2.0000      -1.153168       -31.3793
  60   2.0000      -1.138776       -30.9877
  61   2.0000      -1.112558       -30.2743
  62   2.0000      -1.106855       -30.1191
  63   2.0000      -1.080598       -29.4046
  64   2.0000      -1.076710       -29.2988
  65   2.0000      -1.048093       -28.5201
  66   2.0000      -1.041862       -28.3505
  67   2.0000      -1.037998       -28.2454
  68   2.0000      -1.015064       -27.6213
  69   2.0000      -1.013124       -27.5685
  70   2.0000      -1.009371       -27.4664
  71   2.0000      -0.993290       -27.0288
  72   2.0000      -0.986815       -26.8526
  73   2.0000      -0.979914       -26.6648
  74   2.0000      -0.971891       -26.4465
  75   2.0000      -0.960152       -26.1271
  76   2.0000      -0.952623       -25.9222
  77   2.0000      -0.946402       -25.7529
  78   2.0000      -0.935295       -25.4507
  79   2.0000      -0.919306       -25.0156
  80   2.0000      -0.905772       -24.6473
  81   2.0000      -0.893555       -24.3149
  82   2.0000      -0.875517       -23.8240
  83   2.0000      -0.872322       -23.7371
  84   2.0000      -0.867611       -23.6089
  85   2.0000      -0.856069       -23.2948
  86   2.0000      -0.839597       -22.8466
  87   2.0000      -0.836901       -22.7732
  88   2.0000      -0.823475       -22.4079
  89   2.0000      -0.798027       -21.7154
  90   2.0000      -0.791779       -21.5454
  91   2.0000      -0.749855       -20.4046
  92   2.0000      -0.740802       -20.1582
  93   2.0000      -0.733262       -19.9531
  94   2.0000      -0.724360       -19.7108
  95   2.0000      -0.720862       -19.6156
  96   2.0000      -0.715430       -19.4678
  97   2.0000      -0.710001       -19.3201
  98   2.0000      -0.705467       -19.1967
  99   2.0000      -0.696708       -18.9584
 100   2.0000      -0.696149       -18.9432
 101   2.0000      -0.683749       -18.6058
 102   2.0000      -0.679964       -18.5028
 103   2.0000      -0.679521       -18.4907
 104   2.0000      -0.676283       -18.4026
 105   2.0000      -0.671618       -18.2757
 106   2.0000      -0.668488       -18.1905
 107   2.0000      -0.661662       -18.0047
 108   2.0000      -0.655386       -17.8340
 109   2.0000      -0.653966       -17.7953
 110   2.0000      -0.649211       -17.6659
 111   2.0000      -0.642974       -17.4962
 112   2.0000      -0.641258       -17.4495
 113   2.0000      -0.640606       -17.4318
 114   2.0000      -0.636886       -17.3306
 115   2.0000      -0.626236       -17.0408
 116   2.0000      -0.624024       -16.9806
 117   2.0000      -0.617276       -16.7969
 118   2.0000      -0.614860       -16.7312
 119   2.0000      -0.613144       -16.6845
 120   2.0000      -0.609246       -16.5784
 121   2.0000      -0.607037       -16.5183
 122   2.0000      -0.599437       -16.3115
 123   2.0000      -0.586267       -15.9531
 124   2.0000      -0.583235       -15.8706
 125   2.0000      -0.580884       -15.8067
 126   2.0000      -0.578702       -15.7473
 127   2.0000      -0.577250       -15.7078
 128   2.0000      -0.566706       -15.4209
 129   2.0000      -0.558816       -15.2062
 130   2.0000      -0.550639       -14.9836
 131   2.0000      -0.547786       -14.9060
 132   2.0000      -0.543574       -14.7914
 133   2.0000      -0.540482       -14.7073
 134   2.0000      -0.539519       -14.6811
 135   2.0000      -0.534316       -14.5395
 136   2.0000      -0.526691       -14.3320
 137   2.0000      -0.523017       -14.2320
 138   2.0000      -0.518256       -14.1025
 139   2.0000      -0.513271       -13.9668
 140   2.0000      -0.512236       -13.9387
 141   2.0000      -0.510365       -13.8877
 142   2.0000      -0.510201       -13.8833
 143   2.0000      -0.503491       -13.7007
 144   2.0000      -0.500633       -13.6229
 145   2.0000      -0.496324       -13.5057
 146   2.0000      -0.494053       -13.4439
 147   2.0000      -0.483782       -13.1644
 148   2.0000      -0.479404       -13.0452
 149   2.0000      -0.466833       -12.7032
 150   2.0000      -0.465827       -12.6758
 151   2.0000      -0.457300       -12.4438
 152   2.0000      -0.449888       -12.2421
 153   2.0000      -0.446233       -12.1426
 154   2.0000      -0.442189       -12.0326
 155   2.0000      -0.434446       -11.8219
 156   2.0000      -0.429263       -11.6808
 157   2.0000      -0.422240       -11.4897
 158   2.0000      -0.405215       -11.0265
 159   2.0000      -0.386870       -10.5273
 160   2.0000      -0.383174       -10.4267
 161   2.0000      -0.378391       -10.2965
 162   2.0000      -0.371138       -10.0992
 163   2.0000      -0.358898        -9.7661
 164   2.0000      -0.353797        -9.6273
 165   2.0000      -0.339698        -9.2436
 166   2.0000      -0.337727        -9.1900
 167   2.0000      -0.327263        -8.9053
 168   2.0000      -0.324790        -8.8380
 169   2.0000      -0.304853        -8.2955
 170   2.0000      -0.299498        -8.1497
 171   2.0000      -0.285798        -7.7770
 172   2.0000      -0.281930        -7.6717
 173   2.0000      -0.261810        -7.1242
 174   2.0000      -0.243648        -6.6300
 175   2.0000      -0.189969        -5.1693
 176   2.0000      -0.180337        -4.9072
 177   2.0000      -0.075780        -2.0621
 178   2.0000      -0.058389        -1.5888
 179   0.0000       0.028410         0.7731
 180   0.0000       0.066251         1.8028
 181   0.0000       0.091428         2.4879
 182   0.0000       0.109606         2.9825
 183   0.0000       0.110823         3.0156

MULLIKEN ATOMIC CHARGES
-----------------------
   0 C :    0.211720
   1 N :   -0.455477
   2 C :   -0.067370
   3 N :   -0.337128
   4 C :   -0.054917
   5 N :   -0.561847
   6 C :   -0.113682
   7 N :   -0.340334
   8 C :    0.205386
   9 N :   -0.562640
  10 C :    0.118910
  11 N :   -0.437845
  12 C :   -0.079574
  13 N :   -0.430998
  14 C :    0.221588
  15 N :   -0.441477
  16 C :    0.230286
  17 C :   -0.123977
  18 C :   -0.162667
  19 C :    0.207244
  20 C :    0.213995
  21 C :   -0.092497
  22 C :   -0.089001
  23 C :   -0.041002
  24 C :    0.196322
  25 C :    0.114181
  26 C :   -0.077555
  27 C :    0.212248
  28 C :   -0.060129
  29 C :   -0.180988
  30 C :    0.244396
  31 C :    0.228408
  32 C :   -0.061543
  33 C :   -0.063699
  34 C :   -0.049798
  35 C :    0.223573
  36 C :    0.109132
  37 C :   -0.064626
  38 C :    0.233094
  39 C :   -0.059208
  40 C :   -0.181646
  41 C :    0.223879
  42 C :    0.197408
  43 C :   -0.072811
  44 C :   -0.091070
  45 C :   -0.060481
  46 C :    0.209204
  47 C :    0.115690
  48 C :   -0.068404
  49 C :    0.236723
  50 C :   -0.047270
  51 C :   -0.193759
  52 H :    0.040328
  53 H :   -0.016727
  54 H :    0.053074
  55 H :    0.037769
  56 H :    0.048960
  57 H :    0.048675
  58 H :    0.047196
  59 H :    0.001384
  60 H :    0.050715
  61 H :    0.171015
  62 H :    0.175397
  63 H :    0.056429
  64 H :   -0.003963
  65 H :    0.046988
  66 H :    0.056551
  67 H :    0.063300
  68 H :    0.057759
  69 H :    0.057266
  70 H :   -0.028310
  71 H :    0.046171
  72 H :    0.069233
  73 H :   -0.008601
  74 H :    0.058506
  75 H :    0.068482
  76 H :    0.073121
  77 H :    0.066576
  78 H :    0.065742
  79 H :   -0.015661
  80 H :    0.059112
  81 H :    0.053704
  82 H :   -0.025135
  83 H :    0.041097
  84 H :    0.053158
  85 H :    0.059930
  86 H :    0.055096
  87 H :    0.056731
  88 H :   -0.015426
  89 H :    0.046392
Sum of atomic charges:   -0.0000000

LOEWDIN ATOMIC CHARGES
----------------------
   0 C :   -0.019128
   1 N :    0.116056
   2 C :   -0.102172
   3 N :    0.183297
   4 C :   -0.008648
   5 N :   -0.130633
   6 C :   -0.037555
   7 N :    0.175668
   8 C :   -0.025475
   9 N :   -0.140368
  10 C :    0.023831
  11 N :    0.143511
  12 C :   -0.112611
  13 N :    0.162605
  14 C :   -0.031196
  15 N :    0.137496
  16 C :   -0.057499
  17 C :   -0.045944
  18 C :   -0.101338
  19 C :   -0.083602
  20 C :    0.005481
  21 C :   -0.118152
  22 C :    0.039227
  23 C :   -0.015256
  24 C :   -0.009922
  25 C :    0.030197
  26 C :   -0.108118
  27 C :   -0.115060
  28 C :   -0.026052
  29 C :   -0.099066
  30 C :   -0.033093
  31 C :    0.021902
  32 C :   -0.093803
  33 C :    0.075679
  34 C :   -0.015037
  35 C :    0.017928
  36 C :    0.034421
  37 C :   -0.095076
  38 C :   -0.048771
  39 C :   -0.019291
  40 C :   -0.108088
  41 C :   -0.093724
  42 C :   -0.010642
  43 C :   -0.100450
  44 C :    0.031228
  45 C :   -0.027929
  46 C :   -0.000515
  47 C :    0.029193
  48 C :   -0.097016
  49 C :   -0.071848
  50 C :   -0.019622
  51 C :   -0.109968
  52 H :    0.023881
  53 H :    0.003016
  54 H :    0.041899
  55 H :    0.023208
  56 H :    0.021564
  57 H :    0.026786
  58 H :    0.026871
  59 H :    0.010786
  60 H :    0.040223
  61 H :    0.059972
  62 H :    0.061804
  63 H :    0.031229
  64 H :    0.007089
  65 H :    0.045786
  66 H :    0.029719
  67 H :    0.028664
  68 H :    0.031870
  69 H :    0.030712
  70 H :   -0.003983
  71 H :    0.044132
  72 H :    0.036774
  73 H :    0.006832
  74 H :    0.049950
  75 H :    0.036243
  76 H :    0.033856
  77 H :    0.035515
  78 H :    0.035149
  79 H :    0.003407
  80 H :    0.049728
  81 H :    0.028806
  82 H :   -0.002845
  83 H :    0.042207
  84 H :    0.029364
  85 H :    0.026918
  86 H :    0.029957
  87 H :    0.031180
  88 H :    0.001938
  89 H :    0.044740

  Mayer bond orders larger than 0.100000
B(  0-C ,  1-N ) :   1.0949 B(  0-C , 17-C ) :   1.7049 B(  0-C , 52-H ) :   0.9663
B(  1-N ,  8-C ) :   1.0837 B(  1-N , 10-C ) :   0.9778 B(  2-C , 12-C ) :   1.5078
B(  2-C , 16-C ) :   1.3549 B(  2-C , 53-H ) :   0.9758 B(  3-N , 14-C ) :   1.2177
B(  3-N , 16-C ) :   1.1913 B(  3-N , 61-H ) :   0.8994 B(  4-C ,  6-C ) :   1.2128
B(  4-C , 17-C ) :   1.2115 B(  4-C , 18-C ) :   1.4314 B(  5-N , 19-C ) :   1.4521
B(  5-N , 27-C ) :   1.3800 B(  6-C ,  8-C ) :   1.7088 B(  6-C , 54-H ) :   0.9569
B(  7-N , 30-C ) :   1.1940 B(  7-N , 38-C ) :   1.1926 B(  7-N , 62-H ) :   0.8968
B(  8-C , 55-H ) :   0.9679 B(  9-N , 41-C ) :   1.3933 B(  9-N , 49-C ) :   1.4274
B( 10-C , 56-H ) :   0.9769 B( 10-C , 57-H ) :   0.9831 B( 10-C , 58-H ) :   0.9834
B( 11-N , 20-C ) :   1.1318 B( 11-N , 24-C ) :   1.1108 B( 11-N , 25-C ) :   0.9590
B( 12-C , 14-C ) :   1.3554 B( 12-C , 59-H ) :   0.9739 B( 13-N , 31-C ) :   1.1570
B( 13-N , 35-C ) :   1.1519 B( 13-N , 36-C ) :   0.9441 B( 14-C , 18-C ) :   1.1320
B( 15-N , 42-C ) :   1.1071 B( 15-N , 46-C ) :   1.1209 B( 15-N , 47-C ) :   0.9623
B( 16-C , 51-C ) :   1.1726 B( 17-C , 60-H ) :   0.9570 B( 18-C , 19-C ) :   1.1344
B( 19-C , 21-C ) :   1.2434 B( 20-C , 28-C ) :   1.6258 B( 20-C , 63-H ) :   0.9702
B( 21-C , 26-C ) :   1.6120 B( 21-C , 64-H ) :   0.9714 B( 22-C , 23-C ) :   1.2907
B( 22-C , 28-C ) :   1.2673 B( 22-C , 29-C ) :   1.2208 B( 23-C , 24-C ) :   1.6175
B( 23-C , 65-H ) :   0.9705 B( 24-C , 66-H ) :   0.9694 B( 25-C , 67-H ) :   0.9760
B( 25-C , 68-H ) :   0.9828 B( 25-C , 69-H ) :   0.9823 B( 26-C , 27-C ) :   1.2380
B( 26-C , 70-H ) :   0.9703 B( 27-C , 29-C ) :   1.2142 B( 28-C , 71-H ) :   0.9719
B( 29-C , 30-C ) :   1.2418 B( 30-C , 32-C ) :   1.2826 B( 31-C , 39-C ) :   1.5945
B( 31-C , 72-H ) :   0.9683 B( 32-C , 37-C ) :   1.5768 B( 32-C , 73-H ) :   0.9784
B( 33-C , 34-C ) :   1.3038 B( 33-C , 39-C ) :   1.2976 B( 33-C , 40-C ) :   1.1852
B( 34-C , 35-C ) :   1.5911 B( 34-C , 74-H ) :   0.9697 B( 35-C , 75-H ) :   0.9684
B( 36-C , 76-H ) :   0.9767 B( 36-C , 77-H ) :   0.9816 B( 36-C , 78-H ) :   0.9825
B( 37-C , 38-C ) :   1.2868 B( 37-C , 79-H ) :   0.9768 B( 38-C , 40-C ) :   1.2316
B( 39-C , 80-H ) :   0.9707 B( 40-C , 41-C ) :   1.2459 B( 41-C , 43-C ) :   1.1907
B( 42-C , 50-C ) :   1.6358 B( 42-C , 81-H ) :   0.9697 B( 43-C , 48-C ) :   1.6613
B( 43-C , 82-H ) :   0.9723 B( 44-C , 45-C ) :   1.2624 B( 44-C , 50-C ) :   1.2693
B( 44-C , 51-C ) :   1.2648 B( 45-C , 46-C ) :   1.6368 B( 45-C , 83-H ) :   0.9718
B( 46-C , 84-H ) :   0.9701 B( 47-C , 85-H ) :   0.9762 B( 47-C , 86-H ) :   0.9829
B( 47-C , 87-H ) :   0.9825 B( 48-C , 49-C ) :   1.1941 B( 48-C , 88-H ) :   0.9748
B( 49-C , 51-C ) :   1.2364 B( 50-C , 89-H ) :   0.9709

MP2 TOTAL ENERGY:    -2130.894675444 Eh
FINAL SINGLE POINT ENERGY     -2130.894675443809

DIPOLE MOMENT
-------------
                                X             Y             Z
Electronic contribution:      2.16252      -3.99169      -0.06503
Nuclear contribution   :     -0.00623       0.18277       0.07496
                        -----------------------------------------
Total Dipole Moment    :      2.15629      -3.80893       0.00993
                        -----------------------------------------
Magnitude (a.u.)       :      4.37694
Magnitude (Debye)      :     11.12529

Rotational constants in cm-1:     0.001502     0.001476     0.000761
Rotational constants in MHz :    45.031031    44.251611    22.804271

                             ****ORCA TERMINATED NORMALLY****
TOTAL RUN TIME: 0 days 1 hours 3 minutes 19 seconds 398 msec
