                         Program Version 5.0.4 -  RELEASE  -
|  1> ! PAL2
|  2> ! mp2 cc-pvdz TightSCF  NoKeepInts
|  3>
|  4> %scf
|  5>   MaxCore 2000
|  6> end
|  7> %mp2
|  8>   MaxCore 2000
|  9> end
| 10> * xyz 0 1
| 11>    C       -4.25600         5.68300        -1.03900
| 12>    C        1.47400         4.04100         0.05700
| 13>    C       -2.80200         4.09300         0.04900
| 14>    C       -2.92600         4.85800         1.21900
| 15>    C       -3.70500         5.99800         1.22300
| 16>    C       -5.21100         7.60300         0.15200
| 17>    C        0.13200         4.30700         0.06100
| 18>    C       -0.56900         3.05600         0.04700
| 19>    C        1.64900         2.61800         0.02300
| 20>    C       -3.49300         4.53200        -1.09100
| 21>    N       -4.35300         6.39800         0.10400
| 22>    N        0.38800         2.06700         0.02500
| 23>    N       -2.01000         0.39500        -0.07500
| 24>    N       -0.38800        -2.07400        -0.02700
| 25>    N        2.01000        -0.40100         0.06500
| 26>    C       -1.96000         2.86100         0.02400
| 27>    C       -2.62300         1.61500        -0.01800
| 28>    C       -5.57300        -4.32900         1.06600
| 29>    C       -4.07300         1.47100         0.05600
| 30>    C       -4.10600        -2.75600        -0.02600
| 31>    C       -4.99500        -2.75700        -1.11100
| 32>    C       -6.13200        -3.54200        -1.07600
| 33>    C       -7.65100        -5.11300         0.04000
| 34>    C       -4.32400         0.14100         0.03700
| 35>    C       -3.02500        -0.52000        -0.04800
| 36>    C       -4.42200        -3.56600         1.07500
| 37>    N       -6.40700        -4.31300         0.00100
| 38>    C       -2.86700        -1.92200        -0.04000
| 39>    C       -1.65000        -2.62400        -0.02700
| 40>    C        3.56800        -6.14200        -1.04000
| 41>    C       -1.47600        -4.04900        -0.03400
| 42>    C        2.80300        -4.09900        -0.00800
| 43>    C        3.65700        -4.38400         1.06900
| 44>    C        4.42700        -5.53000         1.05900
| 45>    C        5.24500        -7.58800         0.01400
| 46>    C       -0.13400        -4.31500        -0.02200
| 47>    C        0.56800        -3.06400        -0.02700
| 48>    C        2.77500        -5.01200        -1.07400
| 49>    N        4.37600        -6.39100         0.01700
| 50>    C        1.95900        -2.86900        -0.00900
| 51>    C        2.62100        -1.62200         0.00900
| 52>    C        5.54300         4.33900        -1.13000
| 53>    C        4.07000        -1.47900        -0.09400
| 54>    C        4.10400         2.75100        -0.02100
| 55>    C        5.02700         2.72900         1.03600
| 56>    C        6.16600         3.50900         0.97800
| 57>    C        7.61900         5.15300        -0.11500
| 58>    C        4.32100        -0.14800        -0.09200
| 59>    C        3.02500         0.51400         0.01500
| 60>    C        4.38700         3.58200        -1.11500
| 61>    C        2.86600         1.91600         0.01300
| 62>    N        6.41300         4.29600        -0.09500
| 63>    H       -4.79500         6.06500        -1.89700
| 64>    H        2.27400         4.76600         0.08100
| 65>    H       -2.42500         4.56600         2.13400
| 66>    H       -3.83700         6.61500         2.10200
| 67>    H       -6.20600         7.31800         0.50100
| 68>    H       -4.76500         8.32400         0.83700
| 69>    H       -5.27300         8.02800        -0.85000
| 70>    H       -0.33200         5.28200         0.06900
| 71>    H       -3.42600         3.99200        -2.02900
| 72>    H        0.18200         1.07200         0.00500
| 73>    H       -0.18300        -1.08000        -0.02100
| 74>    H       -5.86400        -4.96200         1.89500
| 75>    H       -4.79400         2.27200         0.13900
| 76>    H       -4.80000        -2.16000        -1.99400
| 77>    H       -6.84100        -3.58200        -1.89300
| 78>    H       -8.42800        -4.53600         0.54600
| 79>    H       -7.95600        -5.33700        -0.98100
| 80>    H       -7.45600        -6.03700         0.58400
| 81>    H       -5.28700        -0.34400         0.10000
| 82>    H       -3.78000        -3.60100         1.94700
| 83>    H        3.58700        -6.86800        -1.84300
| 84>    H       -2.27600        -4.77400        -0.05000
| 85>    H        3.71400        -3.72400         1.92600
| 86>    H        5.09200        -5.79500         1.87100
| 87>    H        6.20500        -7.32900        -0.43900
| 88>    H        5.39300        -7.91700         1.04200
| 89>    H        4.75900        -8.37300        -0.56400
| 90>    H        0.32900        -5.29000        -0.00800
| 91>    H        2.14600        -4.84200        -1.94000
| 92>    H        5.80800         4.98600        -1.95600
| 93>    H        4.78800        -2.28100        -0.18500
| 94>    H        4.86000         2.11400         1.91200
| 95>    H        6.90100         3.53100         1.77200
| 96>    H        7.38300         6.10900         0.35600
| 97>    H        8.41400         4.65200         0.43500
| 98>    H        7.92100         5.31000        -1.15000
| 99>    H        5.28300         0.33600        -0.17900
|100>    H        3.72000         3.63200        -1.96700
|101> *
|102>
|103>                          ****END OF INPUT****

CARTESIAN COORDINATES (ANGSTROEM)
---------------------------------
  C     -4.256000    5.683000   -1.039000
  C      1.474000    4.041000    0.057000
  C     -2.802000    4.093000    0.049000
  C     -2.926000    4.858000    1.219000
  C     -3.705000    5.998000    1.223000
  C     -5.211000    7.603000    0.152000
  C      0.132000    4.307000    0.061000
  C     -0.569000    3.056000    0.047000
  C      1.649000    2.618000    0.023000
  C     -3.493000    4.532000   -1.091000
  N     -4.353000    6.398000    0.104000
  N      0.388000    2.067000    0.025000
  N     -2.010000    0.395000   -0.075000
  N     -0.388000   -2.074000   -0.027000
  N      2.010000   -0.401000    0.065000
  C     -1.960000    2.861000    0.024000
  C     -2.623000    1.615000   -0.018000
  C     -5.573000   -4.329000    1.066000
  C     -4.073000    1.471000    0.056000
  C     -4.106000   -2.756000   -0.026000
  C     -4.995000   -2.757000   -1.111000
  C     -6.132000   -3.542000   -1.076000
  C     -7.651000   -5.113000    0.040000
  C     -4.324000    0.141000    0.037000
  C     -3.025000   -0.520000   -0.048000
  C     -4.422000   -3.566000    1.075000
  N     -6.407000   -4.313000    0.001000
  C     -2.867000   -1.922000   -0.040000
  C     -1.650000   -2.624000   -0.027000
  C      3.568000   -6.142000   -1.040000
  C     -1.476000   -4.049000   -0.034000
  C      2.803000   -4.099000   -0.008000
  C      3.657000   -4.384000    1.069000
  C      4.427000   -5.530000    1.059000
  C      5.245000   -7.588000    0.014000
  C     -0.134000   -4.315000   -0.022000
  C      0.568000   -3.064000   -0.027000
  C      2.775000   -5.012000   -1.074000
  N      4.376000   -6.391000    0.017000
  C      1.959000   -2.869000   -0.009000
  C      2.621000   -1.622000    0.009000
  C      5.543000    4.339000   -1.130000
  C      4.070000   -1.479000   -0.094000
  C      4.104000    2.751000   -0.021000
  C      5.027000    2.729000    1.036000
  C      6.166000    3.509000    0.978000
  C      7.619000    5.153000   -0.115000
  C      4.321000   -0.148000   -0.092000
  C      3.025000    0.514000    0.015000
  C      4.387000    3.582000   -1.115000
  C      2.866000    1.916000    0.013000
  N      6.413000    4.296000   -0.095000
  H     -4.795000    6.065000   -1.897000
  H      2.274000    4.766000    0.081000
  H     -2.425000    4.566000    2.134000
  H     -3.837000    6.615000    2.102000
  H     -6.206000    7.318000    0.501000
  H     -4.765000    8.324000    0.837000
  H     -5.273000    8.028000   -0.850000
  H     -0.332000    5.282000    0.069000
  H     -3.426000    3.992000   -2.029000
  H      0.182000    1.072000    0.005000
  H     -0.183000   -1.080000   -0.021000
  H     -5.864000   -4.962000    1.895000
  H     -4.794000    2.272000    0.139000
  H     -4.800000   -2.160000   -1.994000
  H     -6.841000   -3.582000   -1.893000
  H     -8.428000   -4.536000    0.546000
  H     -7.956000   -5.337000   -0.981000
  H     -7.456000   -6.037000    0.584000
  H     -5.287000   -0.344000    0.100000
  H     -3.780000   -3.601000    1.947000
  H      3.587000   -6.868000   -1.843000
  H     -2.276000   -4.774000   -0.050000
  H      3.714000   -3.724000    1.926000
  H      5.092000   -5.795000    1.871000
  H      6.205000   -7.329000   -0.439000
  H      5.393000   -7.917000    1.042000
  H      4.759000   -8.373000   -0.564000
  H      0.329000   -5.290000   -0.008000
  H      2.146000   -4.842000   -1.940000
  H      5.808000    4.986000   -1.956000
  H      4.788000   -2.281000   -0.185000
  H      4.860000    2.114000    1.912000
  H      6.901000    3.531000    1.772000
  H      7.383000    6.109000    0.356000
  H      8.414000    4.652000    0.435000
  H      7.921000    5.310000   -1.150000
  H      5.283000    0.336000   -0.179000
  H      3.720000    3.632000   -1.967000

 Total Charge           Charge          ....    0
 Multiplicity           Mult            ....    1
 Number of Electrons    NEL             ....  358
 Basis Dimension        Dim             ....  918

ORBITAL ENERGIES
----------------

  NO   OCC          E(Eh)            E(eV)
   0   2.0000     -15.670444      -426.4145
   1   2.0000     -15.637746      -425.5247
   2   2.0000     -15.624635      -425.1679
   3   2.0000     -15.604796      -424.6281
   4   2.0000     -15.517227      -422.2452
   5   2.0000     -15.511256      -422.0827
   6   2.0000     -15.447594      -420.3504
   7   2.0000     -15.434425      -419.9921
   8   2.0000     -11.321390      -308.0707
   9   2.0000     -11.319674      -308.0240
  10   2.0000     -11.318373      -307.9886
  11   2.0000     -11.301742      -307.5360
  12   2.0000     -11.295694      -307.3715
  13   2.0000     -11.293272      -307.3056
  14   2.0000     -11.290599      -307.2328
  15   2.0000     -11.284205      -307.0588
  16   2.0000     -11.281083      -306.9739
  17   2.0000     -11.279266      -306.9244
  18   2.0000     -11.269883      -306.6691
  19   2.0000     -11.267085      -306.5930
  20   2.0000     -11.263657      -306.4997
  21   2.0000     -11.255330      -306.2731
  22   2.0000     -11.255111      -306.2671
  23   2.0000     -11.241086      -305.8855
  24   2.0000     -11.233145      -305.6694
  25   2.0000     -11.232338      -305.6474
  26   2.0000     -11.228794      -305.5510
  27   2.0000     -11.223111      -305.3964
  28   2.0000     -11.222965      -305.3924
  29   2.0000     -11.210803      -305.0615
  30   2.0000     -11.209033      -305.0133
  31   2.0000     -11.208223      -304.9913
  32   2.0000     -11.201352      -304.8043
  33   2.0000     -11.201258      -304.8017
  34   2.0000     -11.189806      -304.4901
  35   2.0000     -11.189676      -304.4866
  36   2.0000     -11.182480      -304.2908
  37   2.0000     -11.182307      -304.2860
  38   2.0000     -11.179838      -304.2189
  39   2.0000     -11.169181      -303.9289
  40   2.0000     -11.164396      -303.7987
  41   2.0000     -11.162801      -303.7553
  42   2.0000     -11.157889      -303.6216
  43   2.0000     -11.156502      -303.5839
  44   2.0000     -11.156018      -303.5707
  45   2.0000     -11.155603      -303.5594
  46   2.0000     -11.153159      -303.4929
  47   2.0000     -11.151974      -303.4606
  48   2.0000     -11.150300      -303.4151
  49   2.0000     -11.144381      -303.2540
  50   2.0000     -11.127708      -302.8003
  51   2.0000     -11.125083      -302.7289
  52   2.0000      -1.351505       -36.7763
  53   2.0000      -1.324459       -36.0404
  54   2.0000      -1.312825       -35.7238
  55   2.0000      -1.296162       -35.2704
  56   2.0000      -1.217758       -33.1369
  57   2.0000      -1.208296       -32.8794
  58   2.0000      -1.167750       -31.7761
  59   2.0000      -1.146610       -31.2009
  60   2.0000      -1.134393       -30.8684
  61   2.0000      -1.112281       -30.2667
  62   2.0000      -1.102129       -29.9905
  63   2.0000      -1.087264       -29.5860
  64   2.0000      -1.073089       -29.2002
  65   2.0000      -1.048304       -28.5258
  66   2.0000      -1.037436       -28.2301
  67   2.0000      -1.033439       -28.1213
  68   2.0000      -1.022015       -27.8104
  69   2.0000      -1.013614       -27.5818
  70   2.0000      -1.005782       -27.3687
  71   2.0000      -0.991065       -26.9682
  72   2.0000      -0.983085       -26.7511
  73   2.0000      -0.975280       -26.5387
  74   2.0000      -0.971146       -26.4262
  75   2.0000      -0.959799       -26.1175
  76   2.0000      -0.950251       -25.8576
  77   2.0000      -0.946619       -25.7588
  78   2.0000      -0.928852       -25.2754
  79   2.0000      -0.920219       -25.0404
  80   2.0000      -0.900471       -24.5031
  81   2.0000      -0.888559       -24.1789
  82   2.0000      -0.875370       -23.8200
  83   2.0000      -0.866329       -23.5740
  84   2.0000      -0.864279       -23.5182
  85   2.0000      -0.853755       -23.2319
  86   2.0000      -0.847859       -23.0714
  87   2.0000      -0.833642       -22.6845
  88   2.0000      -0.822378       -22.3780
  89   2.0000      -0.796570       -21.6758
  90   2.0000      -0.793910       -21.6034
  91   2.0000      -0.746168       -20.3043
  92   2.0000      -0.733536       -19.9605
  93   2.0000      -0.726767       -19.7763
  94   2.0000      -0.722503       -19.6603
  95   2.0000      -0.715953       -19.4821
  96   2.0000      -0.709858       -19.3162
  97   2.0000      -0.705109       -19.1870
  98   2.0000      -0.702075       -19.1044
  99   2.0000      -0.694000       -18.8847
 100   2.0000      -0.692753       -18.8508
 101   2.0000      -0.682231       -18.5645
 102   2.0000      -0.678915       -18.4742
 103   2.0000      -0.677077       -18.4242
 104   2.0000      -0.672649       -18.3037
 105   2.0000      -0.668490       -18.1906
 106   2.0000      -0.664879       -18.0923
 107   2.0000      -0.657586       -17.8938
 108   2.0000      -0.655638       -17.8408
 109   2.0000      -0.653562       -17.7843
 110   2.0000      -0.649473       -17.6731
 111   2.0000      -0.646611       -17.5952
 112   2.0000      -0.640966       -17.4416
 113   2.0000      -0.637877       -17.3575
 114   2.0000      -0.634728       -17.2718
 115   2.0000      -0.631687       -17.1891
 116   2.0000      -0.622481       -16.9386
 117   2.0000      -0.616195       -16.7675
 118   2.0000      -0.614414       -16.7191
 119   2.0000      -0.608908       -16.5692
 120   2.0000      -0.605215       -16.4687
 121   2.0000      -0.604088       -16.4381
 122   2.0000      -0.596575       -16.2336
 123   2.0000      -0.590912       -16.0795
 124   2.0000      -0.590277       -16.0623
 125   2.0000      -0.583813       -15.8864
 126   2.0000      -0.575601       -15.6629
 127   2.0000      -0.572454       -15.5773
 128   2.0000      -0.565170       -15.3791
 129   2.0000      -0.562161       -15.2972
 130   2.0000      -0.557758       -15.1774
 131   2.0000      -0.547874       -14.9084
 132   2.0000      -0.539586       -14.6829
 133   2.0000      -0.538362       -14.6496
 134   2.0000      -0.534067       -14.5327
 135   2.0000      -0.531494       -14.4627
 136   2.0000      -0.522648       -14.2220
 137   2.0000      -0.520290       -14.1578
 138   2.0000      -0.516415       -14.0524
 139   2.0000      -0.513168       -13.9640
 140   2.0000      -0.509731       -13.8705
 141   2.0000      -0.507460       -13.8087
 142   2.0000      -0.502063       -13.6618
 143   2.0000      -0.499496       -13.5920
 144   2.0000      -0.496896       -13.5212
 145   2.0000      -0.495818       -13.4919
 146   2.0000      -0.493308       -13.4236
 147   2.0000      -0.488283       -13.2869
 148   2.0000      -0.484203       -13.1758
 149   2.0000      -0.465088       -12.6557
 150   2.0000      -0.461815       -12.5666
 151   2.0000      -0.454633       -12.3712
 152   2.0000      -0.449052       -12.2193
 153   2.0000      -0.442183       -12.0324
 154   2.0000      -0.440181       -11.9779
 155   2.0000      -0.439005       -11.9459
 156   2.0000      -0.429309       -11.6821
 157   2.0000      -0.422144       -11.4871
 158   2.0000      -0.396754       -10.7962
 159   2.0000      -0.384882       -10.4732
 160   2.0000      -0.379816       -10.3353
 161   2.0000      -0.372853       -10.1458
 162   2.0000      -0.363612        -9.8944
 163   2.0000      -0.358868        -9.7653
 164   2.0000      -0.349549        -9.5117
 165   2.0000      -0.338842        -9.2204
 166   2.0000      -0.336458        -9.1555
 167   2.0000      -0.336130        -9.1466
 168   2.0000      -0.320196        -8.7130
 169   2.0000      -0.299614        -8.1529
 170   2.0000      -0.296246        -8.0613
 171   2.0000      -0.285931        -7.7806
 172   2.0000      -0.284266        -7.7353
 173   2.0000      -0.260207        -7.0806
 174   2.0000      -0.238779        -6.4975
 175   2.0000      -0.185576        -5.0498
 176   2.0000      -0.175282        -4.7697
 177   2.0000      -0.062573        -1.7027
 178   2.0000      -0.052143        -1.4189
 179   0.0000       0.033466         0.9107
 180   0.0000       0.065049         1.7701
 181   0.0000       0.091940         2.5018
 182   0.0000       0.096407         2.6234
 183   0.0000       0.114058         3.1037

MULLIKEN ATOMIC CHARGES
-----------------------
   0 C :    0.219999
   1 N :   -0.427723
   2 C :   -0.067403
   3 N :   -0.341296
   4 C :   -0.083735
   5 N :   -0.563966
   6 C :   -0.035119
   7 N :   -0.337392
   8 C :    0.216548
   9 N :   -0.564624
  10 C :    0.108986
  11 N :   -0.437866
  12 C :   -0.061031
  13 N :   -0.446166
  14 C :    0.225627
  15 N :   -0.440960
  16 C :    0.247337
  17 C :   -0.040968
  18 C :   -0.182003
  19 C :    0.226221
  20 C :    0.198931
  21 C :   -0.067549
  22 C :   -0.086322
  23 C :   -0.058901
  24 C :    0.214517
  25 C :    0.113904
  26 C :   -0.070914
  27 C :    0.236413
  28 C :   -0.044726
  29 C :   -0.191316
  30 C :    0.227164
  31 C :    0.198066
  32 C :   -0.065155
  33 C :   -0.093745
  34 C :   -0.049816
  35 C :    0.189016
  36 C :    0.118040
  37 C :   -0.068625
  38 C :    0.241754
  39 C :   -0.064048
  40 C :   -0.197215
  41 C :    0.217325
  42 C :    0.208577
  43 C :   -0.075706
  44 C :   -0.089482
  45 C :   -0.044746
  46 C :    0.193681
  47 C :    0.116079
  48 C :   -0.079823
  49 C :    0.215751
  50 C :   -0.060303
  51 C :   -0.190279
  52 H :    0.068268
  53 H :   -0.010957
  54 H :    0.056003
  55 H :    0.067073
  56 H :    0.072236
  57 H :    0.066640
  58 H :    0.065374
  59 H :   -0.022208
  60 H :    0.054476
  61 H :    0.174917
  62 H :    0.170322
  63 H :    0.055849
  64 H :   -0.028791
  65 H :    0.044401
  66 H :    0.057377
  67 H :    0.061520
  68 H :    0.057694
  69 H :    0.059767
  70 H :   -0.019407
  71 H :    0.048604
  72 H :    0.045681
  73 H :   -0.017578
  74 H :    0.036932
  75 H :    0.044480
  76 H :    0.053013
  77 H :    0.051258
  78 H :    0.050429
  79 H :   -0.012308
  80 H :    0.036824
  81 H :    0.052210
  82 H :   -0.023521
  83 H :    0.043166
  84 H :    0.051347
  85 H :    0.056701
  86 H :    0.056532
  87 H :    0.055716
  88 H :   -0.027385
  89 H :    0.042332
Sum of atomic charges:    0.0000000

LOEWDIN ATOMIC CHARGES
----------------------
   0 C :    0.017559
   1 N :    0.164404
   2 C :   -0.100838
   3 N :    0.173990
   4 C :    0.073705
   5 N :   -0.143144
   6 C :   -0.013428
   7 N :    0.177487
   8 C :    0.015377
   9 N :   -0.138501
  10 C :    0.034530
  11 N :    0.143881
  12 C :   -0.098307
  13 N :    0.125695
  14 C :   -0.055354
  15 N :    0.137063
  16 C :   -0.030066
  17 C :   -0.016711
  18 C :   -0.114152
  19 C :   -0.088981
  20 C :   -0.007639
  21 C :   -0.100724
  22 C :    0.042210
  23 C :   -0.027314
  24 C :    0.006282
  25 C :    0.030267
  26 C :   -0.099027
  27 C :   -0.073266
  28 C :   -0.016718
  29 C :   -0.112974
  30 C :   -0.057365
  31 C :   -0.014227
  32 C :   -0.100018
  33 C :    0.013813
  34 C :   -0.023418
  35 C :   -0.022187
  36 C :    0.025950
  37 C :   -0.105734
  38 C :   -0.033738
  39 C :   -0.030703
  40 C :   -0.111185
  41 C :   -0.094951
  42 C :   -0.001430
  43 C :   -0.110165
  44 C :    0.032217
  45 C :   -0.017786
  46 C :   -0.014383
  47 C :    0.028802
  48 C :   -0.111668
  49 C :   -0.105190
  50 C :   -0.028266
  51 C :   -0.109404
  52 H :    0.035649
  53 H :    0.005794
  54 H :    0.050124
  55 H :    0.035592
  56 H :    0.033295
  57 H :    0.035090
  58 H :    0.035438
  59 H :    0.001671
  60 H :    0.049467
  61 H :    0.061543
  62 H :    0.059102
  63 H :    0.030397
  64 H :   -0.003072
  65 H :    0.043751
  66 H :    0.030812
  67 H :    0.027957
  68 H :    0.031820
  69 H :    0.031716
  70 H :    0.000255
  71 H :    0.046033
  72 H :    0.025796
  73 H :    0.002552
  74 H :    0.040884
  75 H :    0.024875
  76 H :    0.023492
  77 H :    0.028330
  78 H :    0.027986
  79 H :    0.005208
  80 H :    0.040071
  81 H :    0.028605
  82 H :   -0.001713
  83 H :    0.043989
  84 H :    0.027985
  85 H :    0.025454
  86 H :    0.030486
  87 H :    0.030682
  88 H :   -0.003763
  89 H :    0.042373

  Mayer bond orders larger than 0.100000
B(  0-C ,  1-N ) :   1.1577 B(  0-C , 17-C ) :   1.5777 B(  0-C , 52-H ) :   0.9682
B(  1-N ,  8-C ) :   1.1507 B(  1-N , 10-C ) :   0.9448 B(  2-C , 12-C ) :   1.5565
B(  2-C , 16-C ) :   1.2983 B(  2-C , 53-H ) :   0.9787 B(  3-N , 14-C ) :   1.1866
B(  3-N , 16-C ) :   1.2004 B(  3-N , 61-H ) :   0.8970 B(  4-C ,  6-C ) :   1.3098
B(  4-C , 17-C ) :   1.3138 B(  4-C , 18-C ) :   1.1524 B(  5-N , 19-C ) :   1.3892
B(  5-N , 27-C ) :   1.4294 B(  6-C ,  8-C ) :   1.5826 B(  6-C , 54-H ) :   0.9712
B(  7-N , 30-C ) :   1.1875 B(  7-N , 38-C ) :   1.2098 B(  7-N , 62-H ) :   0.8998
B(  8-C , 55-H ) :   0.9693 B(  9-N , 41-C ) :   1.4211 B(  9-N , 49-C ) :   1.4055
B( 10-C , 56-H ) :   0.9763 B( 10-C , 57-H ) :   0.9817 B( 10-C , 58-H ) :   0.9823
B( 11-N , 20-C ) :   1.1134 B( 11-N , 24-C ) :   1.1333 B( 11-N , 25-C ) :   0.9586
B( 12-C , 14-C ) :   1.2992 B( 12-C , 59-H ) :   0.9779 B( 13-N , 31-C ) :   1.1012
B( 13-N , 35-C ) :   1.0913 B( 13-N , 36-C ) :   0.9721 B( 14-C , 18-C ) :   1.2336
B( 15-N , 42-C ) :   1.1222 B( 15-N , 46-C ) :   1.1027 B( 15-N , 47-C ) :   0.9639
B( 16-C , 51-C ) :   1.2236 B( 17-C , 60-H ) :   0.9713 B( 18-C , 19-C ) :   1.2658
B( 19-C , 21-C ) :   1.1884 B( 20-C , 28-C ) :   1.6224 B( 20-C , 63-H ) :   0.9705
B( 21-C , 26-C ) :   1.6606 B( 21-C , 64-H ) :   0.9735 B( 22-C , 23-C ) :   1.2714
B( 22-C , 28-C ) :   1.2808 B( 22-C , 29-C ) :   1.2401 B( 23-C , 24-C ) :   1.6233
B( 23-C , 65-H ) :   0.9716 B( 24-C , 66-H ) :   0.9689 B( 25-C , 67-H ) :   0.9763
B( 25-C , 68-H ) :   0.9831 B( 25-C , 69-H ) :   0.9819 B( 26-C , 27-C ) :   1.1909
B( 26-C , 70-H ) :   0.9744 B( 27-C , 29-C ) :   1.2339 B( 28-C , 71-H ) :   0.9711
B( 29-C , 30-C ) :   1.1953 B( 30-C , 32-C ) :   1.3307 B( 31-C , 39-C ) :   1.6595
B( 31-C , 72-H ) :   0.9704 B( 32-C , 37-C ) :   1.5281 B( 32-C , 73-H ) :   0.9773
B( 33-C , 34-C ) :   1.2526 B( 33-C , 39-C ) :   1.2444 B( 33-C , 40-C ) :   1.3053
B( 34-C , 35-C ) :   1.6571 B( 34-C , 74-H ) :   0.9707 B( 35-C , 75-H ) :   0.9704
B( 36-C , 76-H ) :   0.9759 B( 36-C , 77-H ) :   0.9824 B( 36-C , 78-H ) :   0.9835
B( 37-C , 38-C ) :   1.3285 B( 37-C , 79-H ) :   0.9786 B( 38-C , 40-C ) :   1.1939
B( 39-C , 80-H ) :   0.9719 B( 40-C , 41-C ) :   1.1908 B( 41-C , 43-C ) :   1.2384
B( 42-C , 50-C ) :   1.6369 B( 42-C , 81-H ) :   0.9696 B( 43-C , 48-C ) :   1.6126
B( 43-C , 82-H ) :   0.9747 B( 44-C , 45-C ) :   1.2766 B( 44-C , 50-C ) :   1.2587
B( 44-C , 51-C ) :   1.2527 B( 45-C , 46-C ) :   1.6319 B( 45-C , 83-H ) :   0.9706
B( 46-C , 84-H ) :   0.9706 B( 47-C , 85-H ) :   0.9761 B( 47-C , 86-H ) :   0.9827
B( 47-C , 87-H ) :   0.9828 B( 48-C , 49-C ) :   1.2350 B( 48-C , 88-H ) :   0.9731
B( 49-C , 51-C ) :   1.2013 B( 50-C , 89-H ) :   0.9718

MP2 TOTAL ENERGY:    -2130.899687720 Eh
FINAL SINGLE POINT ENERGY     -2130.899687720008

DIPOLE MOMENT
-------------
                                X             Y             Z
Electronic contribution:     -2.54887       2.22690      -0.18115
Nuclear contribution   :     -0.01106       0.17686       0.22062
                        -----------------------------------------
Total Dipole Moment    :     -2.55993       2.40376       0.03947
                        -----------------------------------------
Magnitude (a.u.)       :      3.51182
Magnitude (Debye)      :      8.92634

Rotational constants in cm-1:     0.001498     0.001473     0.000763
Rotational constants in MHz :    44.901806    44.159796    22.862219

                             ****ORCA TERMINATED NORMALLY****
TOTAL RUN TIME: 0 days 1 hours 20 minutes 28 seconds 269 msec
