                         Program Version 5.0.4 -  RELEASE  -
|  1> ! PAL2
|  2> ! mp2 cc-pvdz TightSCF  NoKeepInts
|  3>
|  4> %scf
|  5>   MaxCore 2000
|  6> end
|  7> %mp2
|  8>   MaxCore 2000
|  9> end
| 10> * xyz 0 1
| 11>    C       -3.37000         6.24700         0.97800
| 12>    C        1.47400         4.04100         0.05700
| 13>    C       -2.80200         4.09300         0.04900
| 14>    C       -3.86500         4.25800        -0.85200
| 15>    C       -4.63700         5.40200        -0.81200
| 16>    C       -5.20900         7.60500         0.08800
| 17>    C        0.13200         4.30700         0.06100
| 18>    C       -0.56900         3.05600         0.04700
| 19>    C        1.64900         2.61800         0.02300
| 20>    C       -2.56700         5.12300         0.97200
| 21>    N       -4.38800         6.37500         0.09600
| 22>    N        0.38800         2.06700         0.02500
| 23>    N       -2.01000         0.39500        -0.07500
| 24>    N       -0.38800        -2.07400        -0.02700
| 25>    N        2.01000        -0.40100         0.06500
| 26>    C       -1.96000         2.86100         0.02400
| 27>    C       -2.62300         1.61500        -0.01800
| 28>    C       -5.57300        -4.32900         1.06600
| 29>    C       -4.07300         1.47100         0.05600
| 30>    C       -4.10600        -2.75600        -0.02600
| 31>    C       -4.99500        -2.75700        -1.11100
| 32>    C       -6.13200        -3.54200        -1.07600
| 33>    C       -7.65100        -5.11300         0.04000
| 34>    C       -4.32400         0.14100         0.03700
| 35>    C       -3.02500        -0.52000        -0.04800
| 36>    C       -4.42200        -3.56600         1.07500
| 37>    N       -6.40700        -4.31300         0.00100
| 38>    C       -2.86700        -1.92200        -0.04000
| 39>    C       -1.65000        -2.62400        -0.02700
| 40>    C        3.56800        -6.14200        -1.04000
| 41>    C       -1.47600        -4.04900        -0.03400
| 42>    C        2.80300        -4.09900        -0.00800
| 43>    C        3.65700        -4.38400         1.06900
| 44>    C        4.42700        -5.53000         1.05900
| 45>    C        5.24500        -7.58800         0.01400
| 46>    C       -0.13400        -4.31500        -0.02200
| 47>    C        0.56800        -3.06400        -0.02700
| 48>    C        2.77500        -5.01200        -1.07400
| 49>    N        4.37600        -6.39100         0.01700
| 50>    C        1.95900        -2.86900        -0.00900
| 51>    C        2.62100        -1.62200         0.00900
| 52>    C        5.54300         4.33900        -1.13000
| 53>    C        4.07000        -1.47900        -0.09400
| 54>    C        4.10400         2.75100        -0.02100
| 55>    C        5.02700         2.72900         1.03600
| 56>    C        6.16600         3.50900         0.97800
| 57>    C        7.61900         5.15300        -0.11500
| 58>    C        4.32100        -0.14800        -0.09200
| 59>    C        3.02500         0.51400         0.01500
| 60>    C        4.38700         3.58200        -1.11500
| 61>    C        2.86600         1.91600         0.01300
| 62>    N        6.41300         4.29600        -0.09500
| 63>    H       -3.23300         7.06000         1.68000
| 64>    H        2.27400         4.76600         0.08100
| 65>    H       -4.09100         3.50300        -1.59500
| 66>    H       -5.46100         5.57800        -1.49100
| 67>    H       -4.78600         8.31100        -0.63000
| 68>    H       -6.22800         7.34500        -0.19800
| 69>    H       -5.20100         8.03800         1.08800
| 70>    H       -0.33200         5.28200         0.06900
| 71>    H       -1.77000         5.04900         1.70400
| 72>    H        0.18200         1.07200         0.00500
| 73>    H       -0.18300        -1.08000        -0.02100
| 74>    H       -5.86400        -4.96200         1.89500
| 75>    H       -4.79400         2.27200         0.13900
| 76>    H       -4.80000        -2.16000        -1.99400
| 77>    H       -6.84100        -3.58200        -1.89300
| 78>    H       -8.42800        -4.53600         0.54600
| 79>    H       -7.95600        -5.33700        -0.98100
| 80>    H       -7.45600        -6.03700         0.58400
| 81>    H       -5.28700        -0.34400         0.10000
| 82>    H       -3.78000        -3.60100         1.94700
| 83>    H        3.58700        -6.86800        -1.84300
| 84>    H       -2.27600        -4.77400        -0.05000
| 85>    H        3.71400        -3.72400         1.92600
| 86>    H        5.09200        -5.79500         1.87100
| 87>    H        6.20500        -7.32900        -0.43900
| 88>    H        5.39300        -7.91700         1.04200
| 89>    H        4.75900        -8.37300        -0.56400
| 90>    H        0.32900        -5.29000        -0.00800
| 91>    H        2.14600        -4.84200        -1.94000
| 92>    H        5.80800         4.98600        -1.95600
| 93>    H        4.78800        -2.28100        -0.18500
| 94>    H        4.86000         2.11400         1.91200
| 95>    H        6.90100         3.53100         1.77200
| 96>    H        7.38300         6.10900         0.35600
| 97>    H        8.41400         4.65200         0.43500
| 98>    H        7.92100         5.31000        -1.15000
| 99>    H        5.28300         0.33600        -0.17900
|100>    H        3.72000         3.63200        -1.96700
|101> *
|102>
|103>                          ****END OF INPUT****

CARTESIAN COORDINATES (ANGSTROEM)
---------------------------------
  C     -3.370000    6.247000    0.978000
  C      1.474000    4.041000    0.057000
  C     -2.802000    4.093000    0.049000
  C     -3.865000    4.258000   -0.852000
  C     -4.637000    5.402000   -0.812000
  C     -5.209000    7.605000    0.088000
  C      0.132000    4.307000    0.061000
  C     -0.569000    3.056000    0.047000
  C      1.649000    2.618000    0.023000
  C     -2.567000    5.123000    0.972000
  N     -4.388000    6.375000    0.096000
  N      0.388000    2.067000    0.025000
  N     -2.010000    0.395000   -0.075000
  N     -0.388000   -2.074000   -0.027000
  N      2.010000   -0.401000    0.065000
  C     -1.960000    2.861000    0.024000
  C     -2.623000    1.615000   -0.018000
  C     -5.573000   -4.329000    1.066000
  C     -4.073000    1.471000    0.056000
  C     -4.106000   -2.756000   -0.026000
  C     -4.995000   -2.757000   -1.111000
  C     -6.132000   -3.542000   -1.076000
  C     -7.651000   -5.113000    0.040000
  C     -4.324000    0.141000    0.037000
  C     -3.025000   -0.520000   -0.048000
  C     -4.422000   -3.566000    1.075000
  N     -6.407000   -4.313000    0.001000
  C     -2.867000   -1.922000   -0.040000
  C     -1.650000   -2.624000   -0.027000
  C      3.568000   -6.142000   -1.040000
  C     -1.476000   -4.049000   -0.034000
  C      2.803000   -4.099000   -0.008000
  C      3.657000   -4.384000    1.069000
  C      4.427000   -5.530000    1.059000
  C      5.245000   -7.588000    0.014000
  C     -0.134000   -4.315000   -0.022000
  C      0.568000   -3.064000   -0.027000
  C      2.775000   -5.012000   -1.074000
  N      4.376000   -6.391000    0.017000
  C      1.959000   -2.869000   -0.009000
  C      2.621000   -1.622000    0.009000
  C      5.543000    4.339000   -1.130000
  C      4.070000   -1.479000   -0.094000
  C      4.104000    2.751000   -0.021000
  C      5.027000    2.729000    1.036000
  C      6.166000    3.509000    0.978000
  C      7.619000    5.153000   -0.115000
  C      4.321000   -0.148000   -0.092000
  C      3.025000    0.514000    0.015000
  C      4.387000    3.582000   -1.115000
  C      2.866000    1.916000    0.013000
  N      6.413000    4.296000   -0.095000
  H     -3.233000    7.060000    1.680000
  H      2.274000    4.766000    0.081000
  H     -4.091000    3.503000   -1.595000
  H     -5.461000    5.578000   -1.491000
  H     -4.786000    8.311000   -0.630000
  H     -6.228000    7.345000   -0.198000
  H     -5.201000    8.038000    1.088000
  H     -0.332000    5.282000    0.069000
  H     -1.770000    5.049000    1.704000
  H      0.182000    1.072000    0.005000
  H     -0.183000   -1.080000   -0.021000
  H     -5.864000   -4.962000    1.895000
  H     -4.794000    2.272000    0.139000
  H     -4.800000   -2.160000   -1.994000
  H     -6.841000   -3.582000   -1.893000
  H     -8.428000   -4.536000    0.546000
  H     -7.956000   -5.337000   -0.981000
  H     -7.456000   -6.037000    0.584000
  H     -5.287000   -0.344000    0.100000
  H     -3.780000   -3.601000    1.947000
  H      3.587000   -6.868000   -1.843000
  H     -2.276000   -4.774000   -0.050000
  H      3.714000   -3.724000    1.926000
  H      5.092000   -5.795000    1.871000
  H      6.205000   -7.329000   -0.439000
  H      5.393000   -7.917000    1.042000
  H      4.759000   -8.373000   -0.564000
  H      0.329000   -5.290000   -0.008000
  H      2.146000   -4.842000   -1.940000
  H      5.808000    4.986000   -1.956000
  H      4.788000   -2.281000   -0.185000
  H      4.860000    2.114000    1.912000
  H      6.901000    3.531000    1.772000
  H      7.383000    6.109000    0.356000
  H      8.414000    4.652000    0.435000
  H      7.921000    5.310000   -1.150000
  H      5.283000    0.336000   -0.179000
  H      3.720000    3.632000   -1.967000

 Total Charge           Charge          ....    0
 Multiplicity           Mult            ....    1
 Number of Electrons    NEL             ....  358
 Basis Dimension        Dim             ....  918

ORBITAL ENERGIES
----------------

  NO   OCC          E(Eh)            E(eV)
   0   2.0000     -15.656411      -426.0326
   1   2.0000     -15.639004      -425.5589
   2   2.0000     -15.628650      -425.2772
   3   2.0000     -15.604959      -424.6325
   4   2.0000     -15.522357      -422.3848
   5   2.0000     -15.515654      -422.2024
   6   2.0000     -15.448008      -420.3617
   7   2.0000     -15.443738      -420.2455
   8   2.0000     -11.313448      -307.8546
   9   2.0000     -11.310453      -307.7731
  10   2.0000     -11.307998      -307.7063
  11   2.0000     -11.302402      -307.5540
  12   2.0000     -11.296121      -307.3831
  13   2.0000     -11.295766      -307.3734
  14   2.0000     -11.292439      -307.2829
  15   2.0000     -11.287024      -307.1355
  16   2.0000     -11.284682      -307.0718
  17   2.0000     -11.282133      -307.0025
  18   2.0000     -11.268596      -306.6341
  19   2.0000     -11.266754      -306.5840
  20   2.0000     -11.259988      -306.3998
  21   2.0000     -11.246824      -306.0416
  22   2.0000     -11.245920      -306.0170
  23   2.0000     -11.242487      -305.9236
  24   2.0000     -11.234637      -305.7100
  25   2.0000     -11.234058      -305.6943
  26   2.0000     -11.233222      -305.6715
  27   2.0000     -11.226950      -305.5008
  28   2.0000     -11.226751      -305.4954
  29   2.0000     -11.214183      -305.1534
  30   2.0000     -11.209299      -305.0205
  31   2.0000     -11.208962      -305.0114
  32   2.0000     -11.205939      -304.9291
  33   2.0000     -11.204978      -304.9029
  34   2.0000     -11.191375      -304.5328
  35   2.0000     -11.191057      -304.5241
  36   2.0000     -11.180632      -304.2405
  37   2.0000     -11.177899      -304.1661
  38   2.0000     -11.177477      -304.1546
  39   2.0000     -11.173742      -304.0530
  40   2.0000     -11.167560      -303.8847
  41   2.0000     -11.166707      -303.8615
  42   2.0000     -11.166032      -303.8432
  43   2.0000     -11.165205      -303.8207
  44   2.0000     -11.164318      -303.7966
  45   2.0000     -11.162575      -303.7491
  46   2.0000     -11.150505      -303.4207
  47   2.0000     -11.150020      -303.4075
  48   2.0000     -11.147048      -303.3266
  49   2.0000     -11.146504      -303.3118
  50   2.0000     -11.138147      -303.0844
  51   2.0000     -11.133537      -302.9589
  52   2.0000      -1.340448       -36.4754
  53   2.0000      -1.325521       -36.0693
  54   2.0000      -1.316680       -35.8287
  55   2.0000      -1.297194       -35.2984
  56   2.0000      -1.222066       -33.2541
  57   2.0000      -1.211205       -32.9586
  58   2.0000      -1.165393       -31.7119
  59   2.0000      -1.155770       -31.4501
  60   2.0000      -1.126742       -30.6602
  61   2.0000      -1.113666       -30.3044
  62   2.0000      -1.106115       -30.0989
  63   2.0000      -1.090845       -29.6834
  64   2.0000      -1.063530       -28.9401
  65   2.0000      -1.049440       -28.5567
  66   2.0000      -1.041358       -28.3368
  67   2.0000      -1.030984       -28.0545
  68   2.0000      -1.024035       -27.8654
  69   2.0000      -1.012910       -27.5627
  70   2.0000      -1.009379       -27.4666
  71   2.0000      -0.993984       -27.0477
  72   2.0000      -0.986385       -26.8409
  73   2.0000      -0.974621       -26.5208
  74   2.0000      -0.973121       -26.4800
  75   2.0000      -0.958785       -26.0899
  76   2.0000      -0.951064       -25.8798
  77   2.0000      -0.946761       -25.7627
  78   2.0000      -0.937719       -25.5166
  79   2.0000      -0.922262       -25.0960
  80   2.0000      -0.896673       -24.3997
  81   2.0000      -0.887422       -24.1480
  82   2.0000      -0.876306       -23.8455
  83   2.0000      -0.869239       -23.6532
  84   2.0000      -0.863217       -23.4893
  85   2.0000      -0.854735       -23.2585
  86   2.0000      -0.847271       -23.0554
  87   2.0000      -0.840028       -22.8583
  88   2.0000      -0.821926       -22.3658
  89   2.0000      -0.798783       -21.7360
  90   2.0000      -0.796067       -21.6621
  91   2.0000      -0.742010       -20.1911
  92   2.0000      -0.735249       -20.0071
  93   2.0000      -0.731003       -19.8916
  94   2.0000      -0.722622       -19.6636
  95   2.0000      -0.719490       -19.5783
  96   2.0000      -0.713010       -19.4020
  97   2.0000      -0.705277       -19.1916
  98   2.0000      -0.700815       -19.0701
  99   2.0000      -0.695493       -18.9253
 100   2.0000      -0.691233       -18.8094
 101   2.0000      -0.681439       -18.5429
 102   2.0000      -0.678753       -18.4698
 103   2.0000      -0.673952       -18.3392
 104   2.0000      -0.670544       -18.2464
 105   2.0000      -0.668947       -18.2030
 106   2.0000      -0.664090       -18.0708
 107   2.0000      -0.661280       -17.9943
 108   2.0000      -0.657154       -17.8821
 109   2.0000      -0.655501       -17.8371
 110   2.0000      -0.651008       -17.7148
 111   2.0000      -0.648294       -17.6410
 112   2.0000      -0.644136       -17.5278
 113   2.0000      -0.636520       -17.3206
 114   2.0000      -0.633798       -17.2465
 115   2.0000      -0.629071       -17.1179
 116   2.0000      -0.622935       -16.9509
 117   2.0000      -0.616215       -16.7681
 118   2.0000      -0.613016       -16.6810
 119   2.0000      -0.611184       -16.6312
 120   2.0000      -0.608621       -16.5614
 121   2.0000      -0.602171       -16.3859
 122   2.0000      -0.596376       -16.2282
 123   2.0000      -0.592098       -16.1118
 124   2.0000      -0.590245       -16.0614
 125   2.0000      -0.584780       -15.9127
 126   2.0000      -0.578392       -15.7389
 127   2.0000      -0.575803       -15.6684
 128   2.0000      -0.564344       -15.3566
 129   2.0000      -0.558743       -15.2042
 130   2.0000      -0.553985       -15.0747
 131   2.0000      -0.549405       -14.9501
 132   2.0000      -0.542014       -14.7489
 133   2.0000      -0.537678       -14.6310
 134   2.0000      -0.534213       -14.5367
 135   2.0000      -0.530801       -14.4438
 136   2.0000      -0.525515       -14.3000
 137   2.0000      -0.523182       -14.2365
 138   2.0000      -0.517586       -14.0842
 139   2.0000      -0.517437       -14.0802
 140   2.0000      -0.509772       -13.8716
 141   2.0000      -0.508145       -13.8273
 142   2.0000      -0.507607       -13.8127
 143   2.0000      -0.501656       -13.6508
 144   2.0000      -0.500191       -13.6109
 145   2.0000      -0.497728       -13.5439
 146   2.0000      -0.494025       -13.4431
 147   2.0000      -0.489030       -13.3072
 148   2.0000      -0.487997       -13.2791
 149   2.0000      -0.469196       -12.7675
 150   2.0000      -0.462524       -12.5859
 151   2.0000      -0.454359       -12.3637
 152   2.0000      -0.448225       -12.1968
 153   2.0000      -0.446875       -12.1601
 154   2.0000      -0.446151       -12.1404
 155   2.0000      -0.439691       -11.9646
 156   2.0000      -0.434492       -11.8231
 157   2.0000      -0.429869       -11.6973
 158   2.0000      -0.396778       -10.7969
 159   2.0000      -0.384464       -10.4618
 160   2.0000      -0.379258       -10.3201
 161   2.0000      -0.372072       -10.1246
 162   2.0000      -0.370962       -10.0944
 163   2.0000      -0.359889        -9.7931
 164   2.0000      -0.353164        -9.6101
 165   2.0000      -0.337518        -9.1843
 166   2.0000      -0.337133        -9.1739
 167   2.0000      -0.335462        -9.1284
 168   2.0000      -0.328851        -8.9485
 169   2.0000      -0.300474        -8.1763
 170   2.0000      -0.299778        -8.1574
 171   2.0000      -0.287695        -7.8286
 172   2.0000      -0.285689        -7.7740
 173   2.0000      -0.257759        -7.0140
 174   2.0000      -0.246754        -6.7145
 175   2.0000      -0.188990        -5.1427
 176   2.0000      -0.179078        -4.8730
 177   2.0000      -0.069847        -1.9006
 178   2.0000      -0.056309        -1.5323
 179   0.0000       0.029659         0.8071
 180   0.0000       0.069054         1.8791
 181   0.0000       0.092638         2.5208
 182   0.0000       0.102012         2.7759
 183   0.0000       0.121998         3.3197

MULLIKEN ATOMIC CHARGES
-----------------------
   0 C :    0.205343
   1 N :   -0.450232
   2 C :   -0.064286
   3 N :   -0.336377
   4 C :   -0.059542
   5 N :   -0.560790
   6 C :   -0.087112
   7 N :   -0.339257
   8 C :    0.201822
   9 N :   -0.562750
  10 C :    0.117562
  11 N :   -0.437403
  12 C :   -0.075597
  13 N :   -0.434911
  14 C :    0.234062
  15 N :   -0.441151
  16 C :    0.231036
  17 C :   -0.094759
  18 C :   -0.189569
  19 C :    0.221176
  20 C :    0.211970
  21 C :   -0.085377
  22 C :   -0.087307
  23 C :   -0.044330
  24 C :    0.200941
  25 C :    0.113878
  26 C :   -0.073514
  27 C :    0.215883
  28 C :   -0.056551
  29 C :   -0.182086
  30 C :    0.240494
  31 C :    0.220919
  32 C :   -0.063122
  33 C :   -0.071572
  34 C :   -0.049613
  35 C :    0.214783
  36 C :    0.111325
  37 C :   -0.065450
  38 C :    0.235020
  39 C :   -0.060373
  40 C :   -0.184648
  41 C :    0.222124
  42 C :    0.199704
  43 C :   -0.073243
  44 C :   -0.090197
  45 C :   -0.057295
  46 C :    0.206744
  47 C :    0.115675
  48 C :   -0.071384
  49 C :    0.231956
  50 C :   -0.049567
  51 C :   -0.191609
  52 H :    0.046320
  53 H :   -0.015343
  54 H :    0.046310
  55 H :    0.044383
  56 H :    0.052456
  57 H :    0.051559
  58 H :    0.050777
  59 H :   -0.005444
  60 H :    0.047100
  61 H :    0.171683
  62 H :    0.174346
  63 H :    0.057002
  64 H :   -0.011367
  65 H :    0.046862
  66 H :    0.057327
  67 H :    0.063496
  68 H :    0.058135
  69 H :    0.058233
  70 H :   -0.026550
  71 H :    0.047406
  72 H :    0.063603
  73 H :   -0.011074
  74 H :    0.053328
  75 H :    0.062729
  76 H :    0.068207
  77 H :    0.062848
  78 H :    0.062005
  79 H :   -0.014711
  80 H :    0.053754
  81 H :    0.053625
  82 H :   -0.024580
  83 H :    0.041832
  84 H :    0.053082
  85 H :    0.059470
  86 H :    0.055564
  87 H :    0.056700
  88 H :   -0.018334
  89 H :    0.045817
Sum of atomic charges:   -0.0000000

LOEWDIN ATOMIC CHARGES
----------------------
   0 C :   -0.014356
   1 N :    0.122721
   2 C :   -0.100879
   3 N :    0.181064
   4 C :    0.010144
   5 N :   -0.133313
   6 C :   -0.029326
   7 N :    0.176544
   8 C :   -0.017417
   9 N :   -0.139592
  10 C :    0.025448
  11 N :    0.144686
  12 C :   -0.104061
  13 N :    0.153404
  14 C :   -0.038912
  15 N :    0.137900
  16 C :   -0.053183
  17 C :   -0.035086
  18 C :   -0.103029
  19 C :   -0.086624
  20 C :    0.004059
  21 C :   -0.108283
  22 C :    0.041949
  23 C :   -0.017337
  24 C :   -0.005554
  25 C :    0.030452
  26 C :   -0.105881
  27 C :   -0.106572
  28 C :   -0.023579
  29 C :   -0.102449
  30 C :   -0.038803
  31 C :    0.013081
  32 C :   -0.096018
  33 C :    0.060151
  34 C :   -0.016895
  35 C :    0.007900
  36 C :    0.032337
  37 C :   -0.097557
  38 C :   -0.045283
  39 C :   -0.021993
  40 C :   -0.108157
  41 C :   -0.094323
  42 C :   -0.008617
  43 C :   -0.102508
  44 C :    0.032278
  45 C :   -0.025677
  46 C :   -0.002571
  47 C :    0.029212
  48 C :   -0.100728
  49 C :   -0.079574
  50 C :   -0.021014
  51 C :   -0.109379
  52 H :    0.026037
  53 H :    0.003703
  54 H :    0.041423
  55 H :    0.025693
  56 H :    0.023193
  57 H :    0.028055
  58 H :    0.028685
  59 H :    0.006779
  60 H :    0.041225
  61 H :    0.060134
  62 H :    0.061260
  63 H :    0.031391
  64 H :    0.002099
  65 H :    0.045579
  66 H :    0.030226
  67 H :    0.028804
  68 H :    0.032040
  69 H :    0.031133
  70 H :   -0.003138
  71 H :    0.044863
  72 H :    0.034124
  73 H :    0.005636
  74 H :    0.047763
  75 H :    0.033477
  76 H :    0.031310
  77 H :    0.033760
  78 H :    0.033396
  79 H :    0.003899
  80 H :    0.047385
  81 H :    0.028855
  82 H :   -0.002495
  83 H :    0.042706
  84 H :    0.029233
  85 H :    0.026721
  86 H :    0.030147
  87 H :    0.031161
  88 H :    0.000553
  89 H :    0.044382

  Mayer bond orders larger than 0.100000
B(  0-C ,  1-N ) :   1.0997 B(  0-C , 17-C ) :   1.6767 B(  0-C , 52-H ) :   0.9686
B(  1-N ,  8-C ) :   1.0929 B(  1-N , 10-C ) :   0.9723 B(  2-C , 12-C ) :   1.5244
B(  2-C , 16-C ) :   1.3381 B(  2-C , 53-H ) :   0.9772 B(  3-N , 14-C ) :   1.2118
B(  3-N , 16-C ) :   1.1936 B(  3-N , 61-H ) :   0.8991 B(  4-C ,  6-C ) :   1.2314
B(  4-C , 17-C ) :   1.2297 B(  4-C , 18-C ) :   1.3604 B(  5-N , 19-C ) :   1.4387
B(  5-N , 27-C ) :   1.3909 B(  6-C ,  8-C ) :   1.6784 B(  6-C , 54-H ) :   0.9682
B(  7-N , 30-C ) :   1.1934 B(  7-N , 38-C ) :   1.1969 B(  7-N , 62-H ) :   0.8974
B(  8-C , 55-H ) :   0.9700 B(  9-N , 41-C ) :   1.3989 B(  9-N , 49-C ) :   1.4235
B( 10-C , 56-H ) :   0.9764 B( 10-C , 57-H ) :   0.9828 B( 10-C , 58-H ) :   0.9833
B( 11-N , 20-C ) :   1.1297 B( 11-N , 24-C ) :   1.1170 B( 11-N , 25-C ) :   0.9581
B( 12-C , 14-C ) :   1.3413 B( 12-C , 59-H ) :   0.9753 B( 13-N , 31-C ) :   1.1425
B( 13-N , 35-C ) :   1.1359 B( 13-N , 36-C ) :   0.9510 B( 14-C , 18-C ) :   1.1635
B( 15-N , 42-C ) :   1.1105 B( 15-N , 46-C ) :   1.1182 B( 15-N , 47-C ) :   0.9624
B( 16-C , 51-C ) :   1.1860 B( 17-C , 60-H ) :   0.9685 B( 18-C , 19-C ) :   1.1713
B( 19-C , 21-C ) :   1.2283 B( 20-C , 28-C ) :   1.6235 B( 20-C , 63-H ) :   0.9702
B( 21-C , 26-C ) :   1.6299 B( 21-C , 64-H ) :   0.9719 B( 22-C , 23-C ) :   1.2887
B( 22-C , 28-C ) :   1.2715 B( 22-C , 29-C ) :   1.2220 B( 23-C , 24-C ) :   1.6165
B( 23-C , 65-H ) :   0.9707 B( 24-C , 66-H ) :   0.9693 B( 25-C , 67-H ) :   0.9761
B( 25-C , 68-H ) :   0.9828 B( 25-C , 69-H ) :   0.9822 B( 26-C , 27-C ) :   1.2233
B( 26-C , 70-H ) :   0.9722 B( 27-C , 29-C ) :   1.2221 B( 28-C , 71-H ) :   0.9716
B( 29-C , 30-C ) :   1.2287 B( 30-C , 32-C ) :   1.2951 B( 31-C , 39-C ) :   1.6104
B( 31-C , 72-H ) :   0.9689 B( 32-C , 37-C ) :   1.5638 B( 32-C , 73-H ) :   0.9781
B( 33-C , 34-C ) :   1.2915 B( 33-C , 39-C ) :   1.2844 B( 33-C , 40-C ) :   1.2125
B( 34-C , 35-C ) :   1.6070 B( 34-C , 74-H ) :   0.9700 B( 35-C , 75-H ) :   0.9690
B( 36-C , 76-H ) :   0.9765 B( 36-C , 77-H ) :   0.9818 B( 36-C , 78-H ) :   0.9828
B( 37-C , 38-C ) :   1.2979 B( 37-C , 79-H ) :   0.9772 B( 38-C , 40-C ) :   1.2217
B( 39-C , 80-H ) :   0.9711 B( 40-C , 41-C ) :   1.2337 B( 41-C , 43-C ) :   1.2018
B( 42-C , 50-C ) :   1.6348 B( 42-C , 81-H ) :   0.9696 B( 43-C , 48-C ) :   1.6498
B( 43-C , 82-H ) :   0.9729 B( 44-C , 45-C ) :   1.2656 B( 44-C , 50-C ) :   1.2685
B( 44-C , 51-C ) :   1.2612 B( 45-C , 46-C ) :   1.6352 B( 45-C , 83-H ) :   0.9715
B( 46-C , 84-H ) :   0.9702 B( 47-C , 85-H ) :   0.9762 B( 47-C , 86-H ) :   0.9829
B( 47-C , 87-H ) :   0.9825 B( 48-C , 49-C ) :   1.2037 B( 48-C , 88-H ) :   0.9744
B( 49-C , 51-C ) :   1.2266 B( 50-C , 89-H ) :   0.9711

MP2 TOTAL ENERGY:    -2130.915424470 Eh
FINAL SINGLE POINT ENERGY     -2130.915424470356

DIPOLE MOMENT
-------------
                                X             Y             Z
Electronic contribution:      1.05655      -2.66859      -0.05975
Nuclear contribution   :      0.01246       0.19706       0.07086
                        -----------------------------------------
Total Dipole Moment    :      1.06902      -2.47153       0.01112
                        -----------------------------------------
Magnitude (a.u.)       :      2.69284
Magnitude (Debye)      :      6.84465

Rotational constants in cm-1:     0.001500     0.001474     0.000762
Rotational constants in MHz :    44.983323    44.197773    22.831074

                             ****ORCA TERMINATED NORMALLY****
TOTAL RUN TIME: 0 days 1 hours 1 minutes 26 seconds 736 msec
