                         Program Version 5.0.4 -  RELEASE  -
|  1> ! PAL2
|  2> ! mp2 cc-pvdz TightSCF  NoKeepInts
|  3>
|  4> %scf
|  5>   MaxCore 2000
|  6> end
|  7> %mp2
|  8>   MaxCore 2000
|  9> end
| 10> * xyz 0 1
| 11>    C       -3.56300         6.11200         1.13000
| 12>    C        1.47400         4.04100         0.05700
| 13>    C       -2.80200         4.09300         0.04900
| 14>    C       -3.66700         4.39700        -1.01300
| 15>    C       -4.44300         5.53800        -0.97200
| 16>    C       -5.20300         7.60900         0.08800
| 17>    C        0.13200         4.30700         0.06100
| 18>    C       -0.56900         3.05600         0.04700
| 19>    C        1.64900         2.61800         0.02300
| 20>    C       -2.76400         4.98500         1.13200
| 21>    N       -4.38700         6.37500         0.09100
| 22>    N        0.38800         2.06700         0.02500
| 23>    N       -2.01000         0.39500        -0.07500
| 24>    N       -0.38800        -2.07400        -0.02700
| 25>    N        2.01000        -0.40100         0.06500
| 26>    C       -1.96000         2.86100         0.02400
| 27>    C       -2.62300         1.61500        -0.01800
| 28>    C       -5.57300        -4.32900         1.06600
| 29>    C       -4.07300         1.47100         0.05600
| 30>    C       -4.10600        -2.75600        -0.02600
| 31>    C       -4.99500        -2.75700        -1.11100
| 32>    C       -6.13200        -3.54200        -1.07600
| 33>    C       -7.65100        -5.11300         0.04000
| 34>    C       -4.32400         0.14100         0.03700
| 35>    C       -3.02500        -0.52000        -0.04800
| 36>    C       -4.42200        -3.56600         1.07500
| 37>    N       -6.40700        -4.31300         0.00100
| 38>    C       -2.86700        -1.92200        -0.04000
| 39>    C       -1.65000        -2.62400        -0.02700
| 40>    C        3.56800        -6.14200        -1.04000
| 41>    C       -1.47600        -4.04900        -0.03400
| 42>    C        2.80300        -4.09900        -0.00800
| 43>    C        3.65700        -4.38400         1.06900
| 44>    C        4.42700        -5.53000         1.05900
| 45>    C        5.24500        -7.58800         0.01400
| 46>    C       -0.13400        -4.31500        -0.02200
| 47>    C        0.56800        -3.06400        -0.02700
| 48>    C        2.77500        -5.01200        -1.07400
| 49>    N        4.37600        -6.39100         0.01700
| 50>    C        1.95900        -2.86900        -0.00900
| 51>    C        2.62100        -1.62200         0.00900
| 52>    C        5.54300         4.33900        -1.13000
| 53>    C        4.07000        -1.47900        -0.09400
| 54>    C        4.10400         2.75100        -0.02100
| 55>    C        5.02700         2.72900         1.03600
| 56>    C        6.16600         3.50900         0.97800
| 57>    C        7.61900         5.15300        -0.11500
| 58>    C        4.32100        -0.14800        -0.09200
| 59>    C        3.02500         0.51400         0.01500
| 60>    C        4.38700         3.58200        -1.11500
| 61>    C        2.86600         1.91600         0.01300
| 62>    N        6.41300         4.29600        -0.09500
| 63>    H       -3.57600         6.82000         1.94900
| 64>    H        2.27400         4.76600         0.08100
| 65>    H       -3.73400         3.75200        -1.88100
| 66>    H       -5.11800         5.81800        -1.77000
| 67>    H       -4.65200         8.39800        -0.43000
| 68>    H       -6.14300         7.40800        -0.42600
| 69>    H       -5.39700         7.90400         1.11900
| 70>    H       -0.33200         5.28200         0.06900
| 71>    H       -2.12700         4.79900         1.98900
| 72>    H        0.18200         1.07200         0.00500
| 73>    H       -0.18300        -1.08000        -0.02100
| 74>    H       -5.86400        -4.96200         1.89500
| 75>    H       -4.79400         2.27200         0.13900
| 76>    H       -4.80000        -2.16000        -1.99400
| 77>    H       -6.84100        -3.58200        -1.89300
| 78>    H       -8.42800        -4.53600         0.54600
| 79>    H       -7.95600        -5.33700        -0.98100
| 80>    H       -7.45600        -6.03700         0.58400
| 81>    H       -5.28700        -0.34400         0.10000
| 82>    H       -3.78000        -3.60100         1.94700
| 83>    H        3.58700        -6.86800        -1.84300
| 84>    H       -2.27600        -4.77400        -0.05000
| 85>    H        3.71400        -3.72400         1.92600
| 86>    H        5.09200        -5.79500         1.87100
| 87>    H        6.20500        -7.32900        -0.43900
| 88>    H        5.39300        -7.91700         1.04200
| 89>    H        4.75900        -8.37300        -0.56400
| 90>    H        0.32900        -5.29000        -0.00800
| 91>    H        2.14600        -4.84200        -1.94000
| 92>    H        5.80800         4.98600        -1.95600
| 93>    H        4.78800        -2.28100        -0.18500
| 94>    H        4.86000         2.11400         1.91200
| 95>    H        6.90100         3.53100         1.77200
| 96>    H        7.38300         6.10900         0.35600
| 97>    H        8.41400         4.65200         0.43500
| 98>    H        7.92100         5.31000        -1.15000
| 99>    H        5.28300         0.33600        -0.17900
|100>    H        3.72000         3.63200        -1.96700
|101> *
|102>
|103>                          ****END OF INPUT****

CARTESIAN COORDINATES (ANGSTROEM)
---------------------------------
  C     -3.563000    6.112000    1.130000
  C      1.474000    4.041000    0.057000
  C     -2.802000    4.093000    0.049000
  C     -3.667000    4.397000   -1.013000
  C     -4.443000    5.538000   -0.972000
  C     -5.203000    7.609000    0.088000
  C      0.132000    4.307000    0.061000
  C     -0.569000    3.056000    0.047000
  C      1.649000    2.618000    0.023000
  C     -2.764000    4.985000    1.132000
  N     -4.387000    6.375000    0.091000
  N      0.388000    2.067000    0.025000
  N     -2.010000    0.395000   -0.075000
  N     -0.388000   -2.074000   -0.027000
  N      2.010000   -0.401000    0.065000
  C     -1.960000    2.861000    0.024000
  C     -2.623000    1.615000   -0.018000
  C     -5.573000   -4.329000    1.066000
  C     -4.073000    1.471000    0.056000
  C     -4.106000   -2.756000   -0.026000
  C     -4.995000   -2.757000   -1.111000
  C     -6.132000   -3.542000   -1.076000
  C     -7.651000   -5.113000    0.040000
  C     -4.324000    0.141000    0.037000
  C     -3.025000   -0.520000   -0.048000
  C     -4.422000   -3.566000    1.075000
  N     -6.407000   -4.313000    0.001000
  C     -2.867000   -1.922000   -0.040000
  C     -1.650000   -2.624000   -0.027000
  C      3.568000   -6.142000   -1.040000
  C     -1.476000   -4.049000   -0.034000
  C      2.803000   -4.099000   -0.008000
  C      3.657000   -4.384000    1.069000
  C      4.427000   -5.530000    1.059000
  C      5.245000   -7.588000    0.014000
  C     -0.134000   -4.315000   -0.022000
  C      0.568000   -3.064000   -0.027000
  C      2.775000   -5.012000   -1.074000
  N      4.376000   -6.391000    0.017000
  C      1.959000   -2.869000   -0.009000
  C      2.621000   -1.622000    0.009000
  C      5.543000    4.339000   -1.130000
  C      4.070000   -1.479000   -0.094000
  C      4.104000    2.751000   -0.021000
  C      5.027000    2.729000    1.036000
  C      6.166000    3.509000    0.978000
  C      7.619000    5.153000   -0.115000
  C      4.321000   -0.148000   -0.092000
  C      3.025000    0.514000    0.015000
  C      4.387000    3.582000   -1.115000
  C      2.866000    1.916000    0.013000
  N      6.413000    4.296000   -0.095000
  H     -3.576000    6.820000    1.949000
  H      2.274000    4.766000    0.081000
  H     -3.734000    3.752000   -1.881000
  H     -5.118000    5.818000   -1.770000
  H     -4.652000    8.398000   -0.430000
  H     -6.143000    7.408000   -0.426000
  H     -5.397000    7.904000    1.119000
  H     -0.332000    5.282000    0.069000
  H     -2.127000    4.799000    1.989000
  H      0.182000    1.072000    0.005000
  H     -0.183000   -1.080000   -0.021000
  H     -5.864000   -4.962000    1.895000
  H     -4.794000    2.272000    0.139000
  H     -4.800000   -2.160000   -1.994000
  H     -6.841000   -3.582000   -1.893000
  H     -8.428000   -4.536000    0.546000
  H     -7.956000   -5.337000   -0.981000
  H     -7.456000   -6.037000    0.584000
  H     -5.287000   -0.344000    0.100000
  H     -3.780000   -3.601000    1.947000
  H      3.587000   -6.868000   -1.843000
  H     -2.276000   -4.774000   -0.050000
  H      3.714000   -3.724000    1.926000
  H      5.092000   -5.795000    1.871000
  H      6.205000   -7.329000   -0.439000
  H      5.393000   -7.917000    1.042000
  H      4.759000   -8.373000   -0.564000
  H      0.329000   -5.290000   -0.008000
  H      2.146000   -4.842000   -1.940000
  H      5.808000    4.986000   -1.956000
  H      4.788000   -2.281000   -0.185000
  H      4.860000    2.114000    1.912000
  H      6.901000    3.531000    1.772000
  H      7.383000    6.109000    0.356000
  H      8.414000    4.652000    0.435000
  H      7.921000    5.310000   -1.150000
  H      5.283000    0.336000   -0.179000
  H      3.720000    3.632000   -1.967000

 Total Charge           Charge          ....    0
 Multiplicity           Mult            ....    1
 Number of Electrons    NEL             ....  358
 Basis Dimension        Dim             ....  918

ORBITAL ENERGIES
----------------

  NO   OCC          E(Eh)            E(eV)
   0   2.0000     -15.639608      -425.5754
   1   2.0000     -15.632606      -425.3848
   2   2.0000     -15.632303      -425.3766
   3   2.0000     -15.628536      -425.2741
   4   2.0000     -15.517354      -422.2487
   5   2.0000     -15.515674      -422.2029
   6   2.0000     -15.444591      -420.2687
   7   2.0000     -15.442112      -420.2012
   8   2.0000     -11.302738      -307.5631
   9   2.0000     -11.298617      -307.4510
  10   2.0000     -11.298586      -307.4502
  11   2.0000     -11.295811      -307.3746
  12   2.0000     -11.294708      -307.3446
  13   2.0000     -11.294485      -307.3386
  14   2.0000     -11.290448      -307.2287
  15   2.0000     -11.289623      -307.2062
  16   2.0000     -11.288412      -307.1733
  17   2.0000     -11.287663      -307.1529
  18   2.0000     -11.285644      -307.0980
  19   2.0000     -11.285100      -307.0832
  20   2.0000     -11.242925      -305.9355
  21   2.0000     -11.237284      -305.7821
  22   2.0000     -11.237053      -305.7757
  23   2.0000     -11.234604      -305.7091
  24   2.0000     -11.233937      -305.6910
  25   2.0000     -11.232786      -305.6597
  26   2.0000     -11.229588      -305.5726
  27   2.0000     -11.229143      -305.5605
  28   2.0000     -11.228955      -305.5554
  29   2.0000     -11.228728      -305.5492
  30   2.0000     -11.226288      -305.4828
  31   2.0000     -11.226191      -305.4802
  32   2.0000     -11.198384      -304.7235
  33   2.0000     -11.198079      -304.7152
  34   2.0000     -11.195381      -304.6418
  35   2.0000     -11.195039      -304.6325
  36   2.0000     -11.172522      -304.0198
  37   2.0000     -11.172446      -304.0177
  38   2.0000     -11.171213      -303.9842
  39   2.0000     -11.168816      -303.9189
  40   2.0000     -11.168644      -303.9142
  41   2.0000     -11.168499      -303.9103
  42   2.0000     -11.167781      -303.8908
  43   2.0000     -11.165845      -303.8381
  44   2.0000     -11.158089      -303.6270
  45   2.0000     -11.156178      -303.5750
  46   2.0000     -11.154378      -303.5261
  47   2.0000     -11.152925      -303.4865
  48   2.0000     -11.143980      -303.2431
  49   2.0000     -11.142309      -303.1976
  50   2.0000     -11.139827      -303.1301
  51   2.0000     -11.138242      -303.0870
  52   2.0000      -1.325985       -36.0819
  53   2.0000      -1.320060       -35.9207
  54   2.0000      -1.319926       -35.9170
  55   2.0000      -1.316344       -35.8195
  56   2.0000      -1.216087       -33.0914
  57   2.0000      -1.213112       -33.0105
  58   2.0000      -1.161488       -31.6057
  59   2.0000      -1.155832       -31.4518
  60   2.0000      -1.114801       -30.3353
  61   2.0000      -1.109414       -30.1887
  62   2.0000      -1.107983       -30.1498
  63   2.0000      -1.104284       -30.0491
  64   2.0000      -1.049752       -28.5652
  65   2.0000      -1.044465       -28.4213
  66   2.0000      -1.044448       -28.4209
  67   2.0000      -1.040863       -28.3233
  68   2.0000      -1.025876       -27.9155
  69   2.0000      -1.010005       -27.4836
  70   2.0000      -1.008036       -27.4301
  71   2.0000      -0.998934       -27.1824
  72   2.0000      -0.980072       -26.6691
  73   2.0000      -0.976846       -26.5813
  74   2.0000      -0.967253       -26.3203
  75   2.0000      -0.961704       -26.1693
  76   2.0000      -0.952074       -25.9073
  77   2.0000      -0.942979       -25.6598
  78   2.0000      -0.939049       -25.5528
  79   2.0000      -0.923362       -25.1260
  80   2.0000      -0.892006       -24.2727
  81   2.0000      -0.876829       -23.8597
  82   2.0000      -0.872920       -23.7534
  83   2.0000      -0.870334       -23.6830
  84   2.0000      -0.867109       -23.5952
  85   2.0000      -0.856566       -23.3083
  86   2.0000      -0.848157       -23.0795
  87   2.0000      -0.844330       -22.9754
  88   2.0000      -0.821859       -22.3639
  89   2.0000      -0.798199       -21.7201
  90   2.0000      -0.797789       -21.7089
  91   2.0000      -0.738876       -20.1058
  92   2.0000      -0.728124       -19.8132
  93   2.0000      -0.727136       -19.7864
  94   2.0000      -0.721824       -19.6418
  95   2.0000      -0.718786       -19.5591
  96   2.0000      -0.711897       -19.3717
  97   2.0000      -0.710694       -19.3390
  98   2.0000      -0.697820       -18.9887
  99   2.0000      -0.691221       -18.8091
 100   2.0000      -0.683011       -18.5857
 101   2.0000      -0.680462       -18.5163
 102   2.0000      -0.677280       -18.4297
 103   2.0000      -0.674797       -18.3622
 104   2.0000      -0.669643       -18.2219
 105   2.0000      -0.667498       -18.1636
 106   2.0000      -0.662718       -18.0335
 107   2.0000      -0.658362       -17.9150
 108   2.0000      -0.654801       -17.8180
 109   2.0000      -0.654237       -17.8027
 110   2.0000      -0.652347       -17.7513
 111   2.0000      -0.650901       -17.7119
 112   2.0000      -0.649666       -17.6783
 113   2.0000      -0.647365       -17.6157
 114   2.0000      -0.634297       -17.2601
 115   2.0000      -0.623115       -16.9558
 116   2.0000      -0.616552       -16.7772
 117   2.0000      -0.612088       -16.6558
 118   2.0000      -0.611646       -16.6437
 119   2.0000      -0.609362       -16.5816
 120   2.0000      -0.608167       -16.5491
 121   2.0000      -0.607436       -16.5292
 122   2.0000      -0.603132       -16.4121
 123   2.0000      -0.594690       -16.1823
 124   2.0000      -0.585269       -15.9260
 125   2.0000      -0.580888       -15.8068
 126   2.0000      -0.580565       -15.7980
 127   2.0000      -0.578007       -15.7284
 128   2.0000      -0.569031       -15.4841
 129   2.0000      -0.563703       -15.3391
 130   2.0000      -0.553490       -15.0612
 131   2.0000      -0.541511       -14.7353
 132   2.0000      -0.538405       -14.6507
 133   2.0000      -0.536007       -14.5855
 134   2.0000      -0.534822       -14.5532
 135   2.0000      -0.530865       -14.4456
 136   2.0000      -0.524410       -14.2699
 137   2.0000      -0.522949       -14.2302
 138   2.0000      -0.516822       -14.0634
 139   2.0000      -0.512855       -13.9555
 140   2.0000      -0.510601       -13.8942
 141   2.0000      -0.508861       -13.8468
 142   2.0000      -0.502995       -13.6872
 143   2.0000      -0.502722       -13.6798
 144   2.0000      -0.498076       -13.5533
 145   2.0000      -0.497023       -13.5247
 146   2.0000      -0.496509       -13.5107
 147   2.0000      -0.494629       -13.4595
 148   2.0000      -0.490997       -13.3607
 149   2.0000      -0.468254       -12.7419
 150   2.0000      -0.459716       -12.5095
 151   2.0000      -0.450744       -12.2654
 152   2.0000      -0.447113       -12.1666
 153   2.0000      -0.445310       -12.1175
 154   2.0000      -0.445082       -12.1113
 155   2.0000      -0.439704       -11.9650
 156   2.0000      -0.434911       -11.8345
 157   2.0000      -0.431242       -11.7347
 158   2.0000      -0.389201       -10.5907
 159   2.0000      -0.381846       -10.3906
 160   2.0000      -0.377707       -10.2779
 161   2.0000      -0.373829       -10.1724
 162   2.0000      -0.360023        -9.7967
 163   2.0000      -0.355784        -9.6814
 164   2.0000      -0.355463        -9.6727
 165   2.0000      -0.352492        -9.5918
 166   2.0000      -0.337436        -9.1821
 167   2.0000      -0.332067        -9.0360
 168   2.0000      -0.328144        -8.9293
 169   2.0000      -0.300225        -8.1695
 170   2.0000      -0.293181        -7.9779
 171   2.0000      -0.290279        -7.8989
 172   2.0000      -0.287282        -7.8173
 173   2.0000      -0.254678        -6.9301
 174   2.0000      -0.247203        -6.7267
 175   2.0000      -0.187503        -5.1022
 176   2.0000      -0.177245        -4.8231
 177   2.0000      -0.065036        -1.7697
 178   2.0000      -0.054030        -1.4702
 179   0.0000       0.031548         0.8585
 180   0.0000       0.070553         1.9198
 181   0.0000       0.092998         2.5306
 182   0.0000       0.095806         2.6070
 183   0.0000       0.133916         3.6440

MULLIKEN ATOMIC CHARGES
-----------------------
   0 C :    0.208324
   1 N :   -0.440330
   2 C :   -0.065662
   3 N :   -0.338666
   4 C :   -0.079360
   5 N :   -0.562571
   6 C :   -0.055396
   7 N :   -0.338140
   8 C :    0.205519
   9 N :   -0.563166
  10 C :    0.113666
  11 N :   -0.437288
  12 C :   -0.066734
  13 N :   -0.440256
  14 C :    0.233637
  15 N :   -0.440618
  16 C :    0.236979
  17 C :   -0.060939
  18 C :   -0.192478
  19 C :    0.225526
  20 C :    0.207284
  21 C :   -0.074181
  22 C :   -0.085610
  23 C :   -0.050198
  24 C :    0.207464
  25 C :    0.113702
  26 C :   -0.073150
  27 C :    0.224677
  28 C :   -0.051192
  29 C :   -0.186362
  30 C :    0.234792
  31 C :    0.209981
  32 C :   -0.064942
  33 C :   -0.082265
  34 C :   -0.049863
  35 C :    0.202851
  36 C :    0.114444
  37 C :   -0.066682
  38 C :    0.237606
  39 C :   -0.061831
  40 C :   -0.189883
  41 C :    0.220029
  42 C :    0.204014
  43 C :   -0.074028
  44 C :   -0.088722
  45 C :   -0.051905
  46 C :    0.202434
  47 C :    0.115609
  48 C :   -0.075470
  49 C :    0.224727
  50 C :   -0.053584
  51 C :   -0.190166
  52 H :    0.055618
  53 H :   -0.013863
  54 H :    0.045519
  55 H :    0.054083
  56 H :    0.060535
  57 H :    0.057848
  58 H :    0.057116
  59 H :   -0.014690
  60 H :    0.046835
  61 H :    0.172984
  62 H :    0.172632
  63 H :    0.056993
  64 H :   -0.021002
  65 H :    0.046259
  66 H :    0.057799
  67 H :    0.063073
  68 H :    0.058233
  69 H :    0.059207
  70 H :   -0.024085
  71 H :    0.048448
  72 H :    0.055379
  73 H :   -0.014481
  74 H :    0.045787
  75 H :    0.054378
  76 H :    0.061151
  77 H :    0.057492
  78 H :    0.056676
  79 H :   -0.013605
  80 H :    0.046019
  81 H :    0.053602
  82 H :   -0.023839
  83 H :    0.043077
  84 H :    0.053011
  85 H :    0.058827
  86 H :    0.056373
  87 H :    0.056681
  88 H :   -0.022668
  89 H :    0.044973
Sum of atomic charges:   -0.0000000

LOEWDIN ATOMIC CHARGES
----------------------
   0 C :   -0.002048
   1 N :    0.140064
   2 C :   -0.100595
   3 N :    0.177406
   4 C :    0.037477
   5 N :   -0.138395
   6 C :   -0.021607
   7 N :    0.177273
   8 C :   -0.003628
   9 N :   -0.138778
  10 C :    0.029112
  11 N :    0.145158
  12 C :   -0.101394
  13 N :    0.140461
  14 C :   -0.045552
  15 N :    0.138616
  16 C :   -0.044511
  17 C :   -0.024937
  18 C :   -0.108981
  19 C :   -0.087933
  20 C :    0.000101
  21 C :   -0.104329
  22 C :    0.044152
  23 C :   -0.021210
  24 C :    0.000379
  25 C :    0.030542
  26 C :   -0.103757
  27 C :   -0.092259
  28 C :   -0.020266
  29 C :   -0.107727
  30 C :   -0.046908
  31 C :    0.000175
  32 C :   -0.098856
  33 C :    0.038386
  34 C :   -0.019965
  35 C :   -0.005966
  36 C :    0.029370
  37 C :   -0.101095
  38 C :   -0.040637
  39 C :   -0.025824
  40 C :   -0.109037
  41 C :   -0.094393
  42 C :   -0.004816
  43 C :   -0.105588
  44 C :    0.034384
  45 C :   -0.021992
  46 C :   -0.006174
  47 C :    0.029261
  48 C :   -0.105867
  49 C :   -0.091146
  50 C :   -0.023473
  51 C :   -0.108941
  52 H :    0.029982
  53 H :    0.004410
  54 H :    0.044247
  55 H :    0.029780
  56 H :    0.027387
  57 H :    0.030923
  58 H :    0.031545
  59 H :    0.004006
  60 H :    0.044288
  61 H :    0.060642
  62 H :    0.060358
  63 H :    0.031204
  64 H :   -0.000825
  65 H :    0.045025
  66 H :    0.030691
  67 H :    0.028659
  68 H :    0.032080
  69 H :    0.031534
  70 H :   -0.001982
  71 H :    0.045619
  72 H :    0.030270
  73 H :    0.004009
  74 H :    0.044572
  75 H :    0.029518
  76 H :    0.027673
  77 H :    0.031246
  78 H :    0.030900
  79 H :    0.004500
  80 H :    0.044038
  81 H :    0.029007
  82 H :   -0.002012
  83 H :    0.043547
  84 H :    0.029028
  85 H :    0.026456
  86 H :    0.030480
  87 H :    0.031143
  88 H :   -0.001513
  89 H :    0.043832

  Mayer bond orders larger than 0.100000
B(  0-C ,  1-N ) :   1.1212 B(  0-C , 17-C ) :   1.6327 B(  0-C , 52-H ) :   0.9690
B(  1-N ,  8-C ) :   1.1150 B(  1-N , 10-C ) :   0.9610 B(  2-C , 12-C ) :   1.5382
B(  2-C , 16-C ) :   1.3201 B(  2-C , 53-H ) :   0.9779 B(  3-N , 14-C ) :   1.2012
B(  3-N , 16-C ) :   1.1954 B(  3-N , 61-H ) :   0.8983 B(  4-C ,  6-C ) :   1.2696
B(  4-C , 17-C ) :   1.2667 B(  4-C , 18-C ) :   1.2605 B(  5-N , 19-C ) :   1.4161
B(  5-N , 27-C ) :   1.4082 B(  6-C ,  8-C ) :   1.6333 B(  6-C , 54-H ) :   0.9707
B(  7-N , 30-C ) :   1.1918 B(  7-N , 38-C ) :   1.2025 B(  7-N , 62-H ) :   0.8984
B(  8-C , 55-H ) :   0.9703 B(  9-N , 41-C ) :   1.4089 B(  9-N , 49-C ) :   1.4157
B( 10-C , 56-H ) :   0.9762 B( 10-C , 57-H ) :   0.9823 B( 10-C , 58-H ) :   0.9830
B( 11-N , 20-C ) :   1.1241 B( 11-N , 24-C ) :   1.1253 B( 11-N , 25-C ) :   0.9577
B( 12-C , 14-C ) :   1.3220 B( 12-C , 59-H ) :   0.9775 B( 13-N , 31-C ) :   1.1224
B( 13-N , 35-C ) :   1.1146 B( 13-N , 36-C ) :   0.9608 B( 14-C , 18-C ) :   1.1998
B( 15-N , 42-C ) :   1.1167 B( 15-N , 46-C ) :   1.1136 B( 15-N , 47-C ) :   0.9623
B( 16-C , 51-C ) :   1.2038 B( 17-C , 60-H ) :   0.9713 B( 18-C , 19-C ) :   1.2163
B( 19-C , 21-C ) :   1.2115 B( 20-C , 28-C ) :   1.6220 B( 20-C , 63-H ) :   0.9702
B( 21-C , 26-C ) :   1.6418 B( 21-C , 64-H ) :   0.9737 B( 22-C , 23-C ) :   1.2826
B( 22-C , 28-C ) :   1.2764 B( 22-C , 29-C ) :   1.2295 B( 23-C , 24-C ) :   1.6180
B( 23-C , 65-H ) :   0.9710 B( 24-C , 66-H ) :   0.9691 B( 25-C , 67-H ) :   0.9762
B( 25-C , 68-H ) :   0.9829 B( 25-C , 69-H ) :   0.9821 B( 26-C , 27-C ) :   1.2093
B( 26-C , 70-H ) :   0.9733 B( 27-C , 29-C ) :   1.2277 B( 28-C , 71-H ) :   0.9714
B( 29-C , 30-C ) :   1.2123 B( 30-C , 32-C ) :   1.3121 B( 31-C , 39-C ) :   1.6330
B( 31-C , 72-H ) :   0.9697 B( 32-C , 37-C ) :   1.5462 B( 32-C , 73-H ) :   0.9777
B( 33-C , 34-C ) :   1.2734 B( 33-C , 39-C ) :   1.2660 B( 33-C , 40-C ) :   1.2538
B( 34-C , 35-C ) :   1.6300 B( 34-C , 74-H ) :   0.9704 B( 35-C , 75-H ) :   0.9697
B( 36-C , 76-H ) :   0.9762 B( 36-C , 77-H ) :   0.9821 B( 36-C , 78-H ) :   0.9831
B( 37-C , 38-C ) :   1.3133 B( 37-C , 79-H ) :   0.9779 B( 38-C , 40-C ) :   1.2082
B( 39-C , 80-H ) :   0.9715 B( 40-C , 41-C ) :   1.2149 B( 41-C , 43-C ) :   1.2177
B( 42-C , 50-C ) :   1.6336 B( 42-C , 81-H ) :   0.9696 B( 43-C , 48-C ) :   1.6336
B( 43-C , 82-H ) :   0.9737 B( 44-C , 45-C ) :   1.2714 B( 44-C , 50-C ) :   1.2664
B( 44-C , 51-C ) :   1.2551 B( 45-C , 46-C ) :   1.6321 B( 45-C , 83-H ) :   0.9711
B( 46-C , 84-H ) :   0.9703 B( 47-C , 85-H ) :   0.9761 B( 47-C , 86-H ) :   0.9828
B( 47-C , 87-H ) :   0.9826 B( 48-C , 49-C ) :   1.2171 B( 48-C , 88-H ) :   0.9737
B( 49-C , 51-C ) :   1.2155 B( 50-C , 89-H ) :   0.9713

MP2 TOTAL ENERGY:    -2130.913739222 Eh
FINAL SINGLE POINT ENERGY     -2130.913739222423

DIPOLE MOMENT
-------------
                                X             Y             Z
Electronic contribution:     -0.52380      -0.53582      -0.05857
Nuclear contribution   :      0.02704       0.20655       0.07312
                        -----------------------------------------
Total Dipole Moment    :     -0.49676      -0.32927       0.01455
                        -----------------------------------------
Magnitude (a.u.)       :      0.59616
Magnitude (Debye)      :      1.51531

Rotational constants in cm-1:     0.001499     0.001473     0.000762
Rotational constants in MHz :    44.950380    44.156851    22.850708

                             ****ORCA TERMINATED NORMALLY****
TOTAL RUN TIME: 0 days 1 hours 9 minutes 54 seconds 760 msec
