                         Program Version 5.0.4 -  RELEASE  -
|  1> ! PAL2
|  2> ! mp2 cc-pvdz TightSCF  NoKeepInts
|  3>
|  4> %scf
|  5>   MaxCore 2000
|  6> end
|  7> %mp2
|  8>   MaxCore 2000
|  9> end
| 10> * xyz 0 1
| 11>    C       -4.55500         5.47500        -0.86900
| 12>    C        1.47400         4.04100         0.05700
| 13>    C       -2.80200         4.09300         0.04900
| 14>    C       -2.61800         5.07200         1.03700
| 15>    C       -3.40200         6.20800         1.04300
| 16>    C       -5.20100         7.60900         0.15300
| 17>    C        0.13200         4.30700         0.06100
| 18>    C       -0.56900         3.05600         0.04700
| 19>    C        1.64900         2.61800         0.02300
| 20>    C       -3.79900         4.31900        -0.91200
| 21>    N       -4.35200         6.39900         0.09700
| 22>    N        0.38800         2.06700         0.02500
| 23>    N       -2.01000         0.39500        -0.07500
| 24>    N       -0.38800        -2.07400        -0.02700
| 25>    N        2.01000        -0.40100         0.06500
| 26>    C       -1.96000         2.86100         0.02400
| 27>    C       -2.62300         1.61500        -0.01800
| 28>    C       -5.57300        -4.32900         1.06600
| 29>    C       -4.07300         1.47100         0.05600
| 30>    C       -4.10600        -2.75600        -0.02600
| 31>    C       -4.99500        -2.75700        -1.11100
| 32>    C       -6.13200        -3.54200        -1.07600
| 33>    C       -7.65100        -5.11300         0.04000
| 34>    C       -4.32400         0.14100         0.03700
| 35>    C       -3.02500        -0.52000        -0.04800
| 36>    C       -4.42200        -3.56600         1.07500
| 37>    N       -6.40700        -4.31300         0.00100
| 38>    C       -2.86700        -1.92200        -0.04000
| 39>    C       -1.65000        -2.62400        -0.02700
| 40>    C        3.56800        -6.14200        -1.04000
| 41>    C       -1.47600        -4.04900        -0.03400
| 42>    C        2.80300        -4.09900        -0.00800
| 43>    C        3.65700        -4.38400         1.06900
| 44>    C        4.42700        -5.53000         1.05900
| 45>    C        5.24500        -7.58800         0.01400
| 46>    C       -0.13400        -4.31500        -0.02200
| 47>    C        0.56800        -3.06400        -0.02700
| 48>    C        2.77500        -5.01200        -1.07400
| 49>    N        4.37600        -6.39100         0.01700
| 50>    C        1.95900        -2.86900        -0.00900
| 51>    C        2.62100        -1.62200         0.00900
| 52>    C        5.54300         4.33900        -1.13000
| 53>    C        4.07000        -1.47900        -0.09400
| 54>    C        4.10400         2.75100        -0.02100
| 55>    C        5.02700         2.72900         1.03600
| 56>    C        6.16600         3.50900         0.97800
| 57>    C        7.61900         5.15300        -0.11500
| 58>    C        4.32100        -0.14800        -0.09200
| 59>    C        3.02500         0.51400         0.01500
| 60>    C        4.38700         3.58200        -1.11500
| 61>    C        2.86600         1.91600         0.01300
| 62>    N        6.41300         4.29600        -0.09500
| 63>    H       -5.32600         5.69600        -1.59600
| 64>    H        2.27400         4.76600         0.08100
| 65>    H       -1.87100         4.95100         1.81200
| 66>    H       -3.30300         6.98600         1.78900
| 67>    H       -6.04800         7.41900         0.81600
| 68>    H       -4.60600         8.43900         0.53300
| 69>    H       -5.55700         7.83400        -0.85300
| 70>    H       -0.33200         5.28200         0.06900
| 71>    H       -3.98000         3.60700        -1.70900
| 72>    H        0.18200         1.07200         0.00500
| 73>    H       -0.18300        -1.08000        -0.02100
| 74>    H       -5.86400        -4.96200         1.89500
| 75>    H       -4.79400         2.27200         0.13900
| 76>    H       -4.80000        -2.16000        -1.99400
| 77>    H       -6.84100        -3.58200        -1.89300
| 78>    H       -8.42800        -4.53600         0.54600
| 79>    H       -7.95600        -5.33700        -0.98100
| 80>    H       -7.45600        -6.03700         0.58400
| 81>    H       -5.28700        -0.34400         0.10000
| 82>    H       -3.78000        -3.60100         1.94700
| 83>    H        3.58700        -6.86800        -1.84300
| 84>    H       -2.27600        -4.77400        -0.05000
| 85>    H        3.71400        -3.72400         1.92600
| 86>    H        5.09200        -5.79500         1.87100
| 87>    H        6.20500        -7.32900        -0.43900
| 88>    H        5.39300        -7.91700         1.04200
| 89>    H        4.75900        -8.37300        -0.56400
| 90>    H        0.32900        -5.29000        -0.00800
| 91>    H        2.14600        -4.84200        -1.94000
| 92>    H        5.80800         4.98600        -1.95600
| 93>    H        4.78800        -2.28100        -0.18500
| 94>    H        4.86000         2.11400         1.91200
| 95>    H        6.90100         3.53100         1.77200
| 96>    H        7.38300         6.10900         0.35600
| 97>    H        8.41400         4.65200         0.43500
| 98>    H        7.92100         5.31000        -1.15000
| 99>    H        5.28300         0.33600        -0.17900
|100>    H        3.72000         3.63200        -1.96700
|101> *
|102>
|103>                          ****END OF INPUT****

CARTESIAN COORDINATES (ANGSTROEM)
---------------------------------
  C     -4.555000    5.475000   -0.869000
  C      1.474000    4.041000    0.057000
  C     -2.802000    4.093000    0.049000
  C     -2.618000    5.072000    1.037000
  C     -3.402000    6.208000    1.043000
  C     -5.201000    7.609000    0.153000
  C      0.132000    4.307000    0.061000
  C     -0.569000    3.056000    0.047000
  C      1.649000    2.618000    0.023000
  C     -3.799000    4.319000   -0.912000
  N     -4.352000    6.399000    0.097000
  N      0.388000    2.067000    0.025000
  N     -2.010000    0.395000   -0.075000
  N     -0.388000   -2.074000   -0.027000
  N      2.010000   -0.401000    0.065000
  C     -1.960000    2.861000    0.024000
  C     -2.623000    1.615000   -0.018000
  C     -5.573000   -4.329000    1.066000
  C     -4.073000    1.471000    0.056000
  C     -4.106000   -2.756000   -0.026000
  C     -4.995000   -2.757000   -1.111000
  C     -6.132000   -3.542000   -1.076000
  C     -7.651000   -5.113000    0.040000
  C     -4.324000    0.141000    0.037000
  C     -3.025000   -0.520000   -0.048000
  C     -4.422000   -3.566000    1.075000
  N     -6.407000   -4.313000    0.001000
  C     -2.867000   -1.922000   -0.040000
  C     -1.650000   -2.624000   -0.027000
  C      3.568000   -6.142000   -1.040000
  C     -1.476000   -4.049000   -0.034000
  C      2.803000   -4.099000   -0.008000
  C      3.657000   -4.384000    1.069000
  C      4.427000   -5.530000    1.059000
  C      5.245000   -7.588000    0.014000
  C     -0.134000   -4.315000   -0.022000
  C      0.568000   -3.064000   -0.027000
  C      2.775000   -5.012000   -1.074000
  N      4.376000   -6.391000    0.017000
  C      1.959000   -2.869000   -0.009000
  C      2.621000   -1.622000    0.009000
  C      5.543000    4.339000   -1.130000
  C      4.070000   -1.479000   -0.094000
  C      4.104000    2.751000   -0.021000
  C      5.027000    2.729000    1.036000
  C      6.166000    3.509000    0.978000
  C      7.619000    5.153000   -0.115000
  C      4.321000   -0.148000   -0.092000
  C      3.025000    0.514000    0.015000
  C      4.387000    3.582000   -1.115000
  C      2.866000    1.916000    0.013000
  N      6.413000    4.296000   -0.095000
  H     -5.326000    5.696000   -1.596000
  H      2.274000    4.766000    0.081000
  H     -1.871000    4.951000    1.812000
  H     -3.303000    6.986000    1.789000
  H     -6.048000    7.419000    0.816000
  H     -4.606000    8.439000    0.533000
  H     -5.557000    7.834000   -0.853000
  H     -0.332000    5.282000    0.069000
  H     -3.980000    3.607000   -1.709000
  H      0.182000    1.072000    0.005000
  H     -0.183000   -1.080000   -0.021000
  H     -5.864000   -4.962000    1.895000
  H     -4.794000    2.272000    0.139000
  H     -4.800000   -2.160000   -1.994000
  H     -6.841000   -3.582000   -1.893000
  H     -8.428000   -4.536000    0.546000
  H     -7.956000   -5.337000   -0.981000
  H     -7.456000   -6.037000    0.584000
  H     -5.287000   -0.344000    0.100000
  H     -3.780000   -3.601000    1.947000
  H      3.587000   -6.868000   -1.843000
  H     -2.276000   -4.774000   -0.050000
  H      3.714000   -3.724000    1.926000
  H      5.092000   -5.795000    1.871000
  H      6.205000   -7.329000   -0.439000
  H      5.393000   -7.917000    1.042000
  H      4.759000   -8.373000   -0.564000
  H      0.329000   -5.290000   -0.008000
  H      2.146000   -4.842000   -1.940000
  H      5.808000    4.986000   -1.956000
  H      4.788000   -2.281000   -0.185000
  H      4.860000    2.114000    1.912000
  H      6.901000    3.531000    1.772000
  H      7.383000    6.109000    0.356000
  H      8.414000    4.652000    0.435000
  H      7.921000    5.310000   -1.150000
  H      5.283000    0.336000   -0.179000
  H      3.720000    3.632000   -1.967000

 Total Charge           Charge          ....    0
 Multiplicity           Mult            ....    1
 Number of Electrons    NEL             ....  358
 Basis Dimension        Dim             ....  918

ORBITAL ENERGIES
----------------

  NO   OCC          E(Eh)            E(eV)
   0   2.0000     -15.649269      -425.8383
   1   2.0000     -15.639633      -425.5760
   2   2.0000     -15.628481      -425.2726
   3   2.0000     -15.612718      -424.8437
   4   2.0000     -15.520947      -422.3464
   5   2.0000     -15.515573      -422.2002
   6   2.0000     -15.446221      -420.3130
   7   2.0000     -15.443884      -420.2495
   8   2.0000     -11.308998      -307.7335
   9   2.0000     -11.304483      -307.6106
  10   2.0000     -11.302758      -307.5637
  11   2.0000     -11.301885      -307.5399
  12   2.0000     -11.295946      -307.3783
  13   2.0000     -11.295782      -307.3739
  14   2.0000     -11.293442      -307.3102
  15   2.0000     -11.286909      -307.1324
  16   2.0000     -11.286368      -307.1177
  17   2.0000     -11.284817      -307.0755
  18   2.0000     -11.274029      -306.7819
  19   2.0000     -11.273503      -306.7676
  20   2.0000     -11.253190      -306.2149
  21   2.0000     -11.243038      -305.9386
  22   2.0000     -11.241677      -305.9016
  23   2.0000     -11.240788      -305.8774
  24   2.0000     -11.234932      -305.7180
  25   2.0000     -11.234323      -305.7015
  26   2.0000     -11.232952      -305.6642
  27   2.0000     -11.226645      -305.4926
  28   2.0000     -11.226485      -305.4882
  29   2.0000     -11.220672      -305.3300
  30   2.0000     -11.215352      -305.1852
  31   2.0000     -11.214703      -305.1676
  32   2.0000     -11.203773      -304.8702
  33   2.0000     -11.203013      -304.8495
  34   2.0000     -11.192500      -304.5634
  35   2.0000     -11.192074      -304.5518
  36   2.0000     -11.177054      -304.1431
  37   2.0000     -11.174896      -304.0844
  38   2.0000     -11.174725      -304.0797
  39   2.0000     -11.173265      -304.0400
  40   2.0000     -11.167869      -303.8932
  41   2.0000     -11.167269      -303.8769
  42   2.0000     -11.166973      -303.8688
  43   2.0000     -11.164127      -303.7913
  44   2.0000     -11.163927      -303.7859
  45   2.0000     -11.162294      -303.7415
  46   2.0000     -11.151023      -303.4348
  47   2.0000     -11.148523      -303.3667
  48   2.0000     -11.147215      -303.3311
  49   2.0000     -11.144394      -303.2544
  50   2.0000     -11.139840      -303.1304
  51   2.0000     -11.136238      -303.0324
  52   2.0000      -1.334337       -36.3092
  53   2.0000      -1.326031       -36.0831
  54   2.0000      -1.316463       -35.8228
  55   2.0000      -1.303754       -35.4770
  56   2.0000      -1.220291       -33.2058
  57   2.0000      -1.211724       -32.9727
  58   2.0000      -1.163265       -31.6540
  59   2.0000      -1.156599       -31.4727
  60   2.0000      -1.121582       -30.5198
  61   2.0000      -1.113961       -30.3124
  62   2.0000      -1.105735       -30.0886
  63   2.0000      -1.095730       -29.8163
  64   2.0000      -1.057819       -28.7847
  65   2.0000      -1.049873       -28.5685
  66   2.0000      -1.041099       -28.3298
  67   2.0000      -1.029850       -28.0236
  68   2.0000      -1.028686       -27.9920
  69   2.0000      -1.011612       -27.5274
  70   2.0000      -1.009292       -27.4642
  71   2.0000      -0.995783       -27.0966
  72   2.0000      -0.984684       -26.7946
  73   2.0000      -0.974571       -26.5194
  74   2.0000      -0.971631       -26.4394
  75   2.0000      -0.958921       -26.0936
  76   2.0000      -0.952015       -25.9057
  77   2.0000      -0.944751       -25.7080
  78   2.0000      -0.939048       -25.5528
  79   2.0000      -0.922938       -25.1144
  80   2.0000      -0.894534       -24.3415
  81   2.0000      -0.883367       -24.0376
  82   2.0000      -0.876554       -23.8523
  83   2.0000      -0.868679       -23.6380
  84   2.0000      -0.862172       -23.4609
  85   2.0000      -0.856081       -23.2952
  86   2.0000      -0.848709       -23.0945
  87   2.0000      -0.841970       -22.9112
  88   2.0000      -0.821739       -22.3607
  89   2.0000      -0.798704       -21.7338
  90   2.0000      -0.797114       -21.6906
  91   2.0000      -0.740310       -20.1449
  92   2.0000      -0.732561       -19.9340
  93   2.0000      -0.730096       -19.8669
  94   2.0000      -0.721862       -19.6429
  95   2.0000      -0.719544       -19.5798
  96   2.0000      -0.712502       -19.3882
  97   2.0000      -0.706922       -19.2363
  98   2.0000      -0.699560       -19.0360
  99   2.0000      -0.694226       -18.8909
 100   2.0000      -0.687746       -18.7145
 101   2.0000      -0.681201       -18.5364
 102   2.0000      -0.679105       -18.4794
 103   2.0000      -0.673223       -18.3193
 104   2.0000      -0.669432       -18.2162
 105   2.0000      -0.664990       -18.0953
 106   2.0000      -0.664319       -18.0770
 107   2.0000      -0.659797       -17.9540
 108   2.0000      -0.658049       -17.9064
 109   2.0000      -0.657533       -17.8924
 110   2.0000      -0.651767       -17.7355
 111   2.0000      -0.649444       -17.6723
 112   2.0000      -0.645498       -17.5649
 113   2.0000      -0.639784       -17.4094
 114   2.0000      -0.634901       -17.2765
 115   2.0000      -0.623851       -16.9758
 116   2.0000      -0.622766       -16.9463
 117   2.0000      -0.616613       -16.7789
 118   2.0000      -0.611502       -16.6398
 119   2.0000      -0.610035       -16.5999
 120   2.0000      -0.608282       -16.5522
 121   2.0000      -0.603323       -16.4173
 122   2.0000      -0.597487       -16.2585
 123   2.0000      -0.592061       -16.1108
 124   2.0000      -0.591727       -16.1017
 125   2.0000      -0.585255       -15.9256
 126   2.0000      -0.578226       -15.7343
 127   2.0000      -0.574014       -15.6197
 128   2.0000      -0.568263       -15.4632
 129   2.0000      -0.559562       -15.2264
 130   2.0000      -0.553861       -15.0713
 131   2.0000      -0.546972       -14.8839
 132   2.0000      -0.541887       -14.7455
 133   2.0000      -0.536312       -14.5938
 134   2.0000      -0.533959       -14.5298
 135   2.0000      -0.528703       -14.3867
 136   2.0000      -0.525311       -14.2944
 137   2.0000      -0.522274       -14.2118
 138   2.0000      -0.520048       -14.1512
 139   2.0000      -0.517293       -14.0763
 140   2.0000      -0.509462       -13.8632
 141   2.0000      -0.506513       -13.7829
 142   2.0000      -0.505674       -13.7601
 143   2.0000      -0.501136       -13.6366
 144   2.0000      -0.500124       -13.6091
 145   2.0000      -0.498496       -13.5648
 146   2.0000      -0.494912       -13.4672
 147   2.0000      -0.491929       -13.3861
 148   2.0000      -0.489685       -13.3250
 149   2.0000      -0.469281       -12.7698
 150   2.0000      -0.461297       -12.5525
 151   2.0000      -0.452622       -12.3165
 152   2.0000      -0.448466       -12.2034
 153   2.0000      -0.446257       -12.1433
 154   2.0000      -0.445911       -12.1338
 155   2.0000      -0.439087       -11.9482
 156   2.0000      -0.435434       -11.8488
 157   2.0000      -0.431146       -11.7321
 158   2.0000      -0.393650       -10.7118
 159   2.0000      -0.383201       -10.4274
 160   2.0000      -0.379593       -10.3292
 161   2.0000      -0.371924       -10.1206
 162   2.0000      -0.367016        -9.9870
 163   2.0000      -0.360193        -9.8014
 164   2.0000      -0.352861        -9.6018
 165   2.0000      -0.342719        -9.3258
 166   2.0000      -0.337223        -9.1763
 167   2.0000      -0.333699        -9.0804
 168   2.0000      -0.329300        -8.9607
 169   2.0000      -0.300136        -8.1671
 170   2.0000      -0.298209        -8.1147
 171   2.0000      -0.288118        -7.8401
 172   2.0000      -0.286695        -7.8014
 173   2.0000      -0.256054        -6.9676
 174   2.0000      -0.247640        -6.7386
 175   2.0000      -0.188547        -5.1306
 176   2.0000      -0.178516        -4.8577
 177   2.0000      -0.068107        -1.8533
 178   2.0000      -0.055535        -1.5112
 179   0.0000       0.030253         0.8232
 180   0.0000       0.069967         1.9039
 181   0.0000       0.092942         2.5291
 182   0.0000       0.099535         2.7085
 183   0.0000       0.127037         3.4568

MULLIKEN ATOMIC CHARGES
-----------------------
   0 C :    0.204843
   1 N :   -0.447194
   2 C :   -0.064456
   3 N :   -0.336848
   4 C :   -0.066074
   5 N :   -0.561416
   6 C :   -0.079364
   7 N :   -0.338868
   8 C :    0.202563
   9 N :   -0.562853
  10 C :    0.116232
  11 N :   -0.437239
  12 C :   -0.073242
  13 N :   -0.436539
  14 C :    0.235101
  15 N :   -0.441018
  16 C :    0.232488
  17 C :   -0.078998
  18 C :   -0.193251
  19 C :    0.223590
  20 C :    0.210914
  21 C :   -0.080600
  22 C :   -0.086533
  23 C :   -0.045907
  24 C :    0.203019
  25 C :    0.113763
  26 C :   -0.073492
  27 C :    0.218416
  28 C :   -0.054962
  29 C :   -0.183082
  30 C :    0.238741
  31 C :    0.217679
  32 C :   -0.063717
  33 C :   -0.074842
  34 C :   -0.049602
  35 C :    0.211101
  36 C :    0.112264
  37 C :   -0.065825
  38 C :    0.235866
  39 C :   -0.060857
  40 C :   -0.186125
  41 C :    0.221403
  42 C :    0.200803
  43 C :   -0.073483
  44 C :   -0.089799
  45 C :   -0.055776
  46 C :    0.205490
  47 C :    0.115675
  48 C :   -0.072644
  49 C :    0.229802
  50 C :   -0.050661
  51 C :   -0.191147
  52 H :    0.048615
  53 H :   -0.014935
  54 H :    0.046454
  55 H :    0.047693
  56 H :    0.055209
  57 H :    0.053178
  58 H :    0.052494
  59 H :   -0.007960
  60 H :    0.044173
  61 H :    0.172036
  62 H :    0.173879
  63 H :    0.057175
  64 H :   -0.015393
  65 H :    0.046881
  66 H :    0.057647
  67 H :    0.063530
  68 H :    0.058276
  69 H :    0.058622
  70 H :   -0.025903
  71 H :    0.047876
  72 H :    0.061156
  73 H :   -0.012145
  74 H :    0.051085
  75 H :    0.060235
  76 H :    0.066098
  77 H :    0.061242
  78 H :    0.060400
  79 H :   -0.014346
  80 H :    0.051445
  81 H :    0.053565
  82 H :   -0.024383
  83 H :    0.042151
  84 H :    0.053017
  85 H :    0.059228
  86 H :    0.055769
  87 H :    0.056671
  88 H :   -0.019629
  89 H :    0.045553
Sum of atomic charges:   -0.0000000

LOEWDIN ATOMIC CHARGES
----------------------
   0 C :   -0.011767
   1 N :    0.127574
   2 C :   -0.100754
   3 N :    0.179981
   4 C :    0.018298
   5 N :   -0.134981
   6 C :   -0.028549
   7 N :    0.176823
   8 C :   -0.012945
   9 N :   -0.139319
  10 C :    0.026503
  11 N :    0.145123
  12 C :   -0.103109
  13 N :    0.149501
  14 C :   -0.040987
  15 N :    0.138041
  16 C :   -0.050843
  17 C :   -0.029693
  18 C :   -0.105005
  19 C :   -0.086802
  20 C :    0.003256
  21 C :   -0.106693
  22 C :    0.043130
  23 C :   -0.018306
  24 C :   -0.003587
  25 C :    0.030543
  26 C :   -0.105182
  27 C :   -0.102524
  28 C :   -0.022524
  29 C :   -0.103922
  30 C :   -0.041298
  31 C :    0.009258
  32 C :   -0.096890
  33 C :    0.053587
  34 C :   -0.017753
  35 C :    0.003662
  36 C :    0.031446
  37 C :   -0.098623
  38 C :   -0.043781
  39 C :   -0.023160
  40 C :   -0.108357
  41 C :   -0.094496
  42 C :   -0.007662
  43 C :   -0.103441
  44 C :    0.032796
  45 C :   -0.024640
  46 C :   -0.003633
  47 C :    0.029209
  48 C :   -0.102321
  49 C :   -0.082996
  50 C :   -0.021691
  51 C :   -0.109216
  52 H :    0.026931
  53 H :    0.003905
  54 H :    0.042056
  55 H :    0.027100
  56 H :    0.024558
  57 H :    0.028691
  58 H :    0.029582
  59 H :    0.005883
  60 H :    0.041680
  61 H :    0.060263
  62 H :    0.061016
  63 H :    0.031422
  64 H :    0.000836
  65 H :    0.045509
  66 H :    0.030444
  67 H :    0.028841
  68 H :    0.032104
  69 H :    0.031301
  70 H :   -0.002844
  71 H :    0.045156
  72 H :    0.032976
  73 H :    0.005122
  74 H :    0.046816
  75 H :    0.032287
  76 H :    0.030221
  77 H :    0.033006
  78 H :    0.032644
  79 H :    0.004093
  80 H :    0.046381
  81 H :    0.028871
  82 H :   -0.002362
  83 H :    0.042931
  84 H :    0.029155
  85 H :    0.026617
  86 H :    0.030230
  87 H :    0.031144
  88 H :   -0.000063
  89 H :    0.044217

  Mayer bond orders larger than 0.100000
B(  0-C ,  1-N ) :   1.1042 B(  0-C , 17-C ) :   1.6630 B(  0-C , 52-H ) :   0.9691
B(  1-N ,  8-C ) :   1.0999 B(  1-N , 10-C ) :   0.9690 B(  2-C , 12-C ) :   1.5284
B(  2-C , 16-C ) :   1.3329 B(  2-C , 53-H ) :   0.9774 B(  3-N , 14-C ) :   1.2090
B(  3-N , 16-C ) :   1.1940 B(  3-N , 61-H ) :   0.8989 B(  4-C ,  6-C ) :   1.2405
B(  4-C , 17-C ) :   1.2428 B(  4-C , 18-C ) :   1.3303 B(  5-N , 19-C ) :   1.4324
B(  5-N , 27-C ) :   1.3955 B(  6-C ,  8-C ) :   1.6654 B(  6-C , 54-H ) :   0.9697
B(  7-N , 30-C ) :   1.1930 B(  7-N , 38-C ) :   1.1987 B(  7-N , 62-H ) :   0.8977
B(  8-C , 55-H ) :   0.9701 B(  9-N , 41-C ) :   1.4017 B(  9-N , 49-C ) :   1.4214
B( 10-C , 56-H ) :   0.9764 B( 10-C , 57-H ) :   0.9827 B( 10-C , 58-H ) :   0.9832
B( 11-N , 20-C ) :   1.1286 B( 11-N , 24-C ) :   1.1198 B( 11-N , 25-C ) :   0.9578
B( 12-C , 14-C ) :   1.3354 B( 12-C , 59-H ) :   0.9761 B( 13-N , 31-C ) :   1.1364
B( 13-N , 35-C ) :   1.1293 B( 13-N , 36-C ) :   0.9539 B( 14-C , 18-C ) :   1.1747
B( 15-N , 42-C ) :   1.1121 B( 15-N , 46-C ) :   1.1169 B( 15-N , 47-C ) :   0.9624
B( 16-C , 51-C ) :   1.1913 B( 17-C , 60-H ) :   0.9696 B( 18-C , 19-C ) :   1.1856
B( 19-C , 21-C ) :   1.2235 B( 20-C , 28-C ) :   1.6226 B( 20-C , 63-H ) :   0.9702
B( 21-C , 26-C ) :   1.6336 B( 21-C , 64-H ) :   0.9725 B( 22-C , 23-C ) :   1.2875
B( 22-C , 28-C ) :   1.2733 B( 22-C , 29-C ) :   1.2232 B( 23-C , 24-C ) :   1.6163
B( 23-C , 65-H ) :   0.9707 B( 24-C , 66-H ) :   0.9692 B( 25-C , 67-H ) :   0.9761
B( 25-C , 68-H ) :   0.9829 B( 25-C , 69-H ) :   0.9821 B( 26-C , 27-C ) :   1.2187
B( 26-C , 70-H ) :   0.9726 B( 27-C , 29-C ) :   1.2246 B( 28-C , 71-H ) :   0.9715
B( 29-C , 30-C ) :   1.2237 B( 30-C , 32-C ) :   1.3001 B( 31-C , 39-C ) :   1.6172
B( 31-C , 72-H ) :   0.9692 B( 32-C , 37-C ) :   1.5585 B( 32-C , 73-H ) :   0.9780
B( 33-C , 34-C ) :   1.2862 B( 33-C , 39-C ) :   1.2788 B( 33-C , 40-C ) :   1.2245
B( 34-C , 35-C ) :   1.6138 B( 34-C , 74-H ) :   0.9702 B( 35-C , 75-H ) :   0.9692
B( 36-C , 76-H ) :   0.9764 B( 36-C , 77-H ) :   0.9819 B( 36-C , 78-H ) :   0.9829
B( 37-C , 38-C ) :   1.3025 B( 37-C , 79-H ) :   0.9774 B( 38-C , 40-C ) :   1.2177
B( 39-C , 80-H ) :   0.9712 B( 40-C , 41-C ) :   1.2281 B( 41-C , 43-C ) :   1.2066
B( 42-C , 50-C ) :   1.6345 B( 42-C , 81-H ) :   0.9696 B( 43-C , 48-C ) :   1.6448
B( 43-C , 82-H ) :   0.9731 B( 44-C , 45-C ) :   1.2671 B( 44-C , 50-C ) :   1.2679
B( 44-C , 51-C ) :   1.2598 B( 45-C , 46-C ) :   1.6345 B( 45-C , 83-H ) :   0.9714
B( 46-C , 84-H ) :   0.9702 B( 47-C , 85-H ) :   0.9761 B( 47-C , 86-H ) :   0.9829
B( 47-C , 87-H ) :   0.9826 B( 48-C , 49-C ) :   1.2079 B( 48-C , 88-H ) :   0.9742
B( 49-C , 51-C ) :   1.2229 B( 50-C , 89-H ) :   0.9712

MP2 TOTAL ENERGY:    -2130.916101047 Eh
FINAL SINGLE POINT ENERGY     -2130.916101046876

DIPOLE MOMENT
-------------
                                X             Y             Z
Electronic contribution:      0.59386      -2.04014      -0.21279
Nuclear contribution   :      0.00997       0.19169       0.22800
                        -----------------------------------------
Total Dipole Moment    :      0.60384      -1.84845       0.01521
                        -----------------------------------------
Magnitude (a.u.)       :      1.94464
Magnitude (Debye)      :      4.94288

Rotational constants in cm-1:     0.001499     0.001475     0.000762
Rotational constants in MHz :    44.925155    44.226866    22.838865

                             ****ORCA TERMINATED NORMALLY****
TOTAL RUN TIME: 0 days 1 hours 28 minutes 31 seconds 502 msec
