                         Program Version 5.0.4 -  RELEASE  -
|  1> ! PAL2
|  2> ! mp2 cc-pvdz TightSCF  NoKeepInts
|  3>
|  4> %scf
|  5>   MaxCore 2000
|  6> end
|  7> %mp2
|  8>   MaxCore 2000
|  9> end
| 10> * xyz 0 1
| 11>    C       -3.06100         6.48200        -0.17600
| 12>    C        1.47400         4.04100         0.05700
| 13>    C       -2.80200         4.09300         0.04900
| 14>    C       -4.17200         4.02400         0.34700
| 15>    C       -4.93500         5.17500         0.37100
| 16>    C       -5.23000         7.59000         0.11100
| 17>    C        0.13200         4.30700         0.06100
| 18>    C       -0.56900         3.05600         0.04700
| 19>    C        1.64900         2.61800         0.02300
| 20>    C       -2.25700         5.35900        -0.21800
| 21>    N       -4.37700         6.38100         0.11500
| 22>    N        0.38800         2.06700         0.02500
| 23>    N       -2.01000         0.39500        -0.07500
| 24>    N       -0.38800        -2.07400        -0.02700
| 25>    N        2.01000        -0.40100         0.06500
| 26>    C       -1.96000         2.86100         0.02400
| 27>    C       -2.62300         1.61500        -0.01800
| 28>    C       -5.57300        -4.32900         1.06600
| 29>    C       -4.07300         1.47100         0.05600
| 30>    C       -4.10600        -2.75600        -0.02600
| 31>    C       -4.99500        -2.75700        -1.11100
| 32>    C       -6.13200        -3.54200        -1.07600
| 33>    C       -7.65100        -5.11300         0.04000
| 34>    C       -4.32400         0.14100         0.03700
| 35>    C       -3.02500        -0.52000        -0.04800
| 36>    C       -4.42200        -3.56600         1.07500
| 37>    N       -6.40700        -4.31300         0.00100
| 38>    C       -2.86700        -1.92200        -0.04000
| 39>    C       -1.65000        -2.62400        -0.02700
| 40>    C        3.56800        -6.14200        -1.04000
| 41>    C       -1.47600        -4.04900        -0.03400
| 42>    C        2.80300        -4.09900        -0.00800
| 43>    C        3.65700        -4.38400         1.06900
| 44>    C        4.42700        -5.53000         1.05900
| 45>    C        5.24500        -7.58800         0.01400
| 46>    C       -0.13400        -4.31500        -0.02200
| 47>    C        0.56800        -3.06400        -0.02700
| 48>    C        2.77500        -5.01200        -1.07400
| 49>    N        4.37600        -6.39100         0.01700
| 50>    C        1.95900        -2.86900        -0.00900
| 51>    C        2.62100        -1.62200         0.00900
| 52>    C        5.54300         4.33900        -1.13000
| 53>    C        4.07000        -1.47900        -0.09400
| 54>    C        4.10400         2.75100        -0.02100
| 55>    C        5.02700         2.72900         1.03600
| 56>    C        6.16600         3.50900         0.97800
| 57>    C        7.61900         5.15300        -0.11500
| 58>    C        4.32100        -0.14800        -0.09200
| 59>    C        3.02500         0.51400         0.01500
| 60>    C        4.38700         3.58200        -1.11500
| 61>    C        2.86600         1.91600         0.01300
| 62>    N        6.41300         4.29600        -0.09500
| 63>    H       -2.68100         7.47900        -0.36300
| 64>    H        2.27400         4.76600         0.08100
| 65>    H       -4.65200         3.07500         0.55300
| 66>    H       -5.99500         5.17100         0.58700
| 67>    H       -5.68000         7.70500        -0.87800
| 68>    H       -6.00700         7.47400         0.86600
| 69>    H       -4.61100         8.45700         0.34300
| 70>    H       -0.33200         5.28200         0.06900
| 71>    H       -1.20400         5.47900        -0.44100
| 72>    H        0.18200         1.07200         0.00500
| 73>    H       -0.18300        -1.08000        -0.02100
| 74>    H       -5.86400        -4.96200         1.89500
| 75>    H       -4.79400         2.27200         0.13900
| 76>    H       -4.80000        -2.16000        -1.99400
| 77>    H       -6.84100        -3.58200        -1.89300
| 78>    H       -8.42800        -4.53600         0.54600
| 79>    H       -7.95600        -5.33700        -0.98100
| 80>    H       -7.45600        -6.03700         0.58400
| 81>    H       -5.28700        -0.34400         0.10000
| 82>    H       -3.78000        -3.60100         1.94700
| 83>    H        3.58700        -6.86800        -1.84300
| 84>    H       -2.27600        -4.77400        -0.05000
| 85>    H        3.71400        -3.72400         1.92600
| 86>    H        5.09200        -5.79500         1.87100
| 87>    H        6.20500        -7.32900        -0.43900
| 88>    H        5.39300        -7.91700         1.04200
| 89>    H        4.75900        -8.37300        -0.56400
| 90>    H        0.32900        -5.29000        -0.00800
| 91>    H        2.14600        -4.84200        -1.94000
| 92>    H        5.80800         4.98600        -1.95600
| 93>    H        4.78800        -2.28100        -0.18500
| 94>    H        4.86000         2.11400         1.91200
| 95>    H        6.90100         3.53100         1.77200
| 96>    H        7.38300         6.10900         0.35600
| 97>    H        8.41400         4.65200         0.43500
| 98>    H        7.92100         5.31000        -1.15000
| 99>    H        5.28300         0.33600        -0.17900
|100>    H        3.72000         3.63200        -1.96700
|101> *
|102>
|103>                          ****END OF INPUT****

CARTESIAN COORDINATES (ANGSTROEM)
---------------------------------
  C     -3.061000    6.482000   -0.176000
  C      1.474000    4.041000    0.057000
  C     -2.802000    4.093000    0.049000
  C     -4.172000    4.024000    0.347000
  C     -4.935000    5.175000    0.371000
  C     -5.230000    7.590000    0.111000
  C      0.132000    4.307000    0.061000
  C     -0.569000    3.056000    0.047000
  C      1.649000    2.618000    0.023000
  C     -2.257000    5.359000   -0.218000
  N     -4.377000    6.381000    0.115000
  N      0.388000    2.067000    0.025000
  N     -2.010000    0.395000   -0.075000
  N     -0.388000   -2.074000   -0.027000
  N      2.010000   -0.401000    0.065000
  C     -1.960000    2.861000    0.024000
  C     -2.623000    1.615000   -0.018000
  C     -5.573000   -4.329000    1.066000
  C     -4.073000    1.471000    0.056000
  C     -4.106000   -2.756000   -0.026000
  C     -4.995000   -2.757000   -1.111000
  C     -6.132000   -3.542000   -1.076000
  C     -7.651000   -5.113000    0.040000
  C     -4.324000    0.141000    0.037000
  C     -3.025000   -0.520000   -0.048000
  C     -4.422000   -3.566000    1.075000
  N     -6.407000   -4.313000    0.001000
  C     -2.867000   -1.922000   -0.040000
  C     -1.650000   -2.624000   -0.027000
  C      3.568000   -6.142000   -1.040000
  C     -1.476000   -4.049000   -0.034000
  C      2.803000   -4.099000   -0.008000
  C      3.657000   -4.384000    1.069000
  C      4.427000   -5.530000    1.059000
  C      5.245000   -7.588000    0.014000
  C     -0.134000   -4.315000   -0.022000
  C      0.568000   -3.064000   -0.027000
  C      2.775000   -5.012000   -1.074000
  N      4.376000   -6.391000    0.017000
  C      1.959000   -2.869000   -0.009000
  C      2.621000   -1.622000    0.009000
  C      5.543000    4.339000   -1.130000
  C      4.070000   -1.479000   -0.094000
  C      4.104000    2.751000   -0.021000
  C      5.027000    2.729000    1.036000
  C      6.166000    3.509000    0.978000
  C      7.619000    5.153000   -0.115000
  C      4.321000   -0.148000   -0.092000
  C      3.025000    0.514000    0.015000
  C      4.387000    3.582000   -1.115000
  C      2.866000    1.916000    0.013000
  N      6.413000    4.296000   -0.095000
  H     -2.681000    7.479000   -0.363000
  H      2.274000    4.766000    0.081000
  H     -4.652000    3.075000    0.553000
  H     -5.995000    5.171000    0.587000
  H     -5.680000    7.705000   -0.878000
  H     -6.007000    7.474000    0.866000
  H     -4.611000    8.457000    0.343000
  H     -0.332000    5.282000    0.069000
  H     -1.204000    5.479000   -0.441000
  H      0.182000    1.072000    0.005000
  H     -0.183000   -1.080000   -0.021000
  H     -5.864000   -4.962000    1.895000
  H     -4.794000    2.272000    0.139000
  H     -4.800000   -2.160000   -1.994000
  H     -6.841000   -3.582000   -1.893000
  H     -8.428000   -4.536000    0.546000
  H     -7.956000   -5.337000   -0.981000
  H     -7.456000   -6.037000    0.584000
  H     -5.287000   -0.344000    0.100000
  H     -3.780000   -3.601000    1.947000
  H      3.587000   -6.868000   -1.843000
  H     -2.276000   -4.774000   -0.050000
  H      3.714000   -3.724000    1.926000
  H      5.092000   -5.795000    1.871000
  H      6.205000   -7.329000   -0.439000
  H      5.393000   -7.917000    1.042000
  H      4.759000   -8.373000   -0.564000
  H      0.329000   -5.290000   -0.008000
  H      2.146000   -4.842000   -1.940000
  H      5.808000    4.986000   -1.956000
  H      4.788000   -2.281000   -0.185000
  H      4.860000    2.114000    1.912000
  H      6.901000    3.531000    1.772000
  H      7.383000    6.109000    0.356000
  H      8.414000    4.652000    0.435000
  H      7.921000    5.310000   -1.150000
  H      5.283000    0.336000   -0.179000
  H      3.720000    3.632000   -1.967000

 Total Charge           Charge          ....    0
 Multiplicity           Mult            ....    1
 Number of Electrons    NEL             ....  358
 Basis Dimension        Dim             ....  918

ORBITAL ENERGIES
----------------

  NO   OCC          E(Eh)            E(eV)
   0   2.0000     -15.679576      -426.6630
   1   2.0000     -15.632875      -425.3921
   2   2.0000     -15.632839      -425.3912
   3   2.0000     -15.588521      -424.1852
   4   2.0000     -15.524850      -422.4526
   5   2.0000     -15.515633      -422.2018
   6   2.0000     -15.454057      -420.5263
   7   2.0000     -15.439481      -420.1296
   8   2.0000     -11.329115      -308.2809
   9   2.0000     -11.328321      -308.2593
  10   2.0000     -11.327800      -308.2451
  11   2.0000     -11.299011      -307.4617
  12   2.0000     -11.298619      -307.4510
  13   2.0000     -11.292088      -307.2733
  14   2.0000     -11.292055      -307.2724
  15   2.0000     -11.287428      -307.1465
  16   2.0000     -11.285569      -307.0959
  17   2.0000     -11.281835      -306.9943
  18   2.0000     -11.270209      -306.6780
  19   2.0000     -11.263218      -306.4877
  20   2.0000     -11.262217      -306.4605
  21   2.0000     -11.252405      -306.1935
  22   2.0000     -11.248941      -306.0992
  23   2.0000     -11.237598      -305.7906
  24   2.0000     -11.236645      -305.7647
  25   2.0000     -11.230513      -305.5978
  26   2.0000     -11.230360      -305.5936
  27   2.0000     -11.230286      -305.5916
  28   2.0000     -11.229512      -305.5705
  29   2.0000     -11.210599      -305.0559
  30   2.0000     -11.209311      -305.0209
  31   2.0000     -11.194597      -304.6205
  32   2.0000     -11.191418      -304.5340
  33   2.0000     -11.191406      -304.5337
  34   2.0000     -11.188804      -304.4628
  35   2.0000     -11.188398      -304.4518
  36   2.0000     -11.187394      -304.4245
  37   2.0000     -11.177844      -304.1646
  38   2.0000     -11.174363      -304.0699
  39   2.0000     -11.172532      -304.0201
  40   2.0000     -11.171432      -303.9901
  41   2.0000     -11.171374      -303.9885
  42   2.0000     -11.167813      -303.8916
  43   2.0000     -11.162210      -303.7392
  44   2.0000     -11.160298      -303.6872
  45   2.0000     -11.157141      -303.6012
  46   2.0000     -11.156302      -303.5784
  47   2.0000     -11.152476      -303.4743
  48   2.0000     -11.147255      -303.3322
  49   2.0000     -11.135440      -303.0107
  50   2.0000     -11.129131      -302.8390
  51   2.0000     -11.116899      -302.5062
  52   2.0000      -1.360199       -37.0129
  53   2.0000      -1.320509       -35.9329
  54   2.0000      -1.320245       -35.9257
  55   2.0000      -1.281254       -34.8647
  56   2.0000      -1.225874       -33.3577
  57   2.0000      -1.210382       -32.9362
  58   2.0000      -1.173743       -31.9392
  59   2.0000      -1.150468       -31.3058
  60   2.0000      -1.143522       -31.1168
  61   2.0000      -1.110357       -30.2144
  62   2.0000      -1.108786       -30.1716
  63   2.0000      -1.081905       -29.4401
  64   2.0000      -1.077427       -29.3183
  65   2.0000      -1.045116       -28.4390
  66   2.0000      -1.044475       -28.4216
  67   2.0000      -1.041024       -28.3277
  68   2.0000      -1.014913       -27.6172
  69   2.0000      -1.013531       -27.5796
  70   2.0000      -1.009081       -27.4585
  71   2.0000      -0.993255       -27.0278
  72   2.0000      -0.985764       -26.8240
  73   2.0000      -0.981568       -26.7098
  74   2.0000      -0.973048       -26.4780
  75   2.0000      -0.962337       -26.1865
  76   2.0000      -0.954833       -25.9823
  77   2.0000      -0.945891       -25.7390
  78   2.0000      -0.937840       -25.5199
  79   2.0000      -0.917142       -24.9567
  80   2.0000      -0.910366       -24.7723
  81   2.0000      -0.896891       -24.4056
  82   2.0000      -0.876643       -23.8547
  83   2.0000      -0.871617       -23.7179
  84   2.0000      -0.870984       -23.7007
  85   2.0000      -0.860006       -23.4020
  86   2.0000      -0.843871       -22.9629
  87   2.0000      -0.835891       -22.7457
  88   2.0000      -0.827714       -22.5232
  89   2.0000      -0.796673       -21.6786
  90   2.0000      -0.789233       -21.4761
  91   2.0000      -0.764067       -20.7913
  92   2.0000      -0.752732       -20.4829
  93   2.0000      -0.733475       -19.9589
  94   2.0000      -0.726964       -19.7817
  95   2.0000      -0.723904       -19.6984
  96   2.0000      -0.719167       -19.5695
  97   2.0000      -0.716853       -19.5066
  98   2.0000      -0.713091       -19.4042
  99   2.0000      -0.698199       -18.9990
 100   2.0000      -0.697708       -18.9856
 101   2.0000      -0.693263       -18.8646
 102   2.0000      -0.685175       -18.6446
 103   2.0000      -0.684203       -18.6181
 104   2.0000      -0.678621       -18.4662
 105   2.0000      -0.674530       -18.3549
 106   2.0000      -0.672551       -18.3011
 107   2.0000      -0.660656       -17.9774
 108   2.0000      -0.658092       -17.9076
 109   2.0000      -0.652763       -17.7626
 110   2.0000      -0.652034       -17.7428
 111   2.0000      -0.646006       -17.5787
 112   2.0000      -0.645395       -17.5621
 113   2.0000      -0.637577       -17.3494
 114   2.0000      -0.636360       -17.3162
 115   2.0000      -0.628463       -17.1014
 116   2.0000      -0.623062       -16.9544
 117   2.0000      -0.621195       -16.9036
 118   2.0000      -0.612922       -16.6785
 119   2.0000      -0.612267       -16.6606
 120   2.0000      -0.611522       -16.6403
 121   2.0000      -0.611131       -16.6297
 122   2.0000      -0.601476       -16.3670
 123   2.0000      -0.588188       -16.0054
 124   2.0000      -0.581399       -15.8207
 125   2.0000      -0.580854       -15.8058
 126   2.0000      -0.580002       -15.7827
 127   2.0000      -0.571181       -15.5426
 128   2.0000      -0.567871       -15.4526
 129   2.0000      -0.559936       -15.2366
 130   2.0000      -0.554199       -15.0805
 131   2.0000      -0.547847       -14.9077
 132   2.0000      -0.542620       -14.7654
 133   2.0000      -0.540802       -14.7160
 134   2.0000      -0.538221       -14.6457
 135   2.0000      -0.536419       -14.5967
 136   2.0000      -0.531177       -14.4541
 137   2.0000      -0.519077       -14.1248
 138   2.0000      -0.516468       -14.0538
 139   2.0000      -0.514901       -14.0112
 140   2.0000      -0.512418       -13.9436
 141   2.0000      -0.510282       -13.8855
 142   2.0000      -0.508127       -13.8268
 143   2.0000      -0.505029       -13.7425
 144   2.0000      -0.502519       -13.6742
 145   2.0000      -0.495893       -13.4939
 146   2.0000      -0.488786       -13.3006
 147   2.0000      -0.481522       -13.1029
 148   2.0000      -0.477714       -12.9993
 149   2.0000      -0.467687       -12.7264
 150   2.0000      -0.466394       -12.6912
 151   2.0000      -0.456923       -12.4335
 152   2.0000      -0.451793       -12.2939
 153   2.0000      -0.444759       -12.1025
 154   2.0000      -0.438513       -11.9325
 155   2.0000      -0.427459       -11.6317
 156   2.0000      -0.409925       -11.1546
 157   2.0000      -0.401749       -10.9322
 158   2.0000      -0.390519       -10.6266
 159   2.0000      -0.387529       -10.5452
 160   2.0000      -0.378884       -10.3100
 161   2.0000      -0.376635       -10.2488
 162   2.0000      -0.368317       -10.0224
 163   2.0000      -0.356693        -9.7061
 164   2.0000      -0.355758        -9.6807
 165   2.0000      -0.342107        -9.3092
 166   2.0000      -0.337636        -9.1876
 167   2.0000      -0.324488        -8.8298
 168   2.0000      -0.321364        -8.7448
 169   2.0000      -0.305024        -8.3001
 170   2.0000      -0.299500        -8.1498
 171   2.0000      -0.285524        -7.7695
 172   2.0000      -0.278938        -7.5903
 173   2.0000      -0.263888        -7.1808
 174   2.0000      -0.241505        -6.5717
 175   2.0000      -0.189940        -5.1685
 176   2.0000      -0.180976        -4.9246
 177   2.0000      -0.079231        -2.1560
 178   2.0000      -0.059644        -1.6230
 179   0.0000       0.028344         0.7713
 180   0.0000       0.065366         1.7787
 181   0.0000       0.090247         2.4557
 182   0.0000       0.106394         2.8951
 183   0.0000       0.115193         3.1346

MULLIKEN ATOMIC CHARGES
-----------------------
   0 C :    0.217710
   1 N :   -0.454741
   2 C :   -0.072214
   3 N :   -0.340895
   4 C :   -0.064843
   5 N :   -0.567972
   6 C :   -0.104401
   7 N :   -0.340911
   8 C :    0.211304
   9 N :   -0.562107
  10 C :    0.118840
  11 N :   -0.438698
  12 C :   -0.060522
  13 N :   -0.429413
  14 C :    0.222084
  15 N :   -0.440695
  16 C :    0.230767
  17 C :   -0.119044
  18 C :   -0.182588
  19 C :    0.215595
  20 C :    0.213180
  21 C :   -0.060651
  22 C :   -0.091238
  23 C :   -0.039540
  24 C :    0.193120
  25 C :    0.114747
  26 C :   -0.090552
  27 C :    0.216012
  28 C :   -0.061875
  29 C :   -0.181948
  30 C :    0.246179
  31 C :    0.229805
  32 C :   -0.061878
  33 C :   -0.060194
  34 C :   -0.051633
  35 C :    0.228948
  36 C :    0.108232
  37 C :   -0.064247
  38 C :    0.230617
  39 C :   -0.057272
  40 C :   -0.181538
  41 C :    0.226446
  42 C :    0.197697
  43 C :   -0.072290
  44 C :   -0.088963
  45 C :   -0.061544
  46 C :    0.212335
  47 C :    0.115203
  48 C :   -0.066593
  49 C :    0.238915
  50 C :   -0.046143
  51 C :   -0.192654
  52 H :    0.036015
  53 H :   -0.017973
  54 H :    0.044930
  55 H :    0.034409
  56 H :    0.049538
  57 H :    0.047676
  58 H :    0.046806
  59 H :   -0.009116
  60 H :    0.042512
  61 H :    0.171215
  62 H :    0.175404
  63 H :    0.054825
  64 H :   -0.029416
  65 H :    0.046890
  66 H :    0.055231
  67 H :    0.062061
  68 H :    0.056981
  69 H :    0.056060
  70 H :   -0.030521
  71 H :    0.044308
  72 H :    0.071373
  73 H :   -0.007951
  74 H :    0.060440
  75 H :    0.070863
  76 H :    0.074988
  77 H :    0.068053
  78 H :    0.067403
  79 H :   -0.016817
  80 H :    0.061453
  81 H :    0.054757
  82 H :   -0.024710
  83 H :    0.042362
  84 H :    0.054668
  85 H :    0.061294
  86 H :    0.055820
  87 H :    0.057490
  88 H :   -0.014373
  89 H :    0.047114
Sum of atomic charges:   -0.0000000

LOEWDIN ATOMIC CHARGES
----------------------
   0 C :   -0.017966
   1 N :    0.121240
   2 C :   -0.100763
   3 N :    0.182643
   4 C :   -0.011467
   5 N :   -0.134334
   6 C :   -0.020353
   7 N :    0.175069
   8 C :   -0.022714
   9 N :   -0.140551
  10 C :    0.023074
  11 N :    0.141262
  12 C :   -0.108933
  13 N :    0.166326
  14 C :   -0.017765
  15 N :    0.139483
  16 C :   -0.060975
  17 C :   -0.038061
  18 C :   -0.110848
  19 C :   -0.075144
  20 C :    0.004160
  21 C :   -0.107122
  22 C :    0.036238
  23 C :   -0.014623
  24 C :   -0.013319
  25 C :    0.029654
  26 C :   -0.108550
  27 C :   -0.116819
  28 C :   -0.027961
  29 C :   -0.100161
  30 C :   -0.029253
  31 C :    0.024015
  32 C :   -0.094751
  33 C :    0.082094
  34 C :   -0.015414
  35 C :    0.023602
  36 C :    0.035261
  37 C :   -0.093967
  38 C :   -0.053032
  39 C :   -0.017312
  40 C :   -0.108655
  41 C :   -0.090450
  42 C :   -0.009928
  43 C :   -0.099022
  44 C :    0.034729
  45 C :   -0.028045
  46 C :    0.002788
  47 C :    0.029666
  48 C :   -0.094426
  49 C :   -0.069315
  50 C :   -0.018460
  51 C :   -0.108258
  52 H :    0.022603
  53 H :    0.002513
  54 H :    0.000324
  55 H :    0.022027
  56 H :    0.021971
  57 H :    0.026276
  58 H :    0.026830
  59 H :    0.006722
  60 H :    0.013778
  61 H :    0.060175
  62 H :    0.061837
  63 H :    0.030522
  64 H :   -0.001122
  65 H :    0.045810
  66 H :    0.029048
  67 H :    0.028037
  68 H :    0.031510
  69 H :    0.030149
  70 H :   -0.004950
  71 H :    0.043257
  72 H :    0.037724
  73 H :    0.007161
  74 H :    0.050672
  75 H :    0.037466
  76 H :    0.034842
  77 H :    0.036213
  78 H :    0.035917
  79 H :    0.002863
  80 H :    0.050833
  81 H :    0.029252
  82 H :   -0.002664
  83 H :    0.042685
  84 H :    0.030117
  85 H :    0.027597
  86 H :    0.030313
  87 H :    0.031534
  88 H :    0.002442
  89 H :    0.045130

  Mayer bond orders larger than 0.100000
B(  0-C ,  1-N ) :   1.1013 B(  0-C , 17-C ) :   1.7102 B(  0-C , 52-H ) :   0.9633
B(  1-N ,  8-C ) :   1.0892 B(  1-N , 10-C ) :   0.9774 B(  2-C , 12-C ) :   1.4922
B(  2-C , 16-C ) :   1.3695 B(  2-C , 53-H ) :   0.9727 B(  3-N , 14-C ) :   1.2218
B(  3-N , 16-C ) :   1.1812 B(  3-N , 61-H ) :   0.8987 B(  4-C ,  6-C ) :   1.2157
B(  4-C , 17-C ) :   1.2172 B(  4-C , 18-C ) :   1.4704 B(  5-N , 19-C ) :   1.4585
B(  5-N , 27-C ) :   1.3715 B(  6-C ,  8-C ) :   1.7225 B(  6-C , 54-H ) :   0.8829
B(  7-N , 30-C ) :   1.1960 B(  7-N , 38-C ) :   1.1890 B(  7-N , 62-H ) :   0.8968
B(  8-C , 55-H ) :   0.9628 B(  9-N , 41-C ) :   1.3951 B(  9-N , 49-C ) :   1.4243
B( 10-C , 56-H ) :   0.9775 B( 10-C , 57-H ) :   0.9822 B( 10-C , 58-H ) :   0.9841
B( 11-N , 20-C ) :   1.1303 B( 11-N , 24-C ) :   1.1059 B( 11-N , 25-C ) :   0.9607
B( 12-C , 14-C ) :   1.3569 B( 12-C , 59-H ) :   0.9417 B( 13-N , 31-C ) :   1.1610
B( 13-N , 35-C ) :   1.1609 B( 13-N , 36-C ) :   0.9413 B( 14-C , 18-C ) :   1.1205
B( 15-N , 42-C ) :   1.1085 B( 15-N , 46-C ) :   1.1255 B( 15-N , 47-C ) :   0.9608
B( 16-C , 51-C ) :   1.1685 B( 17-C , 60-H ) :   0.9090 B( 18-C , 19-C ) :   1.1188
B( 19-C , 21-C ) :   1.2537 B( 20-C , 28-C ) :   1.6298 B( 20-C , 63-H ) :   0.9703
B( 21-C , 26-C ) :   1.5794 B( 21-C , 64-H ) :   0.9169 B( 22-C , 23-C ) :   1.2883
B( 22-C , 28-C ) :   1.2628 B( 22-C , 29-C ) :   1.2278 B( 23-C , 24-C ) :   1.6214
B( 23-C , 65-H ) :   0.9703 B( 24-C , 66-H ) :   0.9696 B( 25-C , 67-H ) :   0.9761
B( 25-C , 68-H ) :   0.9828 B( 25-C , 69-H ) :   0.9824 B( 26-C , 27-C ) :   1.2622
B( 26-C , 70-H ) :   0.9676 B( 27-C , 29-C ) :   1.2048 B( 28-C , 71-H ) :   0.9720
B( 29-C , 30-C ) :   1.2464 B( 30-C , 32-C ) :   1.2793 B( 31-C , 39-C ) :   1.5876
B( 31-C , 72-H ) :   0.9681 B( 32-C , 37-C ) :   1.5792 B( 32-C , 73-H ) :   0.9787
B( 33-C , 34-C ) :   1.3065 B( 33-C , 39-C ) :   1.3046 B( 33-C , 40-C ) :   1.1764
B( 34-C , 35-C ) :   1.5855 B( 34-C , 74-H ) :   0.9696 B( 35-C , 75-H ) :   0.9681
B( 36-C , 76-H ) :   0.9768 B( 36-C , 77-H ) :   0.9816 B( 36-C , 78-H ) :   0.9823
B( 37-C , 38-C ) :   1.2857 B( 37-C , 79-H ) :   0.9764 B( 38-C , 40-C ) :   1.2335
B( 39-C , 80-H ) :   0.9705 B( 40-C , 41-C ) :   1.2508 B( 41-C , 43-C ) :   1.1835
B( 42-C , 50-C ) :   1.6318 B( 42-C , 81-H ) :   0.9696 B( 43-C , 48-C ) :   1.6696
B( 43-C , 82-H ) :   0.9721 B( 44-C , 45-C ) :   1.2644 B( 44-C , 50-C ) :   1.2736
B( 44-C , 51-C ) :   1.2584 B( 45-C , 46-C ) :   1.6334 B( 45-C , 83-H ) :   0.9718
B( 46-C , 84-H ) :   0.9699 B( 47-C , 85-H ) :   0.9762 B( 47-C , 86-H ) :   0.9829
B( 47-C , 87-H ) :   0.9824 B( 48-C , 49-C ) :   1.1869 B( 48-C , 88-H ) :   0.9748
B( 49-C , 51-C ) :   1.2459 B( 50-C , 89-H ) :   0.9708

MP2 TOTAL ENERGY:    -2130.793712178 Eh
FINAL SINGLE POINT ENERGY     -2130.793712177520

DIPOLE MOMENT
-------------
                                X             Y             Z
Electronic contribution:      2.94110      -4.20886      -0.09898
Nuclear contribution   :     -0.04427       0.15688       0.11493
                        -----------------------------------------
Total Dipole Moment    :      2.89683      -4.05198       0.01595
                        -----------------------------------------
Magnitude (a.u.)       :      4.98100
Magnitude (Debye)      :     12.66071

Rotational constants in cm-1:     0.001503     0.001478     0.000760
Rotational constants in MHz :    45.062305    44.295666    22.785055

                             ****ORCA TERMINATED NORMALLY****
TOTAL RUN TIME: 0 days 1 hours 10 minutes 53 seconds 814 msec
