                         Program Version 5.0.4 -  RELEASE  -
|  1> ! PAL2
|  2> ! mp2 cc-pvdz TightSCF  NoKeepInts
|  3>
|  4> %scf
|  5>   MaxCore 2000
|  6> end
|  7> %mp2
|  8>   MaxCore 2000
|  9> end
| 10> * xyz 0 1
| 11>    C       -3.74400         6.03200        -1.03600
| 12>    C        1.47400         4.04100         0.05700
| 13>    C       -2.80200         4.09300         0.04900
| 14>    C       -3.45500         4.49600         1.22400
| 15>    C       -4.22600         5.64200         1.23100
| 16>    C       -5.22300         7.59400         0.14300
| 17>    C        0.13200         4.30700         0.06100
| 18>    C       -0.56900         3.05600         0.04700
| 19>    C        1.64900         2.61800         0.02300
| 20>    C       -2.96700         4.89200        -1.09300
| 21>    N       -4.35900         6.39400         0.11300
| 22>    N        0.38800         2.06700         0.02500
| 23>    N       -2.01000         0.39500        -0.07500
| 24>    N       -0.38800        -2.07400        -0.02700
| 25>    N        2.01000        -0.40100         0.06500
| 26>    C       -1.96000         2.86100         0.02400
| 27>    C       -2.62300         1.61500        -0.01800
| 28>    C       -5.57300        -4.32900         1.06600
| 29>    C       -4.07300         1.47100         0.05600
| 30>    C       -4.10600        -2.75600        -0.02600
| 31>    C       -4.99500        -2.75700        -1.11100
| 32>    C       -6.13200        -3.54200        -1.07600
| 33>    C       -7.65100        -5.11300         0.04000
| 34>    C       -4.32400         0.14100         0.03700
| 35>    C       -3.02500        -0.52000        -0.04800
| 36>    C       -4.42200        -3.56600         1.07500
| 37>    N       -6.40700        -4.31300         0.00100
| 38>    C       -2.86700        -1.92200        -0.04000
| 39>    C       -1.65000        -2.62400        -0.02700
| 40>    C        3.56800        -6.14200        -1.04000
| 41>    C       -1.47600        -4.04900        -0.03400
| 42>    C        2.80300        -4.09900        -0.00800
| 43>    C        3.65700        -4.38400         1.06900
| 44>    C        4.42700        -5.53000         1.05900
| 45>    C        5.24500        -7.58800         0.01400
| 46>    C       -0.13400        -4.31500        -0.02200
| 47>    C        0.56800        -3.06400        -0.02700
| 48>    C        2.77500        -5.01200        -1.07400
| 49>    N        4.37600        -6.39100         0.01700
| 50>    C        1.95900        -2.86900        -0.00900
| 51>    C        2.62100        -1.62200         0.00900
| 52>    C        5.54300         4.33900        -1.13000
| 53>    C        4.07000        -1.47900        -0.09400
| 54>    C        4.10400         2.75100        -0.02100
| 55>    C        5.02700         2.72900         1.03600
| 56>    C        6.16600         3.50900         0.97800
| 57>    C        7.61900         5.15300        -0.11500
| 58>    C        4.32100        -0.14800        -0.09200
| 59>    C        3.02500         0.51400         0.01500
| 60>    C        4.38700         3.58200        -1.11500
| 61>    C        2.86600         1.91600         0.01300
| 62>    N        6.41300         4.29600        -0.09500
| 63>    H       -3.88900         6.68500        -1.88800
| 64>    H        2.27400         4.76600         0.08100
| 65>    H       -3.37400         3.91700         2.13500
| 66>    H       -4.75500         5.98700         2.10900
| 67>    H       -6.25400         7.29600        -0.06100
| 68>    H       -5.15300         8.05300         1.12900
| 69>    H       -4.87800         8.29300        -0.61900
| 70>    H       -0.33200         5.28200         0.06900
| 71>    H       -2.47700         4.64100        -2.02700
| 72>    H        0.18200         1.07200         0.00500
| 73>    H       -0.18300        -1.08000        -0.02100
| 74>    H       -5.86400        -4.96200         1.89500
| 75>    H       -4.79400         2.27200         0.13900
| 76>    H       -4.80000        -2.16000        -1.99400
| 77>    H       -6.84100        -3.58200        -1.89300
| 78>    H       -8.42800        -4.53600         0.54600
| 79>    H       -7.95600        -5.33700        -0.98100
| 80>    H       -7.45600        -6.03700         0.58400
| 81>    H       -5.28700        -0.34400         0.10000
| 82>    H       -3.78000        -3.60100         1.94700
| 83>    H        3.58700        -6.86800        -1.84300
| 84>    H       -2.27600        -4.77400        -0.05000
| 85>    H        3.71400        -3.72400         1.92600
| 86>    H        5.09200        -5.79500         1.87100
| 87>    H        6.20500        -7.32900        -0.43900
| 88>    H        5.39300        -7.91700         1.04200
| 89>    H        4.75900        -8.37300        -0.56400
| 90>    H        0.32900        -5.29000        -0.00800
| 91>    H        2.14600        -4.84200        -1.94000
| 92>    H        5.80800         4.98600        -1.95600
| 93>    H        4.78800        -2.28100        -0.18500
| 94>    H        4.86000         2.11400         1.91200
| 95>    H        6.90100         3.53100         1.77200
| 96>    H        7.38300         6.10900         0.35600
| 97>    H        8.41400         4.65200         0.43500
| 98>    H        7.92100         5.31000        -1.15000
| 99>    H        5.28300         0.33600        -0.17900
|100>    H        3.72000         3.63200        -1.96700
|101> *
|102>
|103>                          ****END OF INPUT****

CARTESIAN COORDINATES (ANGSTROEM)
---------------------------------
  C     -3.744000    6.032000   -1.036000
  C      1.474000    4.041000    0.057000
  C     -2.802000    4.093000    0.049000
  C     -3.455000    4.496000    1.224000
  C     -4.226000    5.642000    1.231000
  C     -5.223000    7.594000    0.143000
  C      0.132000    4.307000    0.061000
  C     -0.569000    3.056000    0.047000
  C      1.649000    2.618000    0.023000
  C     -2.967000    4.892000   -1.093000
  N     -4.359000    6.394000    0.113000
  N      0.388000    2.067000    0.025000
  N     -2.010000    0.395000   -0.075000
  N     -0.388000   -2.074000   -0.027000
  N      2.010000   -0.401000    0.065000
  C     -1.960000    2.861000    0.024000
  C     -2.623000    1.615000   -0.018000
  C     -5.573000   -4.329000    1.066000
  C     -4.073000    1.471000    0.056000
  C     -4.106000   -2.756000   -0.026000
  C     -4.995000   -2.757000   -1.111000
  C     -6.132000   -3.542000   -1.076000
  C     -7.651000   -5.113000    0.040000
  C     -4.324000    0.141000    0.037000
  C     -3.025000   -0.520000   -0.048000
  C     -4.422000   -3.566000    1.075000
  N     -6.407000   -4.313000    0.001000
  C     -2.867000   -1.922000   -0.040000
  C     -1.650000   -2.624000   -0.027000
  C      3.568000   -6.142000   -1.040000
  C     -1.476000   -4.049000   -0.034000
  C      2.803000   -4.099000   -0.008000
  C      3.657000   -4.384000    1.069000
  C      4.427000   -5.530000    1.059000
  C      5.245000   -7.588000    0.014000
  C     -0.134000   -4.315000   -0.022000
  C      0.568000   -3.064000   -0.027000
  C      2.775000   -5.012000   -1.074000
  N      4.376000   -6.391000    0.017000
  C      1.959000   -2.869000   -0.009000
  C      2.621000   -1.622000    0.009000
  C      5.543000    4.339000   -1.130000
  C      4.070000   -1.479000   -0.094000
  C      4.104000    2.751000   -0.021000
  C      5.027000    2.729000    1.036000
  C      6.166000    3.509000    0.978000
  C      7.619000    5.153000   -0.115000
  C      4.321000   -0.148000   -0.092000
  C      3.025000    0.514000    0.015000
  C      4.387000    3.582000   -1.115000
  C      2.866000    1.916000    0.013000
  N      6.413000    4.296000   -0.095000
  H     -3.889000    6.685000   -1.888000
  H      2.274000    4.766000    0.081000
  H     -3.374000    3.917000    2.135000
  H     -4.755000    5.987000    2.109000
  H     -6.254000    7.296000   -0.061000
  H     -5.153000    8.053000    1.129000
  H     -4.878000    8.293000   -0.619000
  H     -0.332000    5.282000    0.069000
  H     -2.477000    4.641000   -2.027000
  H      0.182000    1.072000    0.005000
  H     -0.183000   -1.080000   -0.021000
  H     -5.864000   -4.962000    1.895000
  H     -4.794000    2.272000    0.139000
  H     -4.800000   -2.160000   -1.994000
  H     -6.841000   -3.582000   -1.893000
  H     -8.428000   -4.536000    0.546000
  H     -7.956000   -5.337000   -0.981000
  H     -7.456000   -6.037000    0.584000
  H     -5.287000   -0.344000    0.100000
  H     -3.780000   -3.601000    1.947000
  H      3.587000   -6.868000   -1.843000
  H     -2.276000   -4.774000   -0.050000
  H      3.714000   -3.724000    1.926000
  H      5.092000   -5.795000    1.871000
  H      6.205000   -7.329000   -0.439000
  H      5.393000   -7.917000    1.042000
  H      4.759000   -8.373000   -0.564000
  H      0.329000   -5.290000   -0.008000
  H      2.146000   -4.842000   -1.940000
  H      5.808000    4.986000   -1.956000
  H      4.788000   -2.281000   -0.185000
  H      4.860000    2.114000    1.912000
  H      6.901000    3.531000    1.772000
  H      7.383000    6.109000    0.356000
  H      8.414000    4.652000    0.435000
  H      7.921000    5.310000   -1.150000
  H      5.283000    0.336000   -0.179000
  H      3.720000    3.632000   -1.967000

 Total Charge           Charge          ....    0
 Multiplicity           Mult            ....    1
 Number of Electrons    NEL             ....  358
 Basis Dimension        Dim             ....  918

ORBITAL ENERGIES
----------------

  NO   OCC          E(Eh)            E(eV)
   0   2.0000     -15.688860      -426.9156
   1   2.0000     -15.633592      -425.4117
   2   2.0000     -15.623236      -425.1299
   3   2.0000     -15.593256      -424.3141
   4   2.0000     -15.519518      -422.3076
   5   2.0000     -15.508179      -421.9990
   6   2.0000     -15.448700      -420.3805
   7   2.0000     -15.431882      -419.9228
   8   2.0000     -11.334752      -308.4343
   9   2.0000     -11.333036      -308.3876
  10   2.0000     -11.332228      -308.3656
  11   2.0000     -11.299300      -307.4696
  12   2.0000     -11.293146      -307.3021
  13   2.0000     -11.292470      -307.2837
  14   2.0000     -11.286693      -307.1265
  15   2.0000     -11.286257      -307.1147
  16   2.0000     -11.284108      -307.0562
  17   2.0000     -11.276903      -306.8601
  18   2.0000     -11.273797      -306.7756
  19   2.0000     -11.267872      -306.6144
  20   2.0000     -11.267460      -306.6032
  21   2.0000     -11.257078      -306.3207
  22   2.0000     -11.254061      -306.2386
  23   2.0000     -11.237049      -305.7756
  24   2.0000     -11.230109      -305.5868
  25   2.0000     -11.229223      -305.5627
  26   2.0000     -11.227448      -305.5144
  27   2.0000     -11.222402      -305.3771
  28   2.0000     -11.222127      -305.3696
  29   2.0000     -11.205651      -304.9213
  30   2.0000     -11.204947      -304.9021
  31   2.0000     -11.200906      -304.7921
  32   2.0000     -11.200106      -304.7704
  33   2.0000     -11.198932      -304.7384
  34   2.0000     -11.187208      -304.4194
  35   2.0000     -11.186223      -304.3926
  36   2.0000     -11.186035      -304.3875
  37   2.0000     -11.185217      -304.3652
  38   2.0000     -11.184839      -304.3549
  39   2.0000     -11.169890      -303.9482
  40   2.0000     -11.166100      -303.8450
  41   2.0000     -11.163115      -303.7638
  42   2.0000     -11.161349      -303.7157
  43   2.0000     -11.161191      -303.7114
  44   2.0000     -11.155702      -303.5621
  45   2.0000     -11.152796      -303.4830
  46   2.0000     -11.152517      -303.4754
  47   2.0000     -11.146774      -303.3191
  48   2.0000     -11.145188      -303.2760
  49   2.0000     -11.138159      -303.0847
  50   2.0000     -11.124708      -302.7187
  51   2.0000     -11.120593      -302.6067
  52   2.0000      -1.366660       -37.1887
  53   2.0000      -1.320962       -35.9452
  54   2.0000      -1.311635       -35.6914
  55   2.0000      -1.286253       -35.0007
  56   2.0000      -1.220921       -33.2230
  57   2.0000      -1.204470       -32.7753
  58   2.0000      -1.171045       -31.8657
  59   2.0000      -1.147083       -31.2137
  60   2.0000      -1.143516       -31.1167
  61   2.0000      -1.109320       -30.1861
  62   2.0000      -1.101093       -29.9623
  63   2.0000      -1.087241       -29.5853
  64   2.0000      -1.078658       -29.3518
  65   2.0000      -1.045025       -28.4366
  66   2.0000      -1.041962       -28.3532
  67   2.0000      -1.036369       -28.2010
  68   2.0000      -1.013475       -27.5781
  69   2.0000      -1.012709       -27.5572
  70   2.0000      -1.005471       -27.3603
  71   2.0000      -0.989128       -26.9155
  72   2.0000      -0.984843       -26.7989
  73   2.0000      -0.978988       -26.6396
  74   2.0000      -0.966943       -26.3119
  75   2.0000      -0.959899       -26.1202
  76   2.0000      -0.951520       -25.8922
  77   2.0000      -0.944185       -25.6926
  78   2.0000      -0.925946       -25.1963
  79   2.0000      -0.917541       -24.9676
  80   2.0000      -0.913802       -24.8658
  81   2.0000      -0.889029       -24.1917
  82   2.0000      -0.876434       -23.8490
  83   2.0000      -0.870884       -23.6980
  84   2.0000      -0.863573       -23.4990
  85   2.0000      -0.850535       -23.1442
  86   2.0000      -0.839750       -22.8508
  87   2.0000      -0.830645       -22.6030
  88   2.0000      -0.822247       -22.3745
  89   2.0000      -0.795823       -21.6554
  90   2.0000      -0.790855       -21.5203
  91   2.0000      -0.756267       -20.5791
  92   2.0000      -0.734060       -19.9748
  93   2.0000      -0.727528       -19.7970
  94   2.0000      -0.721257       -19.6264
  95   2.0000      -0.718937       -19.5633
  96   2.0000      -0.716498       -19.4969
  97   2.0000      -0.707638       -19.2558
  98   2.0000      -0.699576       -19.0364
  99   2.0000      -0.696069       -18.9410
 100   2.0000      -0.693246       -18.8642
 101   2.0000      -0.688715       -18.7409
 102   2.0000      -0.683464       -18.5980
 103   2.0000      -0.676042       -18.3960
 104   2.0000      -0.671841       -18.2817
 105   2.0000      -0.669666       -18.2225
 106   2.0000      -0.666215       -18.1286
 107   2.0000      -0.654908       -17.8210
 108   2.0000      -0.652941       -17.7674
 109   2.0000      -0.650910       -17.7122
 110   2.0000      -0.649725       -17.6799
 111   2.0000      -0.645609       -17.5679
 112   2.0000      -0.644418       -17.5355
 113   2.0000      -0.638986       -17.3877
 114   2.0000      -0.633678       -17.2433
 115   2.0000      -0.625285       -17.0149
 116   2.0000      -0.623278       -16.9603
 117   2.0000      -0.616373       -16.7724
 118   2.0000      -0.614935       -16.7332
 119   2.0000      -0.612075       -16.6554
 120   2.0000      -0.609658       -16.5896
 121   2.0000      -0.604239       -16.4422
 122   2.0000      -0.593713       -16.1558
 123   2.0000      -0.587809       -15.9951
 124   2.0000      -0.582241       -15.8436
 125   2.0000      -0.581026       -15.8105
 126   2.0000      -0.576238       -15.6802
 127   2.0000      -0.574405       -15.6304
 128   2.0000      -0.573722       -15.6118
 129   2.0000      -0.558209       -15.1896
 130   2.0000      -0.553743       -15.0681
 131   2.0000      -0.551057       -14.9950
 132   2.0000      -0.544840       -14.8259
 133   2.0000      -0.538706       -14.6589
 134   2.0000      -0.534893       -14.5552
 135   2.0000      -0.531530       -14.4637
 136   2.0000      -0.519918       -14.1477
 137   2.0000      -0.516900       -14.0656
 138   2.0000      -0.513898       -13.9839
 139   2.0000      -0.513128       -13.9629
 140   2.0000      -0.510024       -13.8785
 141   2.0000      -0.506939       -13.7945
 142   2.0000      -0.502703       -13.6792
 143   2.0000      -0.500435       -13.6175
 144   2.0000      -0.496252       -13.5037
 145   2.0000      -0.493577       -13.4309
 146   2.0000      -0.492732       -13.4079
 147   2.0000      -0.480836       -13.0842
 148   2.0000      -0.479504       -13.0480
 149   2.0000      -0.464391       -12.6367
 150   2.0000      -0.463319       -12.6076
 151   2.0000      -0.457252       -12.4425
 152   2.0000      -0.450235       -12.2515
 153   2.0000      -0.441766       -12.0211
 154   2.0000      -0.438214       -11.9244
 155   2.0000      -0.436581       -11.8800
 156   2.0000      -0.424927       -11.5628
 157   2.0000      -0.418735       -11.3944
 158   2.0000      -0.405495       -11.0341
 159   2.0000      -0.391507       -10.6534
 160   2.0000      -0.382398       -10.4056
 161   2.0000      -0.372430       -10.1343
 162   2.0000      -0.357984        -9.7412
 163   2.0000      -0.356194        -9.6925
 164   2.0000      -0.348826        -9.4920
 165   2.0000      -0.339267        -9.2319
 166   2.0000      -0.337990        -9.1972
 167   2.0000      -0.328557        -8.9405
 168   2.0000      -0.317560        -8.6412
 169   2.0000      -0.300219        -8.1694
 170   2.0000      -0.298761        -8.1297
 171   2.0000      -0.284866        -7.7516
 172   2.0000      -0.280005        -7.6193
 173   2.0000      -0.262980        -7.1561
 174   2.0000      -0.235843        -6.4176
 175   2.0000      -0.184709        -5.0262
 176   2.0000      -0.174691        -4.7536
 177   2.0000      -0.062653        -1.7049
 178   2.0000      -0.051213        -1.3936
 179   0.0000       0.034090         0.9276
 180   0.0000       0.060746         1.6530
 181   0.0000       0.089902         2.4464
 182   0.0000       0.097025         2.6402
 183   0.0000       0.104683         2.8486

MULLIKEN ATOMIC CHARGES
-----------------------
   0 C :    0.228483
   1 N :   -0.422520
   2 C :   -0.066229
   3 N :   -0.341485
   4 C :   -0.072211
   5 N :   -0.565565
   6 C :   -0.032333
   7 N :   -0.336835
   8 C :    0.224641
   9 N :   -0.565576
  10 C :    0.106610
  11 N :   -0.438880
  12 C :   -0.061013
  13 N :   -0.448624
  14 C :    0.227011
  15 N :   -0.441126
  16 C :    0.250199
  17 C :   -0.039319
  18 C :   -0.188875
  19 C :    0.234854
  20 C :    0.193918
  21 C :   -0.072027
  22 C :   -0.088557
  23 C :   -0.062638
  24 C :    0.215432
  25 C :    0.114455
  26 C :   -0.068086
  27 C :    0.242146
  28 C :   -0.042611
  29 C :   -0.195387
  30 C :    0.224557
  31 C :    0.192278
  32 C :   -0.066239
  33 C :   -0.098210
  34 C :   -0.051084
  35 C :    0.184580
  36 C :    0.119511
  37 C :   -0.069684
  38 C :    0.241927
  39 C :   -0.063897
  40 C :   -0.201187
  41 C :    0.218345
  42 C :    0.210692
  43 C :   -0.075942
  44 C :   -0.090719
  45 C :   -0.041473
  46 C :    0.189287
  47 C :    0.116298
  48 C :   -0.079838
  49 C :    0.212541
  50 C :   -0.063797
  51 C :   -0.188576
  52 H :    0.074689
  53 H :   -0.008969
  54 H :    0.061223
  55 H :    0.073040
  56 H :    0.077557
  57 H :    0.071002
  58 H :    0.069120
  59 H :   -0.024753
  60 H :    0.060480
  61 H :    0.176239
  62 H :    0.168875
  63 H :    0.054050
  64 H :   -0.030646
  65 H :    0.042973
  66 H :    0.056067
  67 H :    0.059637
  68 H :    0.056815
  69 H :    0.059221
  70 H :   -0.016741
  71 H :    0.047296
  72 H :    0.041565
  73 H :   -0.018993
  74 H :    0.033091
  75 H :    0.040419
  76 H :    0.049567
  77 H :    0.048665
  78 H :    0.047954
  79 H :   -0.012416
  80 H :    0.033118
  81 H :    0.051436
  82 H :   -0.022536
  83 H :    0.043316
  84 H :    0.050704
  85 H :    0.055813
  86 H :    0.056649
  87 H :    0.055189
  88 H :   -0.028308
  89 H :    0.040367
Sum of atomic charges:   -0.0000000

LOEWDIN ATOMIC CHARGES
----------------------
   0 C :    0.027903
   1 N :    0.175801
   2 C :   -0.099656
   3 N :    0.173620
   4 C :    0.093133
   5 N :   -0.145966
   6 C :   -0.010274
   7 N :    0.177817
   8 C :    0.025698
   9 N :   -0.138924
  10 C :    0.036442
  11 N :    0.141372
  12 C :   -0.098152
  13 N :    0.119565
  14 C :   -0.057679
  15 N :    0.136297
  16 C :   -0.024494
  17 C :   -0.013948
  18 C :   -0.116354
  19 C :   -0.089773
  20 C :   -0.012733
  21 C :   -0.100189
  22 C :    0.037871
  23 C :   -0.030230
  24 C :    0.006467
  25 C :    0.029704
  26 C :   -0.095482
  27 C :   -0.064009
  28 C :   -0.016136
  29 C :   -0.117394
  30 C :   -0.060377
  31 C :   -0.020987
  32 C :   -0.102345
  33 C :    0.003702
  34 C :   -0.025690
  35 C :   -0.027800
  36 C :    0.024540
  37 C :   -0.108281
  38 C :   -0.033096
  39 C :   -0.032115
  40 C :   -0.112646
  41 C :   -0.092054
  42 C :   -0.000003
  43 C :   -0.111163
  44 C :    0.029992
  45 C :   -0.015832
  46 C :   -0.018553
  47 C :    0.028605
  48 C :   -0.111462
  49 C :   -0.110939
  50 C :   -0.030930
  51 C :   -0.107843
  52 H :    0.038836
  53 H :    0.006764
  54 H :    0.052487
  55 H :    0.038174
  56 H :    0.036088
  57 H :    0.037292
  58 H :    0.037121
  59 H :    0.000596
  60 H :    0.052273
  61 H :    0.062243
  62 H :    0.058324
  63 H :    0.029446
  64 H :   -0.004381
  65 H :    0.042913
  66 H :    0.030310
  67 H :    0.027046
  68 H :    0.031406
  69 H :    0.031416
  70 H :    0.001573
  71 H :    0.045590
  72 H :    0.023881
  73 H :    0.001872
  74 H :    0.039221
  75 H :    0.023032
  76 H :    0.021737
  77 H :    0.027120
  78 H :    0.026827
  79 H :    0.005192
  80 H :    0.038540
  81 H :    0.028364
  82 H :   -0.001194
  83 H :    0.044214
  84 H :    0.027543
  85 H :    0.025024
  86 H :    0.030511
  87 H :    0.030431
  88 H :   -0.004213
  89 H :    0.041367

  Mayer bond orders larger than 0.100000
B(  0-C ,  1-N ) :   1.1756 B(  0-C , 17-C ) :   1.5579 B(  0-C , 52-H ) :   0.9678
B(  1-N ,  8-C ) :   1.1695 B(  1-N , 10-C ) :   0.9375 B(  2-C , 12-C ) :   1.5654
B(  2-C , 16-C ) :   1.2903 B(  2-C , 53-H ) :   0.9788 B(  3-N , 14-C ) :   1.1825
B(  3-N , 16-C ) :   1.2019 B(  3-N , 61-H ) :   0.8960 B(  4-C ,  6-C ) :   1.3315
B(  4-C , 17-C ) :   1.3297 B(  4-C , 18-C ) :   1.1136 B(  5-N , 19-C ) :   1.3768
B(  5-N , 27-C ) :   1.4392 B(  6-C ,  8-C ) :   1.5565 B(  6-C , 54-H ) :   0.9709
B(  7-N , 30-C ) :   1.1880 B(  7-N , 38-C ) :   1.2113 B(  7-N , 62-H ) :   0.9007
B(  8-C , 55-H ) :   0.9685 B(  9-N , 41-C ) :   1.4296 B(  9-N , 49-C ) :   1.3968
B( 10-C , 56-H ) :   0.9764 B( 10-C , 57-H ) :   0.9809 B( 10-C , 58-H ) :   0.9823
B( 11-N , 20-C ) :   1.1063 B( 11-N , 24-C ) :   1.1332 B( 11-N , 25-C ) :   0.9604
B( 12-C , 14-C ) :   1.2901 B( 12-C , 59-H ) :   0.9772 B( 13-N , 31-C ) :   1.0916
B( 13-N , 35-C ) :   1.0833 B( 13-N , 36-C ) :   0.9767 B( 14-C , 18-C ) :   1.2414
B( 15-N , 42-C ) :   1.1247 B( 15-N , 46-C ) :   1.0971 B( 15-N , 47-C ) :   0.9647
B( 16-C , 51-C ) :   1.2300 B( 17-C , 60-H ) :   0.9713 B( 18-C , 19-C ) :   1.2870
B( 19-C , 21-C ) :   1.1755 B( 20-C , 28-C ) :   1.6260 B( 20-C , 63-H ) :   0.9707
B( 21-C , 26-C ) :   1.6713 B( 21-C , 64-H ) :   0.9721 B( 22-C , 23-C ) :   1.2644
B( 22-C , 28-C ) :   1.2794 B( 22-C , 29-C ) :   1.2504 B( 23-C , 24-C ) :   1.6289
B( 23-C , 65-H ) :   0.9719 B( 24-C , 66-H ) :   0.9690 B( 25-C , 67-H ) :   0.9763
B( 25-C , 68-H ) :   0.9832 B( 25-C , 69-H ) :   0.9819 B( 26-C , 27-C ) :   1.1825
B( 26-C , 70-H ) :   0.9750 B( 27-C , 29-C ) :   1.2385 B( 28-C , 71-H ) :   0.9710
B( 29-C , 30-C ) :   1.1820 B( 30-C , 32-C ) :   1.3437 B( 31-C , 39-C ) :   1.6709
B( 31-C , 72-H ) :   0.9706 B( 32-C , 37-C ) :   1.5151 B( 32-C , 73-H ) :   0.9772
B( 33-C , 34-C ) :   1.2428 B( 33-C , 39-C ) :   1.2361 B( 33-C , 40-C ) :   1.3296
B( 34-C , 35-C ) :   1.6691 B( 34-C , 74-H ) :   0.9709 B( 35-C , 75-H ) :   0.9706
B( 36-C , 76-H ) :   0.9757 B( 36-C , 77-H ) :   0.9825 B( 36-C , 78-H ) :   0.9836
B( 37-C , 38-C ) :   1.3405 B( 37-C , 79-H ) :   0.9788 B( 38-C , 40-C ) :   1.1836
B( 39-C , 80-H ) :   0.9720 B( 40-C , 41-C ) :   1.1828 B( 41-C , 43-C ) :   1.2425
B( 42-C , 50-C ) :   1.6384 B( 42-C , 81-H ) :   0.9696 B( 43-C , 48-C ) :   1.6088
B( 43-C , 82-H ) :   0.9752 B( 44-C , 45-C ) :   1.2797 B( 44-C , 50-C ) :   1.2549
B( 44-C , 51-C ) :   1.2474 B( 45-C , 46-C ) :   1.6313 B( 45-C , 83-H ) :   0.9705
B( 46-C , 84-H ) :   0.9707 B( 47-C , 85-H ) :   0.9760 B( 47-C , 86-H ) :   0.9826
B( 47-C , 87-H ) :   0.9829 B( 48-C , 49-C ) :   1.2379 B( 48-C , 88-H ) :   0.9729
B( 49-C , 51-C ) :   1.2024 B( 50-C , 89-H ) :   0.9720

MP2 TOTAL ENERGY:    -2130.889167575 Eh
FINAL SINGLE POINT ENERGY     -2130.889167575112

DIPOLE MOMENT
-------------
                                X             Y             Z
Electronic contribution:     -3.28478       3.60094      -0.14754
Nuclear contribution   :     -0.03843       0.15929       0.19318
                        -----------------------------------------
Total Dipole Moment    :     -3.32321       3.76023       0.04564
                        -----------------------------------------
Magnitude (a.u.)       :      5.01848
Magnitude (Debye)      :     12.75595

Rotational constants in cm-1:     0.001498     0.001473     0.000763
Rotational constants in MHz :    44.913826    44.147832    22.862727

                             ****ORCA TERMINATED NORMALLY****
TOTAL RUN TIME: 0 days 1 hours 13 minutes 8 seconds 565 msec
