                         Program Version 5.0.4 -  RELEASE  -
|  1> ! PAL2
|  2> ! mp2 cc-pvdz TightSCF  NoKeepInts
|  3>
|  4> %scf
|  5>   MaxCore 2000
|  6> end
|  7> %mp2
|  8>   MaxCore 2000
|  9> end
| 10> * xyz 0 1
| 11>    C       -4.07700         5.75800         1.24300
| 12>    C        1.47400         4.04100         0.05700
| 13>    C       -2.80200         4.09300         0.04900
| 14>    C       -3.13700         4.76200        -1.13900
| 15>    C       -3.92100         5.89700        -1.09800
| 16>    C       -5.18900         7.61900         0.09400
| 17>    C        0.13200         4.30700         0.06100
| 18>    C       -0.56900         3.05600         0.04700
| 19>    C        1.64900         2.61800         0.02300
| 20>    C       -3.29100         4.62200         1.25300
| 21>    N       -4.38300         6.37800         0.08000
| 22>    N        0.38800         2.06700         0.02500
| 23>    N       -2.01000         0.39500        -0.07500
| 24>    N       -0.38800        -2.07400        -0.02700
| 25>    N        2.01000        -0.40100         0.06500
| 26>    C       -1.96000         2.86100         0.02400
| 27>    C       -2.62300         1.61500        -0.01800
| 28>    C       -5.57300        -4.32900         1.06600
| 29>    C       -4.07300         1.47100         0.05600
| 30>    C       -4.10600        -2.75600        -0.02600
| 31>    C       -4.99500        -2.75700        -1.11100
| 32>    C       -6.13200        -3.54200        -1.07600
| 33>    C       -7.65100        -5.11300         0.04000
| 34>    C       -4.32400         0.14100         0.03700
| 35>    C       -3.02500        -0.52000        -0.04800
| 36>    C       -4.42200        -3.56600         1.07500
| 37>    N       -6.40700        -4.31300         0.00100
| 38>    C       -2.86700        -1.92200        -0.04000
| 39>    C       -1.65000        -2.62400        -0.02700
| 40>    C        3.56800        -6.14200        -1.04000
| 41>    C       -1.47600        -4.04900        -0.03400
| 42>    C        2.80300        -4.09900        -0.00800
| 43>    C        3.65700        -4.38400         1.06900
| 44>    C        4.42700        -5.53000         1.05900
| 45>    C        5.24500        -7.58800         0.01400
| 46>    C       -0.13400        -4.31500        -0.02200
| 47>    C        0.56800        -3.06400        -0.02700
| 48>    C        2.77500        -5.01200        -1.07400
| 49>    N        4.37600        -6.39100         0.01700
| 50>    C        1.95900        -2.86900        -0.00900
| 51>    C        2.62100        -1.62200         0.00900
| 52>    C        5.54300         4.33900        -1.13000
| 53>    C        4.07000        -1.47900        -0.09400
| 54>    C        4.10400         2.75100        -0.02100
| 55>    C        5.02700         2.72900         1.03600
| 56>    C        6.16600         3.50900         0.97800
| 57>    C        7.61900         5.15300        -0.11500
| 58>    C        4.32100        -0.14800        -0.09200
| 59>    C        3.02500         0.51400         0.01500
| 60>    C        4.38700         3.58200        -1.11500
| 61>    C        2.86600         1.91600         0.01300
| 62>    N        6.41300         4.29600        -0.09500
| 63>    H       -4.48600         6.19400         2.14600
| 64>    H        2.27400         4.76600         0.08100
| 65>    H       -2.78200         4.40700        -2.09900
| 66>    H       -4.19800         6.45100        -1.98500
| 67>    H       -4.51700         8.48000         0.12500
| 68>    H       -5.79900         7.65100        -0.80900
| 69>    H       -5.82800         7.61100         0.97600
| 70>    H       -0.33200         5.28200         0.06900
| 71>    H       -3.07900         4.14400         2.20200
| 72>    H        0.18200         1.07200         0.00500
| 73>    H       -0.18300        -1.08000        -0.02100
| 74>    H       -5.86400        -4.96200         1.89500
| 75>    H       -4.79400         2.27200         0.13900
| 76>    H       -4.80000        -2.16000        -1.99400
| 77>    H       -6.84100        -3.58200        -1.89300
| 78>    H       -8.42800        -4.53600         0.54600
| 79>    H       -7.95600        -5.33700        -0.98100
| 80>    H       -7.45600        -6.03700         0.58400
| 81>    H       -5.28700        -0.34400         0.10000
| 82>    H       -3.78000        -3.60100         1.94700
| 83>    H        3.58700        -6.86800        -1.84300
| 84>    H       -2.27600        -4.77400        -0.05000
| 85>    H        3.71400        -3.72400         1.92600
| 86>    H        5.09200        -5.79500         1.87100
| 87>    H        6.20500        -7.32900        -0.43900
| 88>    H        5.39300        -7.91700         1.04200
| 89>    H        4.75900        -8.37300        -0.56400
| 90>    H        0.32900        -5.29000        -0.00800
| 91>    H        2.14600        -4.84200        -1.94000
| 92>    H        5.80800         4.98600        -1.95600
| 93>    H        4.78800        -2.28100        -0.18500
| 94>    H        4.86000         2.11400         1.91200
| 95>    H        6.90100         3.53100         1.77200
| 96>    H        7.38300         6.10900         0.35600
| 97>    H        8.41400         4.65200         0.43500
| 98>    H        7.92100         5.31000        -1.15000
| 99>    H        5.28300         0.33600        -0.17900
|100>    H        3.72000         3.63200        -1.96700
|101> *
|102>
|103>                          ****END OF INPUT****

CARTESIAN COORDINATES (ANGSTROEM)
---------------------------------
  C     -4.077000    5.758000    1.243000
  C      1.474000    4.041000    0.057000
  C     -2.802000    4.093000    0.049000
  C     -3.137000    4.762000   -1.139000
  C     -3.921000    5.897000   -1.098000
  C     -5.189000    7.619000    0.094000
  C      0.132000    4.307000    0.061000
  C     -0.569000    3.056000    0.047000
  C      1.649000    2.618000    0.023000
  C     -3.291000    4.622000    1.253000
  N     -4.383000    6.378000    0.080000
  N      0.388000    2.067000    0.025000
  N     -2.010000    0.395000   -0.075000
  N     -0.388000   -2.074000   -0.027000
  N      2.010000   -0.401000    0.065000
  C     -1.960000    2.861000    0.024000
  C     -2.623000    1.615000   -0.018000
  C     -5.573000   -4.329000    1.066000
  C     -4.073000    1.471000    0.056000
  C     -4.106000   -2.756000   -0.026000
  C     -4.995000   -2.757000   -1.111000
  C     -6.132000   -3.542000   -1.076000
  C     -7.651000   -5.113000    0.040000
  C     -4.324000    0.141000    0.037000
  C     -3.025000   -0.520000   -0.048000
  C     -4.422000   -3.566000    1.075000
  N     -6.407000   -4.313000    0.001000
  C     -2.867000   -1.922000   -0.040000
  C     -1.650000   -2.624000   -0.027000
  C      3.568000   -6.142000   -1.040000
  C     -1.476000   -4.049000   -0.034000
  C      2.803000   -4.099000   -0.008000
  C      3.657000   -4.384000    1.069000
  C      4.427000   -5.530000    1.059000
  C      5.245000   -7.588000    0.014000
  C     -0.134000   -4.315000   -0.022000
  C      0.568000   -3.064000   -0.027000
  C      2.775000   -5.012000   -1.074000
  N      4.376000   -6.391000    0.017000
  C      1.959000   -2.869000   -0.009000
  C      2.621000   -1.622000    0.009000
  C      5.543000    4.339000   -1.130000
  C      4.070000   -1.479000   -0.094000
  C      4.104000    2.751000   -0.021000
  C      5.027000    2.729000    1.036000
  C      6.166000    3.509000    0.978000
  C      7.619000    5.153000   -0.115000
  C      4.321000   -0.148000   -0.092000
  C      3.025000    0.514000    0.015000
  C      4.387000    3.582000   -1.115000
  C      2.866000    1.916000    0.013000
  N      6.413000    4.296000   -0.095000
  H     -4.486000    6.194000    2.146000
  H      2.274000    4.766000    0.081000
  H     -2.782000    4.407000   -2.099000
  H     -4.198000    6.451000   -1.985000
  H     -4.517000    8.480000    0.125000
  H     -5.799000    7.651000   -0.809000
  H     -5.828000    7.611000    0.976000
  H     -0.332000    5.282000    0.069000
  H     -3.079000    4.144000    2.202000
  H      0.182000    1.072000    0.005000
  H     -0.183000   -1.080000   -0.021000
  H     -5.864000   -4.962000    1.895000
  H     -4.794000    2.272000    0.139000
  H     -4.800000   -2.160000   -1.994000
  H     -6.841000   -3.582000   -1.893000
  H     -8.428000   -4.536000    0.546000
  H     -7.956000   -5.337000   -0.981000
  H     -7.456000   -6.037000    0.584000
  H     -5.287000   -0.344000    0.100000
  H     -3.780000   -3.601000    1.947000
  H      3.587000   -6.868000   -1.843000
  H     -2.276000   -4.774000   -0.050000
  H      3.714000   -3.724000    1.926000
  H      5.092000   -5.795000    1.871000
  H      6.205000   -7.329000   -0.439000
  H      5.393000   -7.917000    1.042000
  H      4.759000   -8.373000   -0.564000
  H      0.329000   -5.290000   -0.008000
  H      2.146000   -4.842000   -1.940000
  H      5.808000    4.986000   -1.956000
  H      4.788000   -2.281000   -0.185000
  H      4.860000    2.114000    1.912000
  H      6.901000    3.531000    1.772000
  H      7.383000    6.109000    0.356000
  H      8.414000    4.652000    0.435000
  H      7.921000    5.310000   -1.150000
  H      5.283000    0.336000   -0.179000
  H      3.720000    3.632000   -1.967000

 Total Charge           Charge          ....    0
 Multiplicity           Mult            ....    1
 Number of Electrons    NEL             ....  358
 Basis Dimension        Dim             ....  918

ORBITAL ENERGIES
----------------

  NO   OCC          E(Eh)            E(eV)
   0   2.0000     -15.719968      -427.7621
   1   2.0000     -15.628491      -425.2729
   2   2.0000     -15.618258      -424.9944
   3   2.0000     -15.576351      -423.8541
   4   2.0000     -15.520825      -422.3431
   5   2.0000     -15.504080      -421.8875
   6   2.0000     -15.451332      -420.4521
   7   2.0000     -15.426731      -419.7827
   8   2.0000     -11.357569      -309.0552
   9   2.0000     -11.356875      -309.0363
  10   2.0000     -11.350312      -308.8577
  11   2.0000     -11.313961      -307.8685
  12   2.0000     -11.296392      -307.3905
  13   2.0000     -11.290655      -307.2343
  14   2.0000     -11.289421      -307.2008
  15   2.0000     -11.286742      -307.1279
  16   2.0000     -11.286535      -307.1222
  17   2.0000     -11.281259      -306.9787
  18   2.0000     -11.280434      -306.9562
  19   2.0000     -11.270983      -306.6990
  20   2.0000     -11.263029      -306.4826
  21   2.0000     -11.242912      -305.9352
  22   2.0000     -11.239260      -305.8358
  23   2.0000     -11.232244      -305.6449
  24   2.0000     -11.226765      -305.4958
  25   2.0000     -11.225870      -305.4714
  26   2.0000     -11.222585      -305.3821
  27   2.0000     -11.218746      -305.2776
  28   2.0000     -11.218419      -305.2687
  29   2.0000     -11.211302      -305.0750
  30   2.0000     -11.209456      -305.0248
  31   2.0000     -11.195568      -304.6469
  32   2.0000     -11.194475      -304.6171
  33   2.0000     -11.193139      -304.5808
  34   2.0000     -11.188067      -304.4428
  35   2.0000     -11.187306      -304.4221
  36   2.0000     -11.182946      -304.3034
  37   2.0000     -11.179673      -304.2144
  38   2.0000     -11.179641      -304.2135
  39   2.0000     -11.177942      -304.1673
  40   2.0000     -11.170276      -303.9587
  41   2.0000     -11.165280      -303.8227
  42   2.0000     -11.164521      -303.8020
  43   2.0000     -11.161965      -303.7325
  44   2.0000     -11.160568      -303.6945
  45   2.0000     -11.144524      -303.2579
  46   2.0000     -11.143964      -303.2427
  47   2.0000     -11.140484      -303.1480
  48   2.0000     -11.137187      -303.0583
  49   2.0000     -11.130637      -302.8800
  50   2.0000     -11.116620      -302.4986
  51   2.0000     -11.110900      -302.3430
  52   2.0000      -1.391465       -37.8637
  53   2.0000      -1.316736       -35.8302
  54   2.0000      -1.307317       -35.5739
  55   2.0000      -1.271665       -34.6038
  56   2.0000      -1.224545       -33.3216
  57   2.0000      -1.200091       -32.6561
  58   2.0000      -1.178350       -32.0645
  59   2.0000      -1.165196       -31.7066
  60   2.0000      -1.136791       -30.9336
  61   2.0000      -1.109581       -30.1932
  62   2.0000      -1.106029       -30.0966
  63   2.0000      -1.097138       -29.8546
  64   2.0000      -1.065880       -29.0041
  65   2.0000      -1.057584       -28.7783
  66   2.0000      -1.041185       -28.3321
  67   2.0000      -1.032288       -28.0900
  68   2.0000      -1.015218       -27.6255
  69   2.0000      -1.003905       -27.3176
  70   2.0000      -0.998896       -27.1813
  71   2.0000      -0.995100       -27.0780
  72   2.0000      -0.985535       -26.8178
  73   2.0000      -0.976001       -26.5583
  74   2.0000      -0.964392       -26.2424
  75   2.0000      -0.961286       -26.1579
  76   2.0000      -0.950741       -25.8710
  77   2.0000      -0.940379       -25.5890
  78   2.0000      -0.935374       -25.4528
  79   2.0000      -0.919692       -25.0261
  80   2.0000      -0.912195       -24.8221
  81   2.0000      -0.891262       -24.2525
  82   2.0000      -0.886782       -24.1306
  83   2.0000      -0.868291       -23.6274
  84   2.0000      -0.859820       -23.3969
  85   2.0000      -0.846325       -23.0297
  86   2.0000      -0.828983       -22.5578
  87   2.0000      -0.826344       -22.4860
  88   2.0000      -0.820131       -22.3169
  89   2.0000      -0.794298       -21.6139
  90   2.0000      -0.785715       -21.3804
  91   2.0000      -0.772312       -21.0157
  92   2.0000      -0.740396       -20.1472
  93   2.0000      -0.733567       -19.9614
  94   2.0000      -0.728893       -19.8342
  95   2.0000      -0.724065       -19.7028
  96   2.0000      -0.716104       -19.4862
  97   2.0000      -0.710609       -19.3367
  98   2.0000      -0.706138       -19.2150
  99   2.0000      -0.705373       -19.1942
 100   2.0000      -0.695795       -18.9335
 101   2.0000      -0.688057       -18.7230
 102   2.0000      -0.683998       -18.6125
 103   2.0000      -0.675664       -18.3857
 104   2.0000      -0.672417       -18.2974
 105   2.0000      -0.671428       -18.2705
 106   2.0000      -0.666679       -18.1413
 107   2.0000      -0.661600       -18.0031
 108   2.0000      -0.652071       -17.7438
 109   2.0000      -0.648917       -17.6579
 110   2.0000      -0.648379       -17.6433
 111   2.0000      -0.641846       -17.4655
 112   2.0000      -0.640457       -17.4277
 113   2.0000      -0.634865       -17.2756
 114   2.0000      -0.633856       -17.2481
 115   2.0000      -0.629206       -17.1216
 116   2.0000      -0.627021       -17.0621
 117   2.0000      -0.614739       -16.7279
 118   2.0000      -0.610788       -16.6204
 119   2.0000      -0.608916       -16.5694
 120   2.0000      -0.608374       -16.5547
 121   2.0000      -0.600481       -16.3399
 122   2.0000      -0.592703       -16.1283
 123   2.0000      -0.589230       -16.0338
 124   2.0000      -0.584236       -15.8979
 125   2.0000      -0.578201       -15.7336
 126   2.0000      -0.574685       -15.6380
 127   2.0000      -0.571097       -15.5403
 128   2.0000      -0.570486       -15.5237
 129   2.0000      -0.569659       -15.5012
 130   2.0000      -0.556246       -15.1362
 131   2.0000      -0.542918       -14.7736
 132   2.0000      -0.542035       -14.7495
 133   2.0000      -0.538361       -14.6495
 134   2.0000      -0.533523       -14.5179
 135   2.0000      -0.529153       -14.3990
 136   2.0000      -0.519430       -14.1344
 137   2.0000      -0.515684       -14.0325
 138   2.0000      -0.513655       -13.9773
 139   2.0000      -0.511976       -13.9316
 140   2.0000      -0.509786       -13.8720
 141   2.0000      -0.503310       -13.6958
 142   2.0000      -0.500991       -13.6326
 143   2.0000      -0.497540       -13.5388
 144   2.0000      -0.495293       -13.4776
 145   2.0000      -0.492716       -13.4075
 146   2.0000      -0.488361       -13.2890
 147   2.0000      -0.473160       -12.8753
 148   2.0000      -0.470039       -12.7904
 149   2.0000      -0.466039       -12.6816
 150   2.0000      -0.462612       -12.5883
 151   2.0000      -0.460022       -12.5178
 152   2.0000      -0.451941       -12.2979
 153   2.0000      -0.440762       -11.9938
 154   2.0000      -0.432757       -11.7759
 155   2.0000      -0.430998       -11.7281
 156   2.0000      -0.418405       -11.3854
 157   2.0000      -0.416748       -11.3403
 158   2.0000      -0.411114       -11.1870
 159   2.0000      -0.410128       -11.1602
 160   2.0000      -0.381393       -10.3782
 161   2.0000      -0.369331       -10.0500
 162   2.0000      -0.353318        -9.6143
 163   2.0000      -0.351681        -9.5697
 164   2.0000      -0.345441        -9.3999
 165   2.0000      -0.341607        -9.2956
 166   2.0000      -0.337926        -9.1954
 167   2.0000      -0.316816        -8.6210
 168   2.0000      -0.311841        -8.4856
 169   2.0000      -0.305005        -8.2996
 170   2.0000      -0.298074        -8.1110
 171   2.0000      -0.282444        -7.6857
 172   2.0000      -0.275342        -7.4924
 173   2.0000      -0.266557        -7.2534
 174   2.0000      -0.228908        -6.2289
 175   2.0000      -0.182951        -4.9784
 176   2.0000      -0.173172        -4.7122
 177   2.0000      -0.062700        -1.7062
 178   2.0000      -0.050696        -1.3795
 179   0.0000       0.036025         0.9803
 180   0.0000       0.054225         1.4755
 181   0.0000       0.073589         2.0025
 182   0.0000       0.098570         2.6822
 183   0.0000       0.102321         2.7843

MULLIKEN ATOMIC CHARGES
-----------------------
   0 C :    0.237831
   1 N :   -0.411070
   2 C :   -0.066225
   3 N :   -0.344153
   4 C :   -0.065297
   5 N :   -0.566330
   6 C :   -0.027955
   7 N :   -0.336742
   8 C :    0.237522
   9 N :   -0.566535
  10 C :    0.102750
  11 N :   -0.440158
  12 C :   -0.058309
  13 N :   -0.451985
  14 C :    0.219642
  15 N :   -0.441904
  16 C :    0.257997
  17 C :   -0.030094
  18 C :   -0.176532
  19 C :    0.231458
  20 C :    0.185920
  21 C :   -0.068053
  22 C :   -0.092222
  23 C :   -0.069202
  24 C :    0.217682
  25 C :    0.115175
  26 C :   -0.064681
  27 C :    0.250086
  28 C :   -0.038791
  29 C :   -0.197957
  30 C :    0.219420
  31 C :    0.185855
  32 C :   -0.064516
  33 C :   -0.104373
  34 C :   -0.050580
  35 C :    0.176233
  36 C :    0.121644
  37 C :   -0.071021
  38 C :    0.245085
  39 C :   -0.065667
  40 C :   -0.205859
  41 C :    0.216011
  42 C :    0.212608
  43 C :   -0.077731
  44 C :   -0.093091
  45 C :   -0.036942
  46 C :    0.181753
  47 C :    0.116967
  48 C :   -0.082529
  49 C :    0.206055
  50 C :   -0.069099
  51 C :   -0.188489
  52 H :    0.084548
  53 H :   -0.006037
  54 H :    0.068864
  55 H :    0.082381
  56 H :    0.087387
  57 H :    0.077940
  58 H :    0.076198
  59 H :   -0.030312
  60 H :    0.069405
  61 H :    0.177631
  62 H :    0.167247
  63 H :    0.051837
  64 H :   -0.035403
  65 H :    0.039678
  66 H :    0.054128
  67 H :    0.057279
  68 H :    0.055460
  69 H :    0.058643
  70 H :   -0.012134
  71 H :    0.046014
  72 H :    0.035645
  73 H :   -0.019705
  74 H :    0.027719
  75 H :    0.034302
  76 H :    0.044697
  77 H :    0.044915
  78 H :    0.044166
  79 H :   -0.011574
  80 H :    0.027439
  81 H :    0.049647
  82 H :   -0.022955
  83 H :    0.042377
  84 H :    0.048578
  85 H :    0.053490
  86 H :    0.056191
  87 H :    0.053997
  88 H :   -0.031119
  89 H :    0.037833
Sum of atomic charges:   -0.0000000

LOEWDIN ATOMIC CHARGES
----------------------
   0 C :    0.042324
   1 N :    0.197473
   2 C :   -0.098059
   3 N :    0.170571
   4 C :    0.126296
   5 N :   -0.148976
   6 C :   -0.010131
   7 N :    0.177495
   8 C :    0.041542
   9 N :   -0.138525
  10 C :    0.041165
  11 N :    0.138111
  12 C :   -0.096204
  13 N :    0.110866
  14 C :   -0.062884
  15 N :    0.133764
  16 C :   -0.014249
  17 C :   -0.010846
  18 C :   -0.122142
  19 C :   -0.089193
  20 C :   -0.020759
  21 C :   -0.098736
  22 C :    0.030928
  23 C :   -0.035471
  24 C :    0.007430
  25 C :    0.028985
  26 C :   -0.090491
  27 C :   -0.050812
  28 C :   -0.014599
  29 C :   -0.119228
  30 C :   -0.066897
  31 C :   -0.029070
  32 C :   -0.100972
  33 C :   -0.010516
  34 C :   -0.027509
  35 C :   -0.037686
  36 C :    0.022498
  37 C :   -0.111124
  38 C :   -0.028033
  39 C :   -0.035352
  40 C :   -0.114001
  41 C :   -0.093432
  42 C :    0.000828
  43 C :   -0.115111
  44 C :    0.025316
  45 C :   -0.013590
  46 C :   -0.026000
  47 C :    0.027965
  48 C :   -0.115477
  49 C :   -0.120159
  50 C :   -0.034954
  51 C :   -0.107892
  52 H :    0.043211
  53 H :    0.008191
  54 H :    0.056557
  55 H :    0.042693
  56 H :    0.041338
  57 H :    0.040646
  58 H :    0.040289
  59 H :   -0.001133
  60 H :    0.056739
  61 H :    0.062871
  62 H :    0.057410
  63 H :    0.028211
  64 H :   -0.005729
  65 H :    0.041143
  66 H :    0.029601
  67 H :    0.025891
  68 H :    0.030771
  69 H :    0.031084
  70 H :    0.003787
  71 H :    0.045220
  72 H :    0.021208
  73 H :    0.001562
  74 H :    0.037042
  75 H :    0.020201
  76 H :    0.019247
  77 H :    0.025374
  78 H :    0.025069
  79 H :    0.005654
  80 H :    0.036097
  81 H :    0.027696
  82 H :   -0.001298
  83 H :    0.044058
  84 H :    0.026360
  85 H :    0.023901
  86 H :    0.030247
  87 H :    0.029865
  88 H :   -0.005561
  89 H :    0.040004

  Mayer bond orders larger than 0.100000
B(  0-C ,  1-N ) :   1.2122 B(  0-C , 17-C ) :   1.5067 B(  0-C , 52-H ) :   0.9666
B(  1-N ,  8-C ) :   1.2090 B(  1-N , 10-C ) :   0.9234 B(  2-C , 12-C ) :   1.5828
B(  2-C , 16-C ) :   1.2704 B(  2-C , 53-H ) :   0.9793 B(  3-N , 14-C ) :   1.1740
B(  3-N , 16-C ) :   1.2022 B(  3-N , 61-H ) :   0.8950 B(  4-C ,  6-C ) :   1.3598
B(  4-C , 17-C ) :   1.3679 B(  4-C , 18-C ) :   1.0465 B(  5-N , 19-C ) :   1.3630
B(  5-N , 27-C ) :   1.4494 B(  6-C ,  8-C ) :   1.5123 B(  6-C , 54-H ) :   0.9707
B(  7-N , 30-C ) :   1.1837 B(  7-N , 38-C ) :   1.2161 B(  7-N , 62-H ) :   0.9016
B(  8-C , 55-H ) :   0.9674 B(  9-N , 41-C ) :   1.4362 B(  9-N , 49-C ) :   1.3915
B( 10-C , 56-H ) :   0.9767 B( 10-C , 57-H ) :   0.9806 B( 10-C , 58-H ) :   0.9815
B( 11-N , 20-C ) :   1.0952 B( 11-N , 24-C ) :   1.1344 B( 11-N , 25-C ) :   0.9627
B( 12-C , 14-C ) :   1.2707 B( 12-C , 59-H ) :   0.9766 B( 13-N , 31-C ) :   1.0804
B( 13-N , 35-C ) :   1.0701 B( 13-N , 36-C ) :   0.9834 B( 14-C , 18-C ) :   1.2647
B( 15-N , 42-C ) :   1.1263 B( 15-N , 46-C ) :   1.0874 B( 15-N , 47-C ) :   0.9668
B( 16-C , 51-C ) :   1.2502 B( 17-C , 60-H ) :   0.9706 B( 18-C , 19-C ) :   1.3150
B( 19-C , 21-C ) :   1.1594 B( 20-C , 28-C ) :   1.6298 B( 20-C , 63-H ) :   0.9710
B( 21-C , 26-C ) :   1.6854 B( 21-C , 64-H ) :   0.9715 B( 22-C , 23-C ) :   1.2540
B( 22-C , 28-C ) :   1.2796 B( 22-C , 29-C ) :   1.2580 B( 23-C , 24-C ) :   1.6360
B( 23-C , 65-H ) :   0.9723 B( 24-C , 66-H ) :   0.9691 B( 25-C , 67-H ) :   0.9762
B( 25-C , 68-H ) :   0.9834 B( 25-C , 69-H ) :   0.9819 B( 26-C , 27-C ) :   1.1696
B( 26-C , 70-H ) :   0.9758 B( 27-C , 29-C ) :   1.2446 B( 28-C , 71-H ) :   0.9709
B( 29-C , 30-C ) :   1.1725 B( 30-C , 32-C ) :   1.3534 B( 31-C , 39-C ) :   1.6873
B( 31-C , 72-H ) :   0.9709 B( 32-C , 37-C ) :   1.5067 B( 32-C , 73-H ) :   0.9771
B( 33-C , 34-C ) :   1.2306 B( 33-C , 39-C ) :   1.2229 B( 33-C , 40-C ) :   1.3633
B( 34-C , 35-C ) :   1.6859 B( 34-C , 74-H ) :   0.9710 B( 35-C , 75-H ) :   0.9709
B( 36-C , 76-H ) :   0.9755 B( 36-C , 77-H ) :   0.9826 B( 36-C , 78-H ) :   0.9838
B( 37-C , 38-C ) :   1.3467 B( 37-C , 79-H ) :   0.9793 B( 38-C , 40-C ) :   1.1766
B( 39-C , 80-H ) :   0.9721 B( 40-C , 41-C ) :   1.1664 B( 41-C , 43-C ) :   1.2579
B( 42-C , 50-C ) :   1.6430 B( 42-C , 81-H ) :   0.9697 B( 43-C , 48-C ) :   1.5932
B( 43-C , 82-H ) :   0.9757 B( 44-C , 45-C ) :   1.2812 B( 44-C , 50-C ) :   1.2476
B( 44-C , 51-C ) :   1.2467 B( 45-C , 46-C ) :   1.6335 B( 45-C , 83-H ) :   0.9702
B( 46-C , 84-H ) :   0.9709 B( 47-C , 85-H ) :   0.9759 B( 47-C , 86-H ) :   0.9825
B( 47-C , 87-H ) :   0.9830 B( 48-C , 49-C ) :   1.2520 B( 48-C , 88-H ) :   0.9725
B( 49-C , 51-C ) :   1.1886 B( 50-C , 89-H ) :   0.9723

MP2 TOTAL ENERGY:    -2130.869496804 Eh
FINAL SINGLE POINT ENERGY     -2130.869496803616

DIPOLE MOMENT
-------------
                                X             Y             Z
Electronic contribution:     -4.79321       5.49638      -0.06705
Nuclear contribution   :      0.05966       0.22814       0.09405
                        -----------------------------------------
Total Dipole Moment    :     -4.73354       5.72453       0.02700
                        -----------------------------------------
Magnitude (a.u.)       :      7.42815
Magnitude (Debye)      :     18.88085

Rotational constants in cm-1:     0.001498     0.001472     0.000763
Rotational constants in MHz :    44.911935    44.130125    22.867770

                             ****ORCA TERMINATED NORMALLY****
TOTAL RUN TIME: 0 days 1 hours 22 minutes 12 seconds 711 msec
