                         Program Version 5.0.4 -  RELEASE  -
|  1> ! PAL2
|  2> ! mp2 cc-pvdz TightSCF  NoKeepInts
|  3>
|  4> %scf
|  5>   MaxCore 2000
|  6> end
|  7> %mp2
|  8>   MaxCore 2000
|  9> end
| 10> * xyz 0 1
| 11>    C       -3.06100         6.47000         0.37300
| 12>    C        1.47400         4.04100         0.05700
| 13>    C       -2.80200         4.09300         0.04900
| 14>    C       -4.17800         4.03200        -0.22200
| 15>    C       -4.94300         5.18100        -0.18900
| 16>    C       -5.22400         7.59500         0.09800
| 17>    C        0.13200         4.30700         0.06100
| 18>    C       -0.56900         3.05600         0.04700
| 19>    C        1.64900         2.61800         0.02300
| 20>    C       -2.25400         5.35000         0.34700
| 21>    N       -4.38400         6.37700         0.10800
| 22>    N        0.38800         2.06700         0.02500
| 23>    N       -2.01000         0.39500        -0.07500
| 24>    N       -0.38800        -2.07400        -0.02700
| 25>    N        2.01000        -0.40100         0.06500
| 26>    C       -1.96000         2.86100         0.02400
| 27>    C       -2.62300         1.61500        -0.01800
| 28>    C       -5.57300        -4.32900         1.06600
| 29>    C       -4.07300         1.47100         0.05600
| 30>    C       -4.10600        -2.75600        -0.02600
| 31>    C       -4.99500        -2.75700        -1.11100
| 32>    C       -6.13200        -3.54200        -1.07600
| 33>    C       -7.65100        -5.11300         0.04000
| 34>    C       -4.32400         0.14100         0.03700
| 35>    C       -3.02500        -0.52000        -0.04800
| 36>    C       -4.42200        -3.56600         1.07500
| 37>    N       -6.40700        -4.31300         0.00100
| 38>    C       -2.86700        -1.92200        -0.04000
| 39>    C       -1.65000        -2.62400        -0.02700
| 40>    C        3.56800        -6.14200        -1.04000
| 41>    C       -1.47600        -4.04900        -0.03400
| 42>    C        2.80300        -4.09900        -0.00800
| 43>    C        3.65700        -4.38400         1.06900
| 44>    C        4.42700        -5.53000         1.05900
| 45>    C        5.24500        -7.58800         0.01400
| 46>    C       -0.13400        -4.31500        -0.02200
| 47>    C        0.56800        -3.06400        -0.02700
| 48>    C        2.77500        -5.01200        -1.07400
| 49>    N        4.37600        -6.39100         0.01700
| 50>    C        1.95900        -2.86900        -0.00900
| 51>    C        2.62100        -1.62200         0.00900
| 52>    C        5.54300         4.33900        -1.13000
| 53>    C        4.07000        -1.47900        -0.09400
| 54>    C        4.10400         2.75100        -0.02100
| 55>    C        5.02700         2.72900         1.03600
| 56>    C        6.16600         3.50900         0.97800
| 57>    C        7.61900         5.15300        -0.11500
| 58>    C        4.32100        -0.14800        -0.09200
| 59>    C        3.02500         0.51400         0.01500
| 60>    C        4.38700         3.58200        -1.11500
| 61>    C        2.86600         1.91600         0.01300
| 62>    N        6.41300         4.29600        -0.09500
| 63>    H       -2.68400         7.45700         0.61100
| 64>    H        2.27400         4.76600         0.08100
| 65>    H       -4.65800         3.09200        -0.46800
| 66>    H       -6.00400         5.18400        -0.39900
| 67>    H       -5.26900         7.98700        -0.92100
| 68>    H       -6.22400         7.33500         0.44400
| 69>    H       -4.77800         8.33400         0.76400
| 70>    H       -0.33200         5.28200         0.06900
| 71>    H       -1.20000         5.46100         0.57900
| 72>    H        0.18200         1.07200         0.00500
| 73>    H       -0.18300        -1.08000        -0.02100
| 74>    H       -5.86400        -4.96200         1.89500
| 75>    H       -4.79400         2.27200         0.13900
| 76>    H       -4.80000        -2.16000        -1.99400
| 77>    H       -6.84100        -3.58200        -1.89300
| 78>    H       -8.42800        -4.53600         0.54600
| 79>    H       -7.95600        -5.33700        -0.98100
| 80>    H       -7.45600        -6.03700         0.58400
| 81>    H       -5.28700        -0.34400         0.10000
| 82>    H       -3.78000        -3.60100         1.94700
| 83>    H        3.58700        -6.86800        -1.84300
| 84>    H       -2.27600        -4.77400        -0.05000
| 85>    H        3.71400        -3.72400         1.92600
| 86>    H        5.09200        -5.79500         1.87100
| 87>    H        6.20500        -7.32900        -0.43900
| 88>    H        5.39300        -7.91700         1.04200
| 89>    H        4.75900        -8.37300        -0.56400
| 90>    H        0.32900        -5.29000        -0.00800
| 91>    H        2.14600        -4.84200        -1.94000
| 92>    H        5.80800         4.98600        -1.95600
| 93>    H        4.78800        -2.28100        -0.18500
| 94>    H        4.86000         2.11400         1.91200
| 95>    H        6.90100         3.53100         1.77200
| 96>    H        7.38300         6.10900         0.35600
| 97>    H        8.41400         4.65200         0.43500
| 98>    H        7.92100         5.31000        -1.15000
| 99>    H        5.28300         0.33600        -0.17900
|100>    H        3.72000         3.63200        -1.96700
|101> *
|102>
|103>                          ****END OF INPUT****

CARTESIAN COORDINATES (ANGSTROEM)
---------------------------------
  C     -3.061000    6.470000    0.373000
  C      1.474000    4.041000    0.057000
  C     -2.802000    4.093000    0.049000
  C     -4.178000    4.032000   -0.222000
  C     -4.943000    5.181000   -0.189000
  C     -5.224000    7.595000    0.098000
  C      0.132000    4.307000    0.061000
  C     -0.569000    3.056000    0.047000
  C      1.649000    2.618000    0.023000
  C     -2.254000    5.350000    0.347000
  N     -4.384000    6.377000    0.108000
  N      0.388000    2.067000    0.025000
  N     -2.010000    0.395000   -0.075000
  N     -0.388000   -2.074000   -0.027000
  N      2.010000   -0.401000    0.065000
  C     -1.960000    2.861000    0.024000
  C     -2.623000    1.615000   -0.018000
  C     -5.573000   -4.329000    1.066000
  C     -4.073000    1.471000    0.056000
  C     -4.106000   -2.756000   -0.026000
  C     -4.995000   -2.757000   -1.111000
  C     -6.132000   -3.542000   -1.076000
  C     -7.651000   -5.113000    0.040000
  C     -4.324000    0.141000    0.037000
  C     -3.025000   -0.520000   -0.048000
  C     -4.422000   -3.566000    1.075000
  N     -6.407000   -4.313000    0.001000
  C     -2.867000   -1.922000   -0.040000
  C     -1.650000   -2.624000   -0.027000
  C      3.568000   -6.142000   -1.040000
  C     -1.476000   -4.049000   -0.034000
  C      2.803000   -4.099000   -0.008000
  C      3.657000   -4.384000    1.069000
  C      4.427000   -5.530000    1.059000
  C      5.245000   -7.588000    0.014000
  C     -0.134000   -4.315000   -0.022000
  C      0.568000   -3.064000   -0.027000
  C      2.775000   -5.012000   -1.074000
  N      4.376000   -6.391000    0.017000
  C      1.959000   -2.869000   -0.009000
  C      2.621000   -1.622000    0.009000
  C      5.543000    4.339000   -1.130000
  C      4.070000   -1.479000   -0.094000
  C      4.104000    2.751000   -0.021000
  C      5.027000    2.729000    1.036000
  C      6.166000    3.509000    0.978000
  C      7.619000    5.153000   -0.115000
  C      4.321000   -0.148000   -0.092000
  C      3.025000    0.514000    0.015000
  C      4.387000    3.582000   -1.115000
  C      2.866000    1.916000    0.013000
  N      6.413000    4.296000   -0.095000
  H     -2.684000    7.457000    0.611000
  H      2.274000    4.766000    0.081000
  H     -4.658000    3.092000   -0.468000
  H     -6.004000    5.184000   -0.399000
  H     -5.269000    7.987000   -0.921000
  H     -6.224000    7.335000    0.444000
  H     -4.778000    8.334000    0.764000
  H     -0.332000    5.282000    0.069000
  H     -1.200000    5.461000    0.579000
  H      0.182000    1.072000    0.005000
  H     -0.183000   -1.080000   -0.021000
  H     -5.864000   -4.962000    1.895000
  H     -4.794000    2.272000    0.139000
  H     -4.800000   -2.160000   -1.994000
  H     -6.841000   -3.582000   -1.893000
  H     -8.428000   -4.536000    0.546000
  H     -7.956000   -5.337000   -0.981000
  H     -7.456000   -6.037000    0.584000
  H     -5.287000   -0.344000    0.100000
  H     -3.780000   -3.601000    1.947000
  H      3.587000   -6.868000   -1.843000
  H     -2.276000   -4.774000   -0.050000
  H      3.714000   -3.724000    1.926000
  H      5.092000   -5.795000    1.871000
  H      6.205000   -7.329000   -0.439000
  H      5.393000   -7.917000    1.042000
  H      4.759000   -8.373000   -0.564000
  H      0.329000   -5.290000   -0.008000
  H      2.146000   -4.842000   -1.940000
  H      5.808000    4.986000   -1.956000
  H      4.788000   -2.281000   -0.185000
  H      4.860000    2.114000    1.912000
  H      6.901000    3.531000    1.772000
  H      7.383000    6.109000    0.356000
  H      8.414000    4.652000    0.435000
  H      7.921000    5.310000   -1.150000
  H      5.283000    0.336000   -0.179000
  H      3.720000    3.632000   -1.967000

 Total Charge           Charge          ....    0
 Multiplicity           Mult            ....    1
 Number of Electrons    NEL             ....  358
 Basis Dimension        Dim             ....  918

ORBITAL ENERGIES
----------------

  NO   OCC          E(Eh)            E(eV)
   0   2.0000     -15.680202      -426.6800
   1   2.0000     -15.634871      -425.4465
   2   2.0000     -15.631131      -425.3447
   3   2.0000     -15.587176      -424.1486
   4   2.0000     -15.525462      -422.4693
   5   2.0000     -15.515371      -422.1947
   6   2.0000     -15.453708      -420.5168
   7   2.0000     -15.440288      -420.1516
   8   2.0000     -11.329866      -308.3013
   9   2.0000     -11.328588      -308.2665
  10   2.0000     -11.328182      -308.2555
  11   2.0000     -11.299883      -307.4854
  12   2.0000     -11.297921      -307.4320
  13   2.0000     -11.293755      -307.3187
  14   2.0000     -11.290646      -307.2341
  15   2.0000     -11.287387      -307.1454
  16   2.0000     -11.285901      -307.1050
  17   2.0000     -11.282441      -307.0108
  18   2.0000     -11.269570      -306.6606
  19   2.0000     -11.263669      -306.5000
  20   2.0000     -11.262679      -306.4731
  21   2.0000     -11.251558      -306.1705
  22   2.0000     -11.247947      -306.0722
  23   2.0000     -11.238630      -305.8187
  24   2.0000     -11.235939      -305.7455
  25   2.0000     -11.231818      -305.6333
  26   2.0000     -11.231167      -305.6156
  27   2.0000     -11.229218      -305.5626
  28   2.0000     -11.228917      -305.5544
  29   2.0000     -11.211604      -305.0833
  30   2.0000     -11.210183      -305.0446
  31   2.0000     -11.193517      -304.5911
  32   2.0000     -11.191749      -304.5430
  33   2.0000     -11.190712      -304.5148
  34   2.0000     -11.188190      -304.4461
  35   2.0000     -11.188019      -304.4415
  36   2.0000     -11.186805      -304.4084
  37   2.0000     -11.176322      -304.1232
  38   2.0000     -11.175247      -304.0939
  39   2.0000     -11.173764      -304.0536
  40   2.0000     -11.172902      -304.0301
  41   2.0000     -11.170107      -303.9541
  42   2.0000     -11.169062      -303.9256
  43   2.0000     -11.161766      -303.7271
  44   2.0000     -11.160370      -303.6891
  45   2.0000     -11.156966      -303.5965
  46   2.0000     -11.156322      -303.5789
  47   2.0000     -11.152837      -303.4841
  48   2.0000     -11.146206      -303.3037
  49   2.0000     -11.134899      -302.9960
  50   2.0000     -11.129822      -302.8578
  51   2.0000     -11.117129      -302.5125
  52   2.0000      -1.360726       -37.0272
  53   2.0000      -1.321999       -35.9734
  54   2.0000      -1.319013       -35.8922
  55   2.0000      -1.280106       -34.8335
  56   2.0000      -1.226641       -33.3786
  57   2.0000      -1.209972       -32.9250
  58   2.0000      -1.173333       -31.9280
  59   2.0000      -1.150990       -31.3200
  60   2.0000      -1.143937       -31.1281
  61   2.0000      -1.110834       -30.2273
  62   2.0000      -1.108524       -30.1645
  63   2.0000      -1.082397       -29.4535
  64   2.0000      -1.076707       -29.2987
  65   2.0000      -1.046159       -28.4674
  66   2.0000      -1.043683       -28.4001
  67   2.0000      -1.041387       -28.3376
  68   2.0000      -1.015172       -27.6242
  69   2.0000      -1.012521       -27.5521
  70   2.0000      -1.008694       -27.4479
  71   2.0000      -0.994033       -27.0490
  72   2.0000      -0.985466       -26.8159
  73   2.0000      -0.981982       -26.7211
  74   2.0000      -0.972680       -26.4680
  75   2.0000      -0.961857       -26.1735
  76   2.0000      -0.954493       -25.9731
  77   2.0000      -0.945598       -25.7310
  78   2.0000      -0.936760       -25.4905
  79   2.0000      -0.916934       -24.9510
  80   2.0000      -0.910811       -24.7844
  81   2.0000      -0.896814       -24.4036
  82   2.0000      -0.876791       -23.8587
  83   2.0000      -0.872987       -23.7552
  84   2.0000      -0.870065       -23.6757
  85   2.0000      -0.859314       -23.3831
  86   2.0000      -0.841117       -22.8880
  87   2.0000      -0.836647       -22.7663
  88   2.0000      -0.827174       -22.5086
  89   2.0000      -0.796612       -21.6769
  90   2.0000      -0.788924       -21.4677
  91   2.0000      -0.761105       -20.7107
  92   2.0000      -0.753007       -20.4904
  93   2.0000      -0.733968       -19.9723
  94   2.0000      -0.726710       -19.7748
  95   2.0000      -0.723919       -19.6988
  96   2.0000      -0.718623       -19.5547
  97   2.0000      -0.716630       -19.5005
  98   2.0000      -0.711741       -19.3675
  99   2.0000      -0.698554       -19.0086
 100   2.0000      -0.697043       -18.9675
 101   2.0000      -0.690317       -18.7845
 102   2.0000      -0.685421       -18.6512
 103   2.0000      -0.684491       -18.6259
 104   2.0000      -0.679061       -18.4782
 105   2.0000      -0.674202       -18.3460
 106   2.0000      -0.672367       -18.2960
 107   2.0000      -0.660244       -17.9662
 108   2.0000      -0.657661       -17.8959
 109   2.0000      -0.653454       -17.7814
 110   2.0000      -0.651409       -17.7258
 111   2.0000      -0.646441       -17.5906
 112   2.0000      -0.645352       -17.5609
 113   2.0000      -0.637623       -17.3506
 114   2.0000      -0.636025       -17.3071
 115   2.0000      -0.627699       -17.0806
 116   2.0000      -0.622086       -16.9278
 117   2.0000      -0.620597       -16.8873
 118   2.0000      -0.613499       -16.6942
 119   2.0000      -0.612904       -16.6780
 120   2.0000      -0.611665       -16.6443
 121   2.0000      -0.610858       -16.6223
 122   2.0000      -0.600429       -16.3385
 123   2.0000      -0.587913       -15.9979
 124   2.0000      -0.582168       -15.8416
 125   2.0000      -0.580717       -15.8021
 126   2.0000      -0.579866       -15.7789
 127   2.0000      -0.571584       -15.5536
 128   2.0000      -0.568392       -15.4667
 129   2.0000      -0.559715       -15.2306
 130   2.0000      -0.553809       -15.0699
 131   2.0000      -0.548175       -14.9166
 132   2.0000      -0.543020       -14.7763
 133   2.0000      -0.541433       -14.7332
 134   2.0000      -0.539015       -14.6673
 135   2.0000      -0.535542       -14.5728
 136   2.0000      -0.530726       -14.4418
 137   2.0000      -0.518457       -14.1079
 138   2.0000      -0.517995       -14.0954
 139   2.0000      -0.514297       -13.9947
 140   2.0000      -0.512238       -13.9387
 141   2.0000      -0.510424       -13.8893
 142   2.0000      -0.509111       -13.8536
 143   2.0000      -0.504204       -13.7201
 144   2.0000      -0.501628       -13.6500
 145   2.0000      -0.495292       -13.4776
 146   2.0000      -0.489831       -13.3290
 147   2.0000      -0.481416       -13.1000
 148   2.0000      -0.477150       -12.9839
 149   2.0000      -0.467822       -12.7301
 150   2.0000      -0.466087       -12.6829
 151   2.0000      -0.456779       -12.4296
 152   2.0000      -0.451351       -12.2819
 153   2.0000      -0.445322       -12.1178
 154   2.0000      -0.438780       -11.9398
 155   2.0000      -0.427452       -11.6316
 156   2.0000      -0.409311       -11.1379
 157   2.0000      -0.401276       -10.9193
 158   2.0000      -0.393204       -10.6996
 159   2.0000      -0.387900       -10.5553
 160   2.0000      -0.383232       -10.4283
 161   2.0000      -0.377211       -10.2644
 162   2.0000      -0.370609       -10.0848
 163   2.0000      -0.357281        -9.7221
 164   2.0000      -0.355374        -9.6702
 165   2.0000      -0.341726        -9.2988
 166   2.0000      -0.337856        -9.1935
 167   2.0000      -0.325287        -8.8515
 168   2.0000      -0.320214        -8.7135
 169   2.0000      -0.305895        -8.3238
 170   2.0000      -0.299275        -8.1437
 171   2.0000      -0.285093        -7.7578
 172   2.0000      -0.278688        -7.5835
 173   2.0000      -0.263361        -7.1664
 174   2.0000      -0.241568        -6.5734
 175   2.0000      -0.190089        -5.1726
 176   2.0000      -0.181073        -4.9272
 177   2.0000      -0.079771        -2.1707
 178   2.0000      -0.059696        -1.6244
 179   0.0000       0.028199         0.7673
 180   0.0000       0.065122         1.7721
 181   0.0000       0.090236         2.4554
 182   0.0000       0.105968         2.8835
 183   0.0000       0.115256         3.1363

MULLIKEN ATOMIC CHARGES
-----------------------
   0 C :    0.222428
   1 N :   -0.456450
   2 C :   -0.077101
   3 N :   -0.341026
   4 C :   -0.067707
   5 N :   -0.567314
   6 C :   -0.114525
   7 N :   -0.341018
   8 C :    0.212429
   9 N :   -0.562400
  10 C :    0.118991
  11 N :   -0.438283
  12 C :   -0.055214
  13 N :   -0.429230
  14 C :    0.211727
  15 N :   -0.441087
  16 C :    0.233608
  17 C :   -0.127206
  18 C :   -0.156214
  19 C :    0.201545
  20 C :    0.214234
  21 C :   -0.066893
  22 C :   -0.089473
  23 C :   -0.039661
  24 C :    0.193864
  25 C :    0.114480
  26 C :   -0.091372
  27 C :    0.214472
  28 C :   -0.061713
  29 C :   -0.183375
  30 C :    0.246353
  31 C :    0.230835
  32 C :   -0.061450
  33 C :   -0.059995
  34 C :   -0.050819
  35 C :    0.228439
  36 C :    0.108159
  37 C :   -0.064194
  38 C :    0.231259
  39 C :   -0.057939
  40 C :   -0.180977
  41 C :    0.225519
  42 C :    0.197228
  43 C :   -0.072560
  44 C :   -0.090102
  45 C :   -0.061738
  46 C :    0.211427
  47 C :    0.115425
  48 C :   -0.066781
  49 C :    0.238449
  50 C :   -0.046033
  51 C :   -0.194871
  52 H :    0.035819
  53 H :   -0.018035
  54 H :    0.048503
  55 H :    0.033689
  56 H :    0.048871
  57 H :    0.048130
  58 H :    0.046158
  59 H :   -0.009546
  60 H :    0.046591
  61 H :    0.170997
  62 H :    0.175676
  63 H :    0.055629
  64 H :   -0.015619
  65 H :    0.046909
  66 H :    0.055785
  67 H :    0.062776
  68 H :    0.057331
  69 H :    0.056534
  70 H :   -0.029949
  71 H :    0.045146
  72 H :    0.071613
  73 H :   -0.007849
  74 H :    0.060700
  75 H :    0.071027
  76 H :    0.075227
  77 H :    0.068197
  78 H :    0.067457
  79 H :   -0.016508
  80 H :    0.061546
  81 H :    0.054367
  82 H :   -0.025121
  83 H :    0.041590
  84 H :    0.053972
  85 H :    0.060753
  86 H :    0.055385
  87 H :    0.057189
  88 H :   -0.014348
  89 H :    0.047257
Sum of atomic charges:   -0.0000000

LOEWDIN ATOMIC CHARGES
----------------------
   0 C :   -0.017354
   1 N :    0.119792
   2 C :   -0.101829
   3 N :    0.182766
   4 C :   -0.013578
   5 N :   -0.133105
   6 C :   -0.031535
   7 N :    0.175012
   8 C :   -0.024642
   9 N :   -0.140668
  10 C :    0.022921
  11 N :    0.142342
  12 C :   -0.108025
  13 N :    0.166698
  14 C :   -0.019124
  15 N :    0.138539
  16 C :   -0.059981
  17 C :   -0.039520
  18 C :   -0.109241
  19 C :   -0.075979
  20 C :    0.005369
  21 C :   -0.116621
  22 C :    0.038005
  23 C :   -0.014507
  24 C :   -0.012314
  25 C :    0.029913
  26 C :   -0.109138
  27 C :   -0.117365
  28 C :   -0.027426
  29 C :   -0.099119
  30 C :   -0.029809
  31 C :    0.024997
  32 C :   -0.093914
  33 C :    0.082704
  34 C :   -0.014829
  35 C :    0.023220
  36 C :    0.035338
  37 C :   -0.093835
  38 C :   -0.051845
  39 C :   -0.017657
  40 C :   -0.108449
  41 C :   -0.091989
  42 C :   -0.010595
  43 C :   -0.099283
  44 C :    0.033226
  45 C :   -0.028537
  46 C :    0.001737
  47 C :    0.029448
  48 C :   -0.095010
  49 C :   -0.068805
  50 C :   -0.018545
  51 C :   -0.109475
  52 H :    0.022509
  53 H :    0.002391
  54 H :    0.016171
  55 H :    0.021841
  56 H :    0.021675
  57 H :    0.026425
  58 H :    0.026537
  59 H :    0.007074
  60 H :    0.014020
  61 H :    0.060100
  62 H :    0.061958
  63 H :    0.030903
  64 H :    0.006373
  65 H :    0.045828
  66 H :    0.029308
  67 H :    0.028391
  68 H :    0.031673
  69 H :    0.030379
  70 H :   -0.004810
  71 H :    0.043630
  72 H :    0.037865
  73 H :    0.007206
  74 H :    0.050829
  75 H :    0.037512
  76 H :    0.034959
  77 H :    0.036280
  78 H :    0.035948
  79 H :    0.003004
  80 H :    0.050837
  81 H :    0.029074
  82 H :   -0.002865
  83 H :    0.042344
  84 H :    0.029791
  85 H :    0.027326
  86 H :    0.030107
  87 H :    0.031395
  88 H :    0.002456
  89 H :    0.045177

  Mayer bond orders larger than 0.100000
B(  0-C ,  1-N ) :   1.0999 B(  0-C , 17-C ) :   1.7160 B(  0-C , 52-H ) :   0.9622
B(  1-N ,  8-C ) :   1.0873 B(  1-N , 10-C ) :   0.9782 B(  2-C , 12-C ) :   1.4883
B(  2-C , 16-C ) :   1.3719 B(  2-C , 53-H ) :   0.9733 B(  3-N , 14-C ) :   1.2211
B(  3-N , 16-C ) :   1.1827 B(  3-N , 61-H ) :   0.8989 B(  4-C ,  6-C ) :   1.2161
B(  4-C , 17-C ) :   1.2167 B(  4-C , 18-C ) :   1.4740 B(  5-N , 19-C ) :   1.4576
B(  5-N , 27-C ) :   1.3717 B(  6-C ,  8-C ) :   1.7220 B(  6-C , 54-H ) :   0.8995
B(  7-N , 30-C ) :   1.1950 B(  7-N , 38-C ) :   1.1897 B(  7-N , 62-H ) :   0.8967
B(  8-C , 55-H ) :   0.9634 B(  9-N , 41-C ) :   1.3931 B(  9-N , 49-C ) :   1.4266
B( 10-C , 56-H ) :   0.9775 B( 10-C , 57-H ) :   0.9830 B( 10-C , 58-H ) :   0.9834
B( 11-N , 20-C ) :   1.1318 B( 11-N , 24-C ) :   1.1075 B( 11-N , 25-C ) :   0.9598
B( 12-C , 14-C ) :   1.3590 B( 12-C , 59-H ) :   0.9406 B( 13-N , 31-C ) :   1.1625
B( 13-N , 35-C ) :   1.1605 B( 13-N , 36-C ) :   0.9411 B( 14-C , 18-C ) :   1.1172
B( 15-N , 42-C ) :   1.1073 B( 15-N , 46-C ) :   1.1242 B( 15-N , 47-C ) :   0.9615
B( 16-C , 51-C ) :   1.1669 B( 17-C , 60-H ) :   0.9031 B( 18-C , 19-C ) :   1.1150
B( 19-C , 21-C ) :   1.2528 B( 20-C , 28-C ) :   1.6279 B( 20-C , 63-H ) :   0.9702
B( 21-C , 26-C ) :   1.5842 B( 21-C , 64-H ) :   0.9377 B( 22-C , 23-C ) :   1.2902
B( 22-C , 28-C ) :   1.2645 B( 22-C , 29-C ) :   1.2253 B( 23-C , 24-C ) :   1.6193
B( 23-C , 65-H ) :   0.9703 B( 24-C , 66-H ) :   0.9695 B( 25-C , 67-H ) :   0.9760
B( 25-C , 68-H ) :   0.9828 B( 25-C , 69-H ) :   0.9823 B( 26-C , 27-C ) :   1.2589
B( 26-C , 70-H ) :   0.9672 B( 27-C , 29-C ) :   1.2056 B( 28-C , 71-H ) :   0.9720
B( 29-C , 30-C ) :   1.2480 B( 30-C , 32-C ) :   1.2774 B( 31-C , 39-C ) :   1.5871
B( 31-C , 72-H ) :   0.9681 B( 32-C , 37-C ) :   1.5815 B( 32-C , 73-H ) :   0.9786
B( 33-C , 34-C ) :   1.3080 B( 33-C , 39-C ) :   1.3044 B( 33-C , 40-C ) :   1.1744
B( 34-C , 35-C ) :   1.5845 B( 34-C , 74-H ) :   0.9696 B( 35-C , 75-H ) :   0.9681
B( 36-C , 76-H ) :   0.9768 B( 36-C , 77-H ) :   0.9815 B( 36-C , 78-H ) :   0.9823
B( 37-C , 38-C ) :   1.2834 B( 37-C , 79-H ) :   0.9765 B( 38-C , 40-C ) :   1.2353
B( 39-C , 80-H ) :   0.9705 B( 40-C , 41-C ) :   1.2510 B( 41-C , 43-C ) :   1.1847
B( 42-C , 50-C ) :   1.6338 B( 42-C , 81-H ) :   0.9696 B( 43-C , 48-C ) :   1.6680
B( 43-C , 82-H ) :   0.9720 B( 44-C , 45-C ) :   1.2628 B( 44-C , 50-C ) :   1.2717
B( 44-C , 51-C ) :   1.2622 B( 45-C , 46-C ) :   1.6352 B( 45-C , 83-H ) :   0.9719
B( 46-C , 84-H ) :   0.9700 B( 47-C , 85-H ) :   0.9762 B( 47-C , 86-H ) :   0.9829
B( 47-C , 87-H ) :   0.9824 B( 48-C , 49-C ) :   1.1882 B( 48-C , 88-H ) :   0.9749
B( 49-C , 51-C ) :   1.2444 B( 50-C , 89-H ) :   0.9708

MP2 TOTAL ENERGY:    -2130.810622055 Eh
FINAL SINGLE POINT ENERGY     -2130.810622055262

DIPOLE MOMENT
-------------
                                X             Y             Z
Electronic contribution:      2.79755      -4.40850      -0.07454
Nuclear contribution   :     -0.02449       0.16992       0.08728
                        -----------------------------------------
Total Dipole Moment    :      2.77306      -4.23858       0.01274
                        -----------------------------------------
Magnitude (a.u.)       :      5.06514
Magnitude (Debye)      :     12.87455

Rotational constants in cm-1:     0.001503     0.001477     0.000760
Rotational constants in MHz :    45.067599    44.288904    22.785003

                             ****ORCA TERMINATED NORMALLY****
TOTAL RUN TIME: 0 days 1 hours 5 minutes 50 seconds 220 msec
