                         Program Version 5.0.4 -  RELEASE  -
|  1> ! PAL2
|  2> ! mp2 cc-pvdz TightSCF  NoKeepInts
|  3>
|  4> %scf
|  5>   MaxCore 2000
|  6> end
|  7> %mp2
|  8>   MaxCore 2000
|  9> end
| 10> * xyz 0 1
| 11>    C       -4.94700         5.18400         0.22600
| 12>    C        1.47400         4.04100         0.05700
| 13>    C       -2.80200         4.09300         0.04900
| 14>    C       -2.22500         5.36400        -0.10200
| 15>    C       -3.02000         6.49200        -0.08200
| 16>    C       -5.17900         7.62500         0.13300
| 17>    C        0.13200         4.30700         0.06100
| 18>    C       -0.56900         3.05600         0.04700
| 19>    C        1.64900         2.61800         0.02300
| 20>    C       -4.19400         4.02700         0.21800
| 21>    N       -4.36000         6.39400         0.07700
| 22>    N        0.38800         2.06700         0.02500
| 23>    N       -2.01000         0.39500        -0.07500
| 24>    N       -0.38800        -2.07400        -0.02700
| 25>    N        2.01000        -0.40100         0.06500
| 26>    C       -1.96000         2.86100         0.02400
| 27>    C       -2.62300         1.61500        -0.01800
| 28>    C       -5.57300        -4.32900         1.06600
| 29>    C       -4.07300         1.47100         0.05600
| 30>    C       -4.10600        -2.75600        -0.02600
| 31>    C       -4.99500        -2.75700        -1.11100
| 32>    C       -6.13200        -3.54200        -1.07600
| 33>    C       -7.65100        -5.11300         0.04000
| 34>    C       -4.32400         0.14100         0.03700
| 35>    C       -3.02500        -0.52000        -0.04800
| 36>    C       -4.42200        -3.56600         1.07500
| 37>    N       -6.40700        -4.31300         0.00100
| 38>    C       -2.86700        -1.92200        -0.04000
| 39>    C       -1.65000        -2.62400        -0.02700
| 40>    C        3.56800        -6.14200        -1.04000
| 41>    C       -1.47600        -4.04900        -0.03400
| 42>    C        2.80300        -4.09900        -0.00800
| 43>    C        3.65700        -4.38400         1.06900
| 44>    C        4.42700        -5.53000         1.05900
| 45>    C        5.24500        -7.58800         0.01400
| 46>    C       -0.13400        -4.31500        -0.02200
| 47>    C        0.56800        -3.06400        -0.02700
| 48>    C        2.77500        -5.01200        -1.07400
| 49>    N        4.37600        -6.39100         0.01700
| 50>    C        1.95900        -2.86900        -0.00900
| 51>    C        2.62100        -1.62200         0.00900
| 52>    C        5.54300         4.33900        -1.13000
| 53>    C        4.07000        -1.47900        -0.09400
| 54>    C        4.10400         2.75100        -0.02100
| 55>    C        5.02700         2.72900         1.03600
| 56>    C        6.16600         3.50900         0.97800
| 57>    C        7.61900         5.15300        -0.11500
| 58>    C        4.32100        -0.14800        -0.09200
| 59>    C        3.02500         0.51400         0.01500
| 60>    C        4.38700         3.58200        -1.11500
| 61>    C        2.86600         1.91600         0.01300
| 62>    N        6.41300         4.29600        -0.09500
| 63>    H       -6.02400         5.18000         0.34100
| 64>    H        2.27400         4.76600         0.08100
| 65>    H       -1.15600         5.48100        -0.22700
| 66>    H       -2.62000         7.49300        -0.18500
| 67>    H       -5.19000         7.99800         1.15900
| 68>    H       -4.74100         8.36800        -0.53300
| 69>    H       -6.19300         7.38600        -0.18900
| 70>    H       -0.33200         5.28200         0.06900
| 71>    H       -4.70000         3.07400         0.32600
| 72>    H        0.18200         1.07200         0.00500
| 73>    H       -0.18300        -1.08000        -0.02100
| 74>    H       -5.86400        -4.96200         1.89500
| 75>    H       -4.79400         2.27200         0.13900
| 76>    H       -4.80000        -2.16000        -1.99400
| 77>    H       -6.84100        -3.58200        -1.89300
| 78>    H       -8.42800        -4.53600         0.54600
| 79>    H       -7.95600        -5.33700        -0.98100
| 80>    H       -7.45600        -6.03700         0.58400
| 81>    H       -5.28700        -0.34400         0.10000
| 82>    H       -3.78000        -3.60100         1.94700
| 83>    H        3.58700        -6.86800        -1.84300
| 84>    H       -2.27600        -4.77400        -0.05000
| 85>    H        3.71400        -3.72400         1.92600
| 86>    H        5.09200        -5.79500         1.87100
| 87>    H        6.20500        -7.32900        -0.43900
| 88>    H        5.39300        -7.91700         1.04200
| 89>    H        4.75900        -8.37300        -0.56400
| 90>    H        0.32900        -5.29000        -0.00800
| 91>    H        2.14600        -4.84200        -1.94000
| 92>    H        5.80800         4.98600        -1.95600
| 93>    H        4.78800        -2.28100        -0.18500
| 94>    H        4.86000         2.11400         1.91200
| 95>    H        6.90100         3.53100         1.77200
| 96>    H        7.38300         6.10900         0.35600
| 97>    H        8.41400         4.65200         0.43500
| 98>    H        7.92100         5.31000        -1.15000
| 99>    H        5.28300         0.33600        -0.17900
|100>    H        3.72000         3.63200        -1.96700
|101> *
|102>
|103>                          ****END OF INPUT****

CARTESIAN COORDINATES (ANGSTROEM)
---------------------------------
  C     -4.947000    5.184000    0.226000
  C      1.474000    4.041000    0.057000
  C     -2.802000    4.093000    0.049000
  C     -2.225000    5.364000   -0.102000
  C     -3.020000    6.492000   -0.082000
  C     -5.179000    7.625000    0.133000
  C      0.132000    4.307000    0.061000
  C     -0.569000    3.056000    0.047000
  C      1.649000    2.618000    0.023000
  C     -4.194000    4.027000    0.218000
  N     -4.360000    6.394000    0.077000
  N      0.388000    2.067000    0.025000
  N     -2.010000    0.395000   -0.075000
  N     -0.388000   -2.074000   -0.027000
  N      2.010000   -0.401000    0.065000
  C     -1.960000    2.861000    0.024000
  C     -2.623000    1.615000   -0.018000
  C     -5.573000   -4.329000    1.066000
  C     -4.073000    1.471000    0.056000
  C     -4.106000   -2.756000   -0.026000
  C     -4.995000   -2.757000   -1.111000
  C     -6.132000   -3.542000   -1.076000
  C     -7.651000   -5.113000    0.040000
  C     -4.324000    0.141000    0.037000
  C     -3.025000   -0.520000   -0.048000
  C     -4.422000   -3.566000    1.075000
  N     -6.407000   -4.313000    0.001000
  C     -2.867000   -1.922000   -0.040000
  C     -1.650000   -2.624000   -0.027000
  C      3.568000   -6.142000   -1.040000
  C     -1.476000   -4.049000   -0.034000
  C      2.803000   -4.099000   -0.008000
  C      3.657000   -4.384000    1.069000
  C      4.427000   -5.530000    1.059000
  C      5.245000   -7.588000    0.014000
  C     -0.134000   -4.315000   -0.022000
  C      0.568000   -3.064000   -0.027000
  C      2.775000   -5.012000   -1.074000
  N      4.376000   -6.391000    0.017000
  C      1.959000   -2.869000   -0.009000
  C      2.621000   -1.622000    0.009000
  C      5.543000    4.339000   -1.130000
  C      4.070000   -1.479000   -0.094000
  C      4.104000    2.751000   -0.021000
  C      5.027000    2.729000    1.036000
  C      6.166000    3.509000    0.978000
  C      7.619000    5.153000   -0.115000
  C      4.321000   -0.148000   -0.092000
  C      3.025000    0.514000    0.015000
  C      4.387000    3.582000   -1.115000
  C      2.866000    1.916000    0.013000
  N      6.413000    4.296000   -0.095000
  H     -6.024000    5.180000    0.341000
  H      2.274000    4.766000    0.081000
  H     -1.156000    5.481000   -0.227000
  H     -2.620000    7.493000   -0.185000
  H     -5.190000    7.998000    1.159000
  H     -4.741000    8.368000   -0.533000
  H     -6.193000    7.386000   -0.189000
  H     -0.332000    5.282000    0.069000
  H     -4.700000    3.074000    0.326000
  H      0.182000    1.072000    0.005000
  H     -0.183000   -1.080000   -0.021000
  H     -5.864000   -4.962000    1.895000
  H     -4.794000    2.272000    0.139000
  H     -4.800000   -2.160000   -1.994000
  H     -6.841000   -3.582000   -1.893000
  H     -8.428000   -4.536000    0.546000
  H     -7.956000   -5.337000   -0.981000
  H     -7.456000   -6.037000    0.584000
  H     -5.287000   -0.344000    0.100000
  H     -3.780000   -3.601000    1.947000
  H      3.587000   -6.868000   -1.843000
  H     -2.276000   -4.774000   -0.050000
  H      3.714000   -3.724000    1.926000
  H      5.092000   -5.795000    1.871000
  H      6.205000   -7.329000   -0.439000
  H      5.393000   -7.917000    1.042000
  H      4.759000   -8.373000   -0.564000
  H      0.329000   -5.290000   -0.008000
  H      2.146000   -4.842000   -1.940000
  H      5.808000    4.986000   -1.956000
  H      4.788000   -2.281000   -0.185000
  H      4.860000    2.114000    1.912000
  H      6.901000    3.531000    1.772000
  H      7.383000    6.109000    0.356000
  H      8.414000    4.652000    0.435000
  H      7.921000    5.310000   -1.150000
  H      5.283000    0.336000   -0.179000
  H      3.720000    3.632000   -1.967000

 Total Charge           Charge          ....    0
 Multiplicity           Mult            ....    1
 Number of Electrons    NEL             ....  358
 Basis Dimension        Dim             ....  918

ORBITAL ENERGIES
----------------

  NO   OCC          E(Eh)            E(eV)
   0   2.0000     -15.679876      -426.6711
   1   2.0000     -15.633736      -425.4156
   2   2.0000     -15.632034      -425.3693
   3   2.0000     -15.588071      -424.1730
   4   2.0000     -15.525050      -422.4581
   5   2.0000     -15.515508      -422.1984
   6   2.0000     -15.453766      -420.5184
   7   2.0000     -15.439519      -420.1307
   8   2.0000     -11.329469      -308.2905
   9   2.0000     -11.328433      -308.2623
  10   2.0000     -11.327972      -308.2498
  11   2.0000     -11.299187      -307.4665
  12   2.0000     -11.298496      -307.4477
  13   2.0000     -11.292846      -307.2940
  14   2.0000     -11.291379      -307.2540
  15   2.0000     -11.286713      -307.1271
  16   2.0000     -11.286285      -307.1154
  17   2.0000     -11.282107      -307.0017
  18   2.0000     -11.269634      -306.6623
  19   2.0000     -11.263378      -306.4921
  20   2.0000     -11.262385      -306.4651
  21   2.0000     -11.250606      -306.1445
  22   2.0000     -11.248775      -306.0947
  23   2.0000     -11.237512      -305.7883
  24   2.0000     -11.236799      -305.7689
  25   2.0000     -11.230969      -305.6102
  26   2.0000     -11.230243      -305.5905
  27   2.0000     -11.229878      -305.5805
  28   2.0000     -11.229711      -305.5760
  29   2.0000     -11.211039      -305.0679
  30   2.0000     -11.209537      -305.0270
  31   2.0000     -11.194165      -304.6087
  32   2.0000     -11.192059      -304.5514
  33   2.0000     -11.191333      -304.5316
  34   2.0000     -11.188412      -304.4522
  35   2.0000     -11.188145      -304.4449
  36   2.0000     -11.186965      -304.4128
  37   2.0000     -11.174626      -304.0770
  38   2.0000     -11.172439      -304.0175
  39   2.0000     -11.172222      -304.0116
  40   2.0000     -11.170789      -303.9726
  41   2.0000     -11.168373      -303.9069
  42   2.0000     -11.168286      -303.9045
  43   2.0000     -11.161864      -303.7298
  44   2.0000     -11.161023      -303.7069
  45   2.0000     -11.156666      -303.5883
  46   2.0000     -11.156502      -303.5839
  47   2.0000     -11.151316      -303.4427
  48   2.0000     -11.146920      -303.3231
  49   2.0000     -11.135376      -303.0090
  50   2.0000     -11.129763      -302.8563
  51   2.0000     -11.117854      -302.5322
  52   2.0000      -1.360442       -37.0195
  53   2.0000      -1.321016       -35.9467
  54   2.0000      -1.319791       -35.9133
  55   2.0000      -1.280178       -34.8354
  56   2.0000      -1.226140       -33.3650
  57   2.0000      -1.210410       -32.9369
  58   2.0000      -1.173444       -31.9310
  59   2.0000      -1.150765       -31.3139
  60   2.0000      -1.143676       -31.1210
  61   2.0000      -1.110255       -30.2116
  62   2.0000      -1.108946       -30.1760
  63   2.0000      -1.082117       -29.4459
  64   2.0000      -1.077420       -29.3181
  65   2.0000      -1.045209       -28.4416
  66   2.0000      -1.044433       -28.4205
  67   2.0000      -1.041123       -28.3304
  68   2.0000      -1.014896       -27.6167
  69   2.0000      -1.014682       -27.6109
  70   2.0000      -1.009148       -27.4603
  71   2.0000      -0.993533       -27.0354
  72   2.0000      -0.985621       -26.8201
  73   2.0000      -0.981821       -26.7167
  74   2.0000      -0.973884       -26.5007
  75   2.0000      -0.962225       -26.1835
  76   2.0000      -0.954787       -25.9811
  77   2.0000      -0.946590       -25.7580
  78   2.0000      -0.939119       -25.5547
  79   2.0000      -0.916799       -24.9474
  80   2.0000      -0.910635       -24.7796
  81   2.0000      -0.898103       -24.4386
  82   2.0000      -0.877165       -23.8689
  83   2.0000      -0.872152       -23.7325
  84   2.0000      -0.870917       -23.6989
  85   2.0000      -0.861241       -23.4356
  86   2.0000      -0.845059       -22.9952
  87   2.0000      -0.837876       -22.7998
  88   2.0000      -0.829055       -22.5597
  89   2.0000      -0.796424       -21.6718
  90   2.0000      -0.789194       -21.4751
  91   2.0000      -0.773052       -21.0358
  92   2.0000      -0.753073       -20.4922
  93   2.0000      -0.734024       -19.9738
  94   2.0000      -0.728051       -19.8113
  95   2.0000      -0.726374       -19.7656
  96   2.0000      -0.720336       -19.6013
  97   2.0000      -0.717765       -19.5314
  98   2.0000      -0.713995       -19.4288
  99   2.0000      -0.699562       -19.0361
 100   2.0000      -0.698353       -19.0031
 101   2.0000      -0.694451       -18.8970
 102   2.0000      -0.685421       -18.6513
 103   2.0000      -0.684357       -18.6223
 104   2.0000      -0.678895       -18.4737
 105   2.0000      -0.674488       -18.3537
 106   2.0000      -0.672796       -18.3077
 107   2.0000      -0.660843       -17.9824
 108   2.0000      -0.658221       -17.9111
 109   2.0000      -0.652801       -17.7636
 110   2.0000      -0.652140       -17.7456
 111   2.0000      -0.646242       -17.5852
 112   2.0000      -0.645712       -17.5707
 113   2.0000      -0.638049       -17.3622
 114   2.0000      -0.635680       -17.2977
 115   2.0000      -0.628655       -17.1066
 116   2.0000      -0.623111       -16.9557
 117   2.0000      -0.620839       -16.8939
 118   2.0000      -0.613013       -16.6809
 119   2.0000      -0.612155       -16.6576
 120   2.0000      -0.611803       -16.6480
 121   2.0000      -0.611433       -16.6379
 122   2.0000      -0.601475       -16.3670
 123   2.0000      -0.589089       -16.0299
 124   2.0000      -0.581523       -15.8240
 125   2.0000      -0.580864       -15.8061
 126   2.0000      -0.580353       -15.7922
 127   2.0000      -0.571133       -15.5413
 128   2.0000      -0.566748       -15.4220
 129   2.0000      -0.559925       -15.2363
 130   2.0000      -0.555498       -15.1159
 131   2.0000      -0.547870       -14.9083
 132   2.0000      -0.542782       -14.7698
 133   2.0000      -0.540450       -14.7064
 134   2.0000      -0.538755       -14.6603
 135   2.0000      -0.536189       -14.5905
 136   2.0000      -0.531830       -14.4718
 137   2.0000      -0.518477       -14.1085
 138   2.0000      -0.516751       -14.0615
 139   2.0000      -0.514532       -14.0011
 140   2.0000      -0.511871       -13.9287
 141   2.0000      -0.510116       -13.8810
 142   2.0000      -0.507653       -13.8139
 143   2.0000      -0.505390       -13.7524
 144   2.0000      -0.502442       -13.6722
 145   2.0000      -0.495771       -13.4906
 146   2.0000      -0.488414       -13.2904
 147   2.0000      -0.481432       -13.1004
 148   2.0000      -0.476764       -12.9734
 149   2.0000      -0.467700       -12.7268
 150   2.0000      -0.466279       -12.6881
 151   2.0000      -0.456364       -12.4183
 152   2.0000      -0.451465       -12.2850
 153   2.0000      -0.445085       -12.1114
 154   2.0000      -0.438233       -11.9249
 155   2.0000      -0.427724       -11.6390
 156   2.0000      -0.409345       -11.1388
 157   2.0000      -0.391298       -10.6478
 158   2.0000      -0.389015       -10.5856
 159   2.0000      -0.387499       -10.5444
 160   2.0000      -0.378364       -10.2958
 161   2.0000      -0.373321       -10.1586
 162   2.0000      -0.362201        -9.8560
 163   2.0000      -0.356554        -9.7023
 164   2.0000      -0.355946        -9.6858
 165   2.0000      -0.341814        -9.3012
 166   2.0000      -0.337602        -9.1866
 167   2.0000      -0.324642        -8.8340
 168   2.0000      -0.321725        -8.7546
 169   2.0000      -0.305345        -8.3089
 170   2.0000      -0.299312        -8.1447
 171   2.0000      -0.285890        -7.7795
 172   2.0000      -0.278378        -7.5751
 173   2.0000      -0.263511        -7.1705
 174   2.0000      -0.242113        -6.5882
 175   2.0000      -0.190027        -5.1709
 176   2.0000      -0.181328        -4.9342
 177   2.0000      -0.080050        -2.1783
 178   2.0000      -0.059700        -1.6245
 179   0.0000       0.028404         0.7729
 180   0.0000       0.065355         1.7784
 181   0.0000       0.090213         2.4548
 182   0.0000       0.106216         2.8903
 183   0.0000       0.116441         3.1685

MULLIKEN ATOMIC CHARGES
-----------------------
   0 C :    0.218359
   1 N :   -0.455829
   2 C :   -0.072008
   3 N :   -0.341728
   4 C :   -0.098098
   5 N :   -0.568471
   6 C :   -0.107419
   7 N :   -0.341002
   8 C :    0.221380
   9 N :   -0.562403
  10 C :    0.119508
  11 N :   -0.438478
  12 C :   -0.047410
  13 N :   -0.429318
  14 C :    0.215686
  15 N :   -0.440882
  16 C :    0.233313
  17 C :   -0.099205
  18 C :   -0.179472
  19 C :    0.214196
  20 C :    0.213705
  21 C :   -0.057253
  22 C :   -0.090912
  23 C :   -0.039456
  24 C :    0.193298
  25 C :    0.114637
  26 C :   -0.084936
  27 C :    0.218218
  28 C :   -0.061878
  29 C :   -0.182111
  30 C :    0.245435
  31 C :    0.230369
  32 C :   -0.061368
  33 C :   -0.059953
  34 C :   -0.051236
  35 C :    0.228739
  36 C :    0.108190
  37 C :   -0.064544
  38 C :    0.231176
  39 C :   -0.057612
  40 C :   -0.181712
  41 C :    0.226061
  42 C :    0.197319
  43 C :   -0.072604
  44 C :   -0.089353
  45 C :   -0.061599
  46 C :    0.211914
  47 C :    0.115312
  48 C :   -0.066612
  49 C :    0.238512
  50 C :   -0.046196
  51 C :   -0.193224
  52 H :    0.033412
  53 H :   -0.018245
  54 H :    0.042601
  55 H :    0.032997
  56 H :    0.049486
  57 H :    0.046862
  58 H :    0.047253
  59 H :   -0.018688
  60 H :    0.058117
  61 H :    0.171193
  62 H :    0.175476
  63 H :    0.055169
  64 H :   -0.041633
  65 H :    0.047069
  66 H :    0.055466
  67 H :    0.062316
  68 H :    0.057157
  69 H :    0.056268
  70 H :   -0.030911
  71 H :    0.044664
  72 H :    0.071496
  73 H :   -0.007911
  74 H :    0.060577
  75 H :    0.070945
  76 H :    0.075117
  77 H :    0.068129
  78 H :    0.067435
  79 H :   -0.016761
  80 H :    0.061513
  81 H :    0.054482
  82 H :   -0.024994
  83 H :    0.042066
  84 H :    0.054353
  85 H :    0.061017
  86 H :    0.055631
  87 H :    0.057318
  88 H :   -0.014424
  89 H :    0.046931
Sum of atomic charges:   -0.0000000

LOEWDIN ATOMIC CHARGES
----------------------
   0 C :   -0.020917
   1 N :    0.122016
   2 C :   -0.100483
   3 N :    0.182384
   4 C :   -0.010500
   5 N :   -0.134720
   6 C :   -0.025445
   7 N :    0.175043
   8 C :   -0.018143
   9 N :   -0.140721
  10 C :    0.022882
  11 N :    0.141743
  12 C :   -0.097942
  13 N :    0.166531
  14 C :   -0.015365
  15 N :    0.139013
  16 C :   -0.060765
  17 C :   -0.016443
  18 C :   -0.114059
  19 C :   -0.072969
  20 C :    0.004751
  21 C :   -0.096046
  22 C :    0.036960
  23 C :   -0.014459
  24 C :   -0.013125
  25 C :    0.029762
  26 C :   -0.107538
  27 C :   -0.117206
  28 C :   -0.027834
  29 C :   -0.099164
  30 C :   -0.029930
  31 C :    0.024560
  32 C :   -0.094152
  33 C :    0.082570
  34 C :   -0.015139
  35 C :    0.023461
  36 C :    0.035302
  37 C :   -0.094197
  38 C :   -0.052225
  39 C :   -0.017496
  40 C :   -0.109005
  41 C :   -0.091095
  42 C :   -0.010380
  43 C :   -0.099322
  44 C :    0.034128
  45 C :   -0.028215
  46 C :    0.002300
  47 C :    0.029557
  48 C :   -0.094664
  49 C :   -0.069373
  50 C :   -0.018588
  51 C :   -0.108560
  52 H :    0.021942
  53 H :    0.002487
  54 H :   -0.007326
  55 H :    0.021957
  56 H :    0.021852
  57 H :    0.025914
  58 H :    0.027097
  59 H :    0.003344
  60 H :   -0.015951
  61 H :    0.060265
  62 H :    0.061902
  63 H :    0.030687
  64 H :   -0.003929
  65 H :    0.045888
  66 H :    0.029150
  67 H :    0.028166
  68 H :    0.031590
  69 H :    0.030249
  70 H :   -0.004991
  71 H :    0.043404
  72 H :    0.037798
  73 H :    0.007187
  74 H :    0.050757
  75 H :    0.037491
  76 H :    0.034906
  77 H :    0.036249
  78 H :    0.035935
  79 H :    0.002885
  80 H :    0.050845
  81 H :    0.029125
  82 H :   -0.002800
  83 H :    0.042564
  84 H :    0.029970
  85 H :    0.027457
  86 H :    0.030224
  87 H :    0.031454
  88 H :    0.002426
  89 H :    0.045053

  Mayer bond orders larger than 0.100000
B(  0-C ,  1-N ) :   1.0931 B(  0-C , 17-C ) :   1.7308 B(  0-C , 52-H ) :   0.9599
B(  1-N ,  8-C ) :   1.0995 B(  1-N , 10-C ) :   0.9771 B(  2-C , 12-C ) :   1.4850
B(  2-C , 16-C ) :   1.3761 B(  2-C , 53-H ) :   0.9712 B(  3-N , 14-C ) :   1.2233
B(  3-N , 16-C ) :   1.1783 B(  3-N , 61-H ) :   0.8982 B(  4-C ,  6-C ) :   1.2245
B(  4-C , 17-C ) :   1.2226 B(  4-C , 18-C ) :   1.4820 B(  5-N , 19-C ) :   1.4638
B(  5-N , 27-C ) :   1.3684 B(  6-C ,  8-C ) :   1.7209 B(  6-C , 54-H ) :   0.8759
B(  7-N , 30-C ) :   1.1950 B(  7-N , 38-C ) :   1.1897 B(  7-N , 62-H ) :   0.8967
B(  8-C , 55-H ) :   0.9612 B(  9-N , 41-C ) :   1.3946 B(  9-N , 49-C ) :   1.4247
B( 10-C , 56-H ) :   0.9777 B( 10-C , 57-H ) :   0.9824 B( 10-C , 58-H ) :   0.9838
B( 11-N , 20-C ) :   1.1312 B( 11-N , 24-C ) :   1.1064 B( 11-N , 25-C ) :   0.9603
B( 12-C , 14-C ) :   1.3599 B( 12-C , 59-H ) :   0.9147 B( 13-N , 31-C ) :   1.1618
B( 13-N , 35-C ) :   1.1608 B( 13-N , 36-C ) :   0.9412 B( 14-C , 18-C ) :   1.1170
B( 15-N , 42-C ) :   1.1079 B( 15-N , 46-C ) :   1.1249 B( 15-N , 47-C ) :   0.9611
B( 16-C , 51-C ) :   1.1675 B( 17-C , 60-H ) :   0.8561 B( 18-C , 19-C ) :   1.1156
B( 19-C , 21-C ) :   1.2541 B( 20-C , 28-C ) :   1.6289 B( 20-C , 63-H ) :   0.9703
B( 21-C , 26-C ) :   1.5788 B( 21-C , 64-H ) :   0.8941 B( 22-C , 23-C ) :   1.2894
B( 22-C , 28-C ) :   1.2633 B( 22-C , 29-C ) :   1.2258 B( 23-C , 24-C ) :   1.6203
B( 23-C , 65-H ) :   0.9703 B( 24-C , 66-H ) :   0.9695 B( 25-C , 67-H ) :   0.9761
B( 25-C , 68-H ) :   0.9828 B( 25-C , 69-H ) :   0.9823 B( 26-C , 27-C ) :   1.2657
B( 26-C , 70-H ) :   0.9662 B( 27-C , 29-C ) :   1.2064 B( 28-C , 71-H ) :   0.9720
B( 29-C , 30-C ) :   1.2473 B( 30-C , 32-C ) :   1.2786 B( 31-C , 39-C ) :   1.5873
B( 31-C , 72-H ) :   0.9681 B( 32-C , 37-C ) :   1.5802 B( 32-C , 73-H ) :   0.9786
B( 33-C , 34-C ) :   1.3072 B( 33-C , 39-C ) :   1.3044 B( 33-C , 40-C ) :   1.1757
B( 34-C , 35-C ) :   1.5850 B( 34-C , 74-H ) :   0.9696 B( 35-C , 75-H ) :   0.9681
B( 36-C , 76-H ) :   0.9768 B( 36-C , 77-H ) :   0.9816 B( 36-C , 78-H ) :   0.9823
B( 37-C , 38-C ) :   1.2846 B( 37-C , 79-H ) :   0.9764 B( 38-C , 40-C ) :   1.2342
B( 39-C , 80-H ) :   0.9705 B( 40-C , 41-C ) :   1.2505 B( 41-C , 43-C ) :   1.1842
B( 42-C , 50-C ) :   1.6327 B( 42-C , 81-H ) :   0.9696 B( 43-C , 48-C ) :   1.6687
B( 43-C , 82-H ) :   0.9721 B( 44-C , 45-C ) :   1.2637 B( 44-C , 50-C ) :   1.2729
B( 44-C , 51-C ) :   1.2605 B( 45-C , 46-C ) :   1.6342 B( 45-C , 83-H ) :   0.9718
B( 46-C , 84-H ) :   0.9700 B( 47-C , 85-H ) :   0.9762 B( 47-C , 86-H ) :   0.9829
B( 47-C , 87-H ) :   0.9824 B( 48-C , 49-C ) :   1.1876 B( 48-C , 88-H ) :   0.9748
B( 49-C , 51-C ) :   1.2455 B( 50-C , 89-H ) :   0.9708 B( 60-H , 64-H ) :   0.1247

MP2 TOTAL ENERGY:    -2130.752114318 Eh
FINAL SINGLE POINT ENERGY     -2130.752114318019

DIPOLE MOMENT
-------------
                                X             Y             Z
Electronic contribution:      2.76481      -4.36014      -0.19071
Nuclear contribution   :      0.06881       0.23215       0.19137
                        -----------------------------------------
Total Dipole Moment    :      2.83362      -4.12799       0.00066
                        -----------------------------------------
Magnitude (a.u.)       :      5.00696
Magnitude (Debye)      :     12.72668

Rotational constants in cm-1:     0.001501     0.001480     0.000760
Rotational constants in MHz :    45.011544    44.357277    22.781565

                             ****ORCA TERMINATED NORMALLY****
TOTAL RUN TIME: 0 days 1 hours 12 minutes 0 seconds 632 msec
