                         Program Version 5.0.4 -  RELEASE  -
|  1> ! PAL2
|  2> ! mp2 cc-pvdz TightSCF  NoKeepInts
|  3>
|  4> %scf
|  5>   MaxCore 2000
|  6> end
|  7> %mp2
|  8>   MaxCore 2000
|  9> end
| 10> * xyz 0 1
| 11>    C       -3.06600         6.46600         0.39800
| 12>    C        1.47400         4.04100         0.05700
| 13>    C       -2.80200         4.09300         0.04900
| 14>    C       -4.17300         4.03600        -0.24700
| 15>    C       -4.93800         5.18400        -0.21400
| 16>    C       -5.22300         7.59500         0.09700
| 17>    C        0.13200         4.30700         0.06100
| 18>    C       -0.56900         3.05600         0.04700
| 19>    C        1.64900         2.61800         0.02300
| 20>    C       -2.25900         5.34600         0.37300
| 21>    N       -4.38400         6.37700         0.10800
| 22>    N        0.38800         2.06700         0.02500
| 23>    N       -2.01000         0.39500        -0.07500
| 24>    N       -0.38800        -2.07400        -0.02700
| 25>    N        2.01000        -0.40100         0.06500
| 26>    C       -1.96000         2.86100         0.02400
| 27>    C       -2.62300         1.61500        -0.01800
| 28>    C       -5.57300        -4.32900         1.06600
| 29>    C       -4.07300         1.47100         0.05600
| 30>    C       -4.10600        -2.75600        -0.02600
| 31>    C       -4.99500        -2.75700        -1.11100
| 32>    C       -6.13200        -3.54200        -1.07600
| 33>    C       -7.65100        -5.11300         0.04000
| 34>    C       -4.32400         0.14100         0.03700
| 35>    C       -3.02500        -0.52000        -0.04800
| 36>    C       -4.42200        -3.56600         1.07500
| 37>    N       -6.40700        -4.31300         0.00100
| 38>    C       -2.86700        -1.92200        -0.04000
| 39>    C       -1.65000        -2.62400        -0.02700
| 40>    C        3.56800        -6.14200        -1.04000
| 41>    C       -1.47600        -4.04900        -0.03400
| 42>    C        2.80300        -4.09900        -0.00800
| 43>    C        3.65700        -4.38400         1.06900
| 44>    C        4.42700        -5.53000         1.05900
| 45>    C        5.24500        -7.58800         0.01400
| 46>    C       -0.13400        -4.31500        -0.02200
| 47>    C        0.56800        -3.06400        -0.02700
| 48>    C        2.77500        -5.01200        -1.07400
| 49>    N        4.37600        -6.39100         0.01700
| 50>    C        1.95900        -2.86900        -0.00900
| 51>    C        2.62100        -1.62200         0.00900
| 52>    C        5.54300         4.33900        -1.13000
| 53>    C        4.07000        -1.47900        -0.09400
| 54>    C        4.10400         2.75100        -0.02100
| 55>    C        5.02700         2.72900         1.03600
| 56>    C        6.16600         3.50900         0.97800
| 57>    C        7.61900         5.15300        -0.11500
| 58>    C        4.32100        -0.14800        -0.09200
| 59>    C        3.02500         0.51400         0.01500
| 60>    C        4.38700         3.58200        -1.11500
| 61>    C        2.86600         1.91600         0.01300
| 62>    N        6.41300         4.29600        -0.09500
| 63>    H       -2.69300         7.45000         0.65400
| 64>    H        2.27400         4.76600         0.08100
| 65>    H       -4.64800         3.10000        -0.51300
| 66>    H       -5.99600         5.19100        -0.44300
| 67>    H       -5.25000         8.00000        -0.91700
| 68>    H       -6.22900         7.33200         0.42300
| 69>    H       -4.78900         8.32500         0.78000
| 70>    H       -0.33200         5.28200         0.06900
| 71>    H       -1.21000         5.45300         0.62400
| 72>    H        0.18200         1.07200         0.00500
| 73>    H       -0.18300        -1.08000        -0.02100
| 74>    H       -5.86400        -4.96200         1.89500
| 75>    H       -4.79400         2.27200         0.13900
| 76>    H       -4.80000        -2.16000        -1.99400
| 77>    H       -6.84100        -3.58200        -1.89300
| 78>    H       -8.42800        -4.53600         0.54600
| 79>    H       -7.95600        -5.33700        -0.98100
| 80>    H       -7.45600        -6.03700         0.58400
| 81>    H       -5.28700        -0.34400         0.10000
| 82>    H       -3.78000        -3.60100         1.94700
| 83>    H        3.58700        -6.86800        -1.84300
| 84>    H       -2.27600        -4.77400        -0.05000
| 85>    H        3.71400        -3.72400         1.92600
| 86>    H        5.09200        -5.79500         1.87100
| 87>    H        6.20500        -7.32900        -0.43900
| 88>    H        5.39300        -7.91700         1.04200
| 89>    H        4.75900        -8.37300        -0.56400
| 90>    H        0.32900        -5.29000        -0.00800
| 91>    H        2.14600        -4.84200        -1.94000
| 92>    H        5.80800         4.98600        -1.95600
| 93>    H        4.78800        -2.28100        -0.18500
| 94>    H        4.86000         2.11400         1.91200
| 95>    H        6.90100         3.53100         1.77200
| 96>    H        7.38300         6.10900         0.35600
| 97>    H        8.41400         4.65200         0.43500
| 98>    H        7.92100         5.31000        -1.15000
| 99>    H        5.28300         0.33600        -0.17900
|100>    H        3.72000         3.63200        -1.96700
|101> *
|102>
|103>                          ****END OF INPUT****

CARTESIAN COORDINATES (ANGSTROEM)
---------------------------------
  C     -3.066000    6.466000    0.398000
  C      1.474000    4.041000    0.057000
  C     -2.802000    4.093000    0.049000
  C     -4.173000    4.036000   -0.247000
  C     -4.938000    5.184000   -0.214000
  C     -5.223000    7.595000    0.097000
  C      0.132000    4.307000    0.061000
  C     -0.569000    3.056000    0.047000
  C      1.649000    2.618000    0.023000
  C     -2.259000    5.346000    0.373000
  N     -4.384000    6.377000    0.108000
  N      0.388000    2.067000    0.025000
  N     -2.010000    0.395000   -0.075000
  N     -0.388000   -2.074000   -0.027000
  N      2.010000   -0.401000    0.065000
  C     -1.960000    2.861000    0.024000
  C     -2.623000    1.615000   -0.018000
  C     -5.573000   -4.329000    1.066000
  C     -4.073000    1.471000    0.056000
  C     -4.106000   -2.756000   -0.026000
  C     -4.995000   -2.757000   -1.111000
  C     -6.132000   -3.542000   -1.076000
  C     -7.651000   -5.113000    0.040000
  C     -4.324000    0.141000    0.037000
  C     -3.025000   -0.520000   -0.048000
  C     -4.422000   -3.566000    1.075000
  N     -6.407000   -4.313000    0.001000
  C     -2.867000   -1.922000   -0.040000
  C     -1.650000   -2.624000   -0.027000
  C      3.568000   -6.142000   -1.040000
  C     -1.476000   -4.049000   -0.034000
  C      2.803000   -4.099000   -0.008000
  C      3.657000   -4.384000    1.069000
  C      4.427000   -5.530000    1.059000
  C      5.245000   -7.588000    0.014000
  C     -0.134000   -4.315000   -0.022000
  C      0.568000   -3.064000   -0.027000
  C      2.775000   -5.012000   -1.074000
  N      4.376000   -6.391000    0.017000
  C      1.959000   -2.869000   -0.009000
  C      2.621000   -1.622000    0.009000
  C      5.543000    4.339000   -1.130000
  C      4.070000   -1.479000   -0.094000
  C      4.104000    2.751000   -0.021000
  C      5.027000    2.729000    1.036000
  C      6.166000    3.509000    0.978000
  C      7.619000    5.153000   -0.115000
  C      4.321000   -0.148000   -0.092000
  C      3.025000    0.514000    0.015000
  C      4.387000    3.582000   -1.115000
  C      2.866000    1.916000    0.013000
  N      6.413000    4.296000   -0.095000
  H     -2.693000    7.450000    0.654000
  H      2.274000    4.766000    0.081000
  H     -4.648000    3.100000   -0.513000
  H     -5.996000    5.191000   -0.443000
  H     -5.250000    8.000000   -0.917000
  H     -6.229000    7.332000    0.423000
  H     -4.789000    8.325000    0.780000
  H     -0.332000    5.282000    0.069000
  H     -1.210000    5.453000    0.624000
  H      0.182000    1.072000    0.005000
  H     -0.183000   -1.080000   -0.021000
  H     -5.864000   -4.962000    1.895000
  H     -4.794000    2.272000    0.139000
  H     -4.800000   -2.160000   -1.994000
  H     -6.841000   -3.582000   -1.893000
  H     -8.428000   -4.536000    0.546000
  H     -7.956000   -5.337000   -0.981000
  H     -7.456000   -6.037000    0.584000
  H     -5.287000   -0.344000    0.100000
  H     -3.780000   -3.601000    1.947000
  H      3.587000   -6.868000   -1.843000
  H     -2.276000   -4.774000   -0.050000
  H      3.714000   -3.724000    1.926000
  H      5.092000   -5.795000    1.871000
  H      6.205000   -7.329000   -0.439000
  H      5.393000   -7.917000    1.042000
  H      4.759000   -8.373000   -0.564000
  H      0.329000   -5.290000   -0.008000
  H      2.146000   -4.842000   -1.940000
  H      5.808000    4.986000   -1.956000
  H      4.788000   -2.281000   -0.185000
  H      4.860000    2.114000    1.912000
  H      6.901000    3.531000    1.772000
  H      7.383000    6.109000    0.356000
  H      8.414000    4.652000    0.435000
  H      7.921000    5.310000   -1.150000
  H      5.283000    0.336000   -0.179000
  H      3.720000    3.632000   -1.967000

 Total Charge           Charge          ....    0
 Multiplicity           Mult            ....    1
 Number of Electrons    NEL             ....  358
 Basis Dimension        Dim             ....  918

ORBITAL ENERGIES
----------------

  NO   OCC          E(Eh)            E(eV)
   0   2.0000     -15.680098      -426.6772
   1   2.0000     -15.635082      -425.4522
   2   2.0000     -15.630946      -425.3397
   3   2.0000     -15.586908      -424.1413
   4   2.0000     -15.525542      -422.4715
   5   2.0000     -15.515403      -422.1956
   6   2.0000     -15.453662      -420.5155
   7   2.0000     -15.440487      -420.1570
   8   2.0000     -11.329812      -308.2999
   9   2.0000     -11.328470      -308.2634
  10   2.0000     -11.328120      -308.2538
  11   2.0000     -11.300016      -307.4891
  12   2.0000     -11.297804      -307.4289
  13   2.0000     -11.293929      -307.3234
  14   2.0000     -11.290477      -307.2295
  15   2.0000     -11.287584      -307.1508
  16   2.0000     -11.285763      -307.1012
  17   2.0000     -11.282349      -307.0083
  18   2.0000     -11.269368      -306.6551
  19   2.0000     -11.263607      -306.4983
  20   2.0000     -11.262620      -306.4715
  21   2.0000     -11.251674      -306.1736
  22   2.0000     -11.248087      -306.0760
  23   2.0000     -11.238837      -305.8243
  24   2.0000     -11.235763      -305.7406
  25   2.0000     -11.231988      -305.6379
  26   2.0000     -11.231342      -305.6204
  27   2.0000     -11.229084      -305.5589
  28   2.0000     -11.228774      -305.5505
  29   2.0000     -11.211692      -305.0857
  30   2.0000     -11.210265      -305.0468
  31   2.0000     -11.193616      -304.5938
  32   2.0000     -11.191748      -304.5429
  33   2.0000     -11.190490      -304.5087
  34   2.0000     -11.188079      -304.4431
  35   2.0000     -11.188052      -304.4424
  36   2.0000     -11.186718      -304.4061
  37   2.0000     -11.177158      -304.1459
  38   2.0000     -11.175301      -304.0954
  39   2.0000     -11.174935      -304.0855
  40   2.0000     -11.173077      -304.0349
  41   2.0000     -11.169970      -303.9503
  42   2.0000     -11.169175      -303.9287
  43   2.0000     -11.161672      -303.7245
  44   2.0000     -11.160342      -303.6884
  45   2.0000     -11.157119      -303.6006
  46   2.0000     -11.156197      -303.5756
  47   2.0000     -11.153284      -303.4963
  48   2.0000     -11.146139      -303.3019
  49   2.0000     -11.134987      -302.9984
  50   2.0000     -11.129993      -302.8625
  51   2.0000     -11.117402      -302.5199
  52   2.0000      -1.360640       -37.0249
  53   2.0000      -1.322184       -35.9785
  54   2.0000      -1.318855       -35.8879
  55   2.0000      -1.279901       -34.8279
  56   2.0000      -1.226718       -33.3807
  57   2.0000      -1.209943       -32.9242
  58   2.0000      -1.173261       -31.9261
  59   2.0000      -1.151095       -31.3229
  60   2.0000      -1.143870       -31.1263
  61   2.0000      -1.110982       -30.2314
  62   2.0000      -1.108405       -30.1612
  63   2.0000      -1.082320       -29.4514
  64   2.0000      -1.076774       -29.3005
  65   2.0000      -1.046338       -28.4723
  66   2.0000      -1.043535       -28.3960
  67   2.0000      -1.041357       -28.3368
  68   2.0000      -1.015224       -27.6257
  69   2.0000      -1.012345       -27.5473
  70   2.0000      -1.008650       -27.4468
  71   2.0000      -0.994106       -27.0510
  72   2.0000      -0.985490       -26.8165
  73   2.0000      -0.981973       -26.7208
  74   2.0000      -0.972511       -26.4634
  75   2.0000      -0.961777       -26.1713
  76   2.0000      -0.954429       -25.9713
  77   2.0000      -0.945520       -25.7289
  78   2.0000      -0.936439       -25.4818
  79   2.0000      -0.917004       -24.9530
  80   2.0000      -0.910735       -24.7824
  81   2.0000      -0.896596       -24.3976
  82   2.0000      -0.876690       -23.8560
  83   2.0000      -0.873131       -23.7591
  84   2.0000      -0.869903       -23.6713
  85   2.0000      -0.859000       -23.3746
  86   2.0000      -0.840678       -22.8760
  87   2.0000      -0.836525       -22.7630
  88   2.0000      -0.826838       -22.4994
  89   2.0000      -0.796690       -21.6790
  90   2.0000      -0.788993       -21.4696
  91   2.0000      -0.759156       -20.6577
  92   2.0000      -0.752779       -20.4842
  93   2.0000      -0.733985       -19.9728
  94   2.0000      -0.726484       -19.7686
  95   2.0000      -0.723751       -19.6943
  96   2.0000      -0.718433       -19.5495
  97   2.0000      -0.716279       -19.4910
  98   2.0000      -0.711301       -19.3555
  99   2.0000      -0.698539       -19.0082
 100   2.0000      -0.696886       -18.9632
 101   2.0000      -0.689238       -18.7551
 102   2.0000      -0.685283       -18.6475
 103   2.0000      -0.684414       -18.6238
 104   2.0000      -0.679103       -18.4793
 105   2.0000      -0.674102       -18.3433
 106   2.0000      -0.672220       -18.2920
 107   2.0000      -0.660179       -17.9644
 108   2.0000      -0.657438       -17.8898
 109   2.0000      -0.653591       -17.7851
 110   2.0000      -0.651244       -17.7213
 111   2.0000      -0.646366       -17.5885
 112   2.0000      -0.645230       -17.5576
 113   2.0000      -0.637627       -17.3507
 114   2.0000      -0.636133       -17.3101
 115   2.0000      -0.627590       -17.0776
 116   2.0000      -0.621826       -16.9208
 117   2.0000      -0.620659       -16.8890
 118   2.0000      -0.613598       -16.6968
 119   2.0000      -0.613032       -16.6815
 120   2.0000      -0.611587       -16.6421
 121   2.0000      -0.610724       -16.6187
 122   2.0000      -0.600248       -16.3336
 123   2.0000      -0.587653       -15.9909
 124   2.0000      -0.582285       -15.8448
 125   2.0000      -0.580695       -15.8015
 126   2.0000      -0.579730       -15.7753
 127   2.0000      -0.571653       -15.5555
 128   2.0000      -0.568607       -15.4726
 129   2.0000      -0.559655       -15.2290
 130   2.0000      -0.553395       -15.0586
 131   2.0000      -0.548162       -14.9162
 132   2.0000      -0.543053       -14.7772
 133   2.0000      -0.541656       -14.7392
 134   2.0000      -0.539104       -14.6698
 135   2.0000      -0.535454       -14.5705
 136   2.0000      -0.530465       -14.4347
 137   2.0000      -0.518638       -14.1129
 138   2.0000      -0.518125       -14.0989
 139   2.0000      -0.514375       -13.9968
 140   2.0000      -0.512189       -13.9374
 141   2.0000      -0.510514       -13.8918
 142   2.0000      -0.509200       -13.8560
 143   2.0000      -0.504155       -13.7188
 144   2.0000      -0.501474       -13.6458
 145   2.0000      -0.495277       -13.4772
 146   2.0000      -0.490181       -13.3385
 147   2.0000      -0.481520       -13.1028
 148   2.0000      -0.477272       -12.9872
 149   2.0000      -0.467787       -12.7291
 150   2.0000      -0.466093       -12.6830
 151   2.0000      -0.456864       -12.4319
 152   2.0000      -0.451307       -12.2807
 153   2.0000      -0.445377       -12.1193
 154   2.0000      -0.438993       -11.9456
 155   2.0000      -0.427474       -11.6321
 156   2.0000      -0.409331       -11.1385
 157   2.0000      -0.403711       -10.9855
 158   2.0000      -0.394782       -10.7426
 159   2.0000      -0.387849       -10.5539
 160   2.0000      -0.384675       -10.4675
 161   2.0000      -0.377460       -10.2712
 162   2.0000      -0.370886       -10.0923
 163   2.0000      -0.357432        -9.7262
 164   2.0000      -0.355252        -9.6669
 165   2.0000      -0.341676        -9.2975
 166   2.0000      -0.337888        -9.1944
 167   2.0000      -0.325413        -8.8549
 168   2.0000      -0.320327        -8.7165
 169   2.0000      -0.305969        -8.3258
 170   2.0000      -0.299282        -8.1439
 171   2.0000      -0.285056        -7.7568
 172   2.0000      -0.278827        -7.5873
 173   2.0000      -0.263332        -7.1656
 174   2.0000      -0.241603        -6.5744
 175   2.0000      -0.190123        -5.1735
 176   2.0000      -0.181037        -4.9263
 177   2.0000      -0.079656        -2.1676
 178   2.0000      -0.059666        -1.6236
 179   0.0000       0.028163         0.7664
 180   0.0000       0.065103         1.7716
 181   0.0000       0.090263         2.4562
 182   0.0000       0.106028         2.8852
 183   0.0000       0.114916         3.1270

MULLIKEN ATOMIC CHARGES
-----------------------
   0 C :    0.221640
   1 N :   -0.457176
   2 C :   -0.076822
   3 N :   -0.340763
   4 C :   -0.066293
   5 N :   -0.566884
   6 C :   -0.113471
   7 N :   -0.340996
   8 C :    0.210926
   9 N :   -0.562423
  10 C :    0.119493
  11 N :   -0.438246
  12 C :   -0.057888
  13 N :   -0.429256
  14 C :    0.212206
  15 N :   -0.441132
  16 C :    0.233304
  17 C :   -0.126964
  18 C :   -0.155544
  19 C :    0.201417
  20 C :    0.214301
  21 C :   -0.070440
  22 C :   -0.089415
  23 C :   -0.039684
  24 C :    0.193996
  25 C :    0.114453
  26 C :   -0.090556
  27 C :    0.214081
  28 C :   -0.061673
  29 C :   -0.183209
  30 C :    0.246342
  31 C :    0.230871
  32 C :   -0.061426
  33 C :   -0.060081
  34 C :   -0.050721
  35 C :    0.228270
  36 C :    0.108175
  37 C :   -0.064175
  38 C :    0.231350
  39 C :   -0.058030
  40 C :   -0.180892
  41 C :    0.225398
  42 C :    0.197207
  43 C :   -0.072551
  44 C :   -0.090181
  45 C :   -0.061709
  46 C :    0.211296
  47 C :    0.115448
  48 C :   -0.066864
  49 C :    0.238488
  50 C :   -0.046080
  51 C :   -0.194991
  52 H :    0.036086
  53 H :   -0.017996
  54 H :    0.048961
  55 H :    0.034247
  56 H :    0.048594
  57 H :    0.047969
  58 H :    0.045843
  59 H :   -0.007716
  60 H :    0.046191
  61 H :    0.170976
  62 H :    0.175692
  63 H :    0.055705
  64 H :   -0.013471
  65 H :    0.046946
  66 H :    0.055856
  67 H :    0.062841
  68 H :    0.057371
  69 H :    0.056583
  70 H :   -0.029895
  71 H :    0.045218
  72 H :    0.071581
  73 H :   -0.007842
  74 H :    0.060672
  75 H :    0.070983
  76 H :    0.075198
  77 H :    0.068173
  78 H :    0.067423
  79 H :   -0.016450
  80 H :    0.061498
  81 H :    0.054317
  82 H :   -0.025142
  83 H :    0.041522
  84 H :    0.053901
  85 H :    0.060700
  86 H :    0.055345
  87 H :    0.057150
  88 H :   -0.014361
  89 H :    0.047202
Sum of atomic charges:   -0.0000000

LOEWDIN ATOMIC CHARGES
----------------------
   0 C :   -0.017359
   1 N :    0.118939
   2 C :   -0.102065
   3 N :    0.182868
   4 C :   -0.013697
   5 N :   -0.132794
   6 C :   -0.033153
   7 N :    0.175035
   8 C :   -0.024847
   9 N :   -0.140674
  10 C :    0.022767
  11 N :    0.142446
  12 C :   -0.109685
  13 N :    0.166634
  14 C :   -0.020064
  15 N :    0.138437
  16 C :   -0.059745
  17 C :   -0.041358
  18 C :   -0.108210
  19 C :   -0.076650
  20 C :    0.005455
  21 C :   -0.118438
  22 C :    0.038110
  23 C :   -0.014505
  24 C :   -0.012174
  25 C :    0.029939
  26 C :   -0.109223
  27 C :   -0.117364
  28 C :   -0.027368
  29 C :   -0.099056
  30 C :   -0.029892
  31 C :    0.025012
  32 C :   -0.093843
  33 C :    0.082569
  34 C :   -0.014779
  35 C :    0.023053
  36 C :    0.035324
  37 C :   -0.093830
  38 C :   -0.051686
  39 C :   -0.017724
  40 C :   -0.108371
  41 C :   -0.092172
  42 C :   -0.010626
  43 C :   -0.099302
  44 C :    0.033051
  45 C :   -0.028546
  46 C :    0.001593
  47 C :    0.029426
  48 C :   -0.095110
  49 C :   -0.068785
  50 C :   -0.018605
  51 C :   -0.109655
  52 H :    0.022583
  53 H :    0.002409
  54 H :    0.020167
  55 H :    0.022098
  56 H :    0.021466
  57 H :    0.026421
  58 H :    0.026443
  59 H :    0.008053
  60 H :    0.017349
  61 H :    0.060076
  62 H :    0.061963
  63 H :    0.030937
  64 H :    0.007174
  65 H :    0.045841
  66 H :    0.029342
  67 H :    0.028423
  68 H :    0.031691
  69 H :    0.030403
  70 H :   -0.004777
  71 H :    0.043661
  72 H :    0.037854
  73 H :    0.007208
  74 H :    0.050822
  75 H :    0.037486
  76 H :    0.034943
  77 H :    0.036269
  78 H :    0.035933
  79 H :    0.003031
  80 H :    0.050812
  81 H :    0.029053
  82 H :   -0.002876
  83 H :    0.042317
  84 H :    0.029756
  85 H :    0.027299
  86 H :    0.030088
  87 H :    0.031377
  88 H :    0.002449
  89 H :    0.045152

  Mayer bond orders larger than 0.100000
B(  0-C ,  1-N ) :   1.0995 B(  0-C , 17-C ) :   1.7153 B(  0-C , 52-H ) :   0.9626
B(  1-N ,  8-C ) :   1.0854 B(  1-N , 10-C ) :   0.9786 B(  2-C , 12-C ) :   1.4895
B(  2-C , 16-C ) :   1.3708 B(  2-C , 53-H ) :   0.9736 B(  3-N , 14-C ) :   1.2207
B(  3-N , 16-C ) :   1.1836 B(  3-N , 61-H ) :   0.8990 B(  4-C ,  6-C ) :   1.2150
B(  4-C , 17-C ) :   1.2154 B(  4-C , 18-C ) :   1.4723 B(  5-N , 19-C ) :   1.4573
B(  5-N , 27-C ) :   1.3723 B(  6-C ,  8-C ) :   1.7221 B(  6-C , 54-H ) :   0.9067
B(  7-N , 30-C ) :   1.1949 B(  7-N , 38-C ) :   1.1898 B(  7-N , 62-H ) :   0.8966
B(  8-C , 55-H ) :   0.9639 B(  9-N , 41-C ) :   1.3928 B(  9-N , 49-C ) :   1.4269
B( 10-C , 56-H ) :   0.9774 B( 10-C , 57-H ) :   0.9830 B( 10-C , 58-H ) :   0.9835
B( 11-N , 20-C ) :   1.1320 B( 11-N , 24-C ) :   1.1077 B( 11-N , 25-C ) :   0.9598
B( 12-C , 14-C ) :   1.3590 B( 12-C , 59-H ) :   0.9452 B( 13-N , 31-C ) :   1.1625
B( 13-N , 35-C ) :   1.1603 B( 13-N , 36-C ) :   0.9411 B( 14-C , 18-C ) :   1.1177
B( 15-N , 42-C ) :   1.1072 B( 15-N , 46-C ) :   1.1240 B( 15-N , 47-C ) :   0.9615
B( 16-C , 51-C ) :   1.1669 B( 17-C , 60-H ) :   0.9092 B( 18-C , 19-C ) :   1.1157
B( 19-C , 21-C ) :   1.2525 B( 20-C , 28-C ) :   1.6277 B( 20-C , 63-H ) :   0.9702
B( 21-C , 26-C ) :   1.5862 B( 21-C , 64-H ) :   0.9433 B( 22-C , 23-C ) :   1.2903
B( 22-C , 28-C ) :   1.2647 B( 22-C , 29-C ) :   1.2249 B( 23-C , 24-C ) :   1.6191
B( 23-C , 65-H ) :   0.9703 B( 24-C , 66-H ) :   0.9695 B( 25-C , 67-H ) :   0.9760
B( 25-C , 68-H ) :   0.9828 B( 25-C , 69-H ) :   0.9823 B( 26-C , 27-C ) :   1.2574
B( 26-C , 70-H ) :   0.9675 B( 27-C , 29-C ) :   1.2060 B( 28-C , 71-H ) :   0.9720
B( 29-C , 30-C ) :   1.2480 B( 30-C , 32-C ) :   1.2774 B( 31-C , 39-C ) :   1.5872
B( 31-C , 72-H ) :   0.9681 B( 32-C , 37-C ) :   1.5815 B( 32-C , 73-H ) :   0.9786
B( 33-C , 34-C ) :   1.3080 B( 33-C , 39-C ) :   1.3042 B( 33-C , 40-C ) :   1.1744
B( 34-C , 35-C ) :   1.5845 B( 34-C , 74-H ) :   0.9696 B( 35-C , 75-H ) :   0.9681
B( 36-C , 76-H ) :   0.9768 B( 36-C , 77-H ) :   0.9815 B( 36-C , 78-H ) :   0.9823
B( 37-C , 38-C ) :   1.2833 B( 37-C , 79-H ) :   0.9765 B( 38-C , 40-C ) :   1.2353
B( 39-C , 80-H ) :   0.9705 B( 40-C , 41-C ) :   1.2509 B( 41-C , 43-C ) :   1.1849
B( 42-C , 50-C ) :   1.6341 B( 42-C , 81-H ) :   0.9696 B( 43-C , 48-C ) :   1.6678
B( 43-C , 82-H ) :   0.9720 B( 44-C , 45-C ) :   1.2627 B( 44-C , 50-C ) :   1.2715
B( 44-C , 51-C ) :   1.2626 B( 45-C , 46-C ) :   1.6353 B( 45-C , 83-H ) :   0.9719
B( 46-C , 84-H ) :   0.9700 B( 47-C , 85-H ) :   0.9762 B( 47-C , 86-H ) :   0.9829
B( 47-C , 87-H ) :   0.9825 B( 48-C , 49-C ) :   1.1884 B( 48-C , 88-H ) :   0.9749
B( 49-C , 51-C ) :   1.2439 B( 50-C , 89-H ) :   0.9708

MP2 TOTAL ENERGY:    -2130.819314000 Eh
FINAL SINGLE POINT ENERGY     -2130.819313999803

DIPOLE MOMENT
-------------
                                X             Y             Z
Electronic contribution:      2.77550      -4.42010      -0.07422
Nuclear contribution   :     -0.02335       0.17144       0.08551
                        -----------------------------------------
Total Dipole Moment    :      2.75215      -4.24866       0.01129
                        -----------------------------------------
Magnitude (a.u.)       :      5.06217
Magnitude (Debye)      :     12.86701

Rotational constants in cm-1:     0.001503     0.001477     0.000760
Rotational constants in MHz :    45.066129    44.287816    22.786192

                             ****ORCA TERMINATED NORMALLY****
TOTAL RUN TIME: 0 days 1 hours 5 minutes 51 seconds 59 msec
