                         Program Version 5.0.4 -  RELEASE  -
|  1> ! PAL2
|  2> ! mp2 cc-pvdz TightSCF  NoKeepInts
|  3>
|  4> %scf
|  5>   MaxCore 2000
|  6> end
|  7> %mp2
|  8>   MaxCore 2000
|  9> end
| 10> * xyz 0 1
| 11>    C       -4.83700         5.25200         0.63400
| 12>    C        1.47400         4.04100         0.05700
| 13>    C       -2.80200         4.09300         0.04900
| 14>    C       -2.34500         5.29100        -0.52200
| 15>    C       -3.13900         6.41900        -0.49500
| 16>    C       -5.17700         7.62600         0.12100
| 17>    C        0.13200         4.30700         0.06100
| 18>    C       -0.56900         3.05600         0.04700
| 19>    C        1.64900         2.61800         0.02300
| 20>    C       -4.07700         4.09800         0.63700
| 21>    N       -4.36600         6.38900         0.07400
| 22>    N        0.38800         2.06700         0.02500
| 23>    N       -2.01000         0.39500        -0.07500
| 24>    N       -0.38800        -2.07400        -0.02700
| 25>    N        2.01000        -0.40100         0.06500
| 26>    C       -1.96000         2.86100         0.02400
| 27>    C       -2.62300         1.61500        -0.01800
| 28>    C       -5.57300        -4.32900         1.06600
| 29>    C       -4.07300         1.47100         0.05600
| 30>    C       -4.10600        -2.75600        -0.02600
| 31>    C       -4.99500        -2.75700        -1.11100
| 32>    C       -6.13200        -3.54200        -1.07600
| 33>    C       -7.65100        -5.11300         0.04000
| 34>    C       -4.32400         0.14100         0.03700
| 35>    C       -3.02500        -0.52000        -0.04800
| 36>    C       -4.42200        -3.56600         1.07500
| 37>    N       -6.40700        -4.31300         0.00100
| 38>    C       -2.86700        -1.92200        -0.04000
| 39>    C       -1.65000        -2.62400        -0.02700
| 40>    C        3.56800        -6.14200        -1.04000
| 41>    C       -1.47600        -4.04900        -0.03400
| 42>    C        2.80300        -4.09900        -0.00800
| 43>    C        3.65700        -4.38400         1.06900
| 44>    C        4.42700        -5.53000         1.05900
| 45>    C        5.24500        -7.58800         0.01400
| 46>    C       -0.13400        -4.31500        -0.02200
| 47>    C        0.56800        -3.06400        -0.02700
| 48>    C        2.77500        -5.01200        -1.07400
| 49>    N        4.37600        -6.39100         0.01700
| 50>    C        1.95900        -2.86900        -0.00900
| 51>    C        2.62100        -1.62200         0.00900
| 52>    C        5.54300         4.33900        -1.13000
| 53>    C        4.07000        -1.47900        -0.09400
| 54>    C        4.10400         2.75100        -0.02100
| 55>    C        5.02700         2.72900         1.03600
| 56>    C        6.16600         3.50900         0.97800
| 57>    C        7.61900         5.15300        -0.11500
| 58>    C        4.32100        -0.14800        -0.09200
| 59>    C        3.02500         0.51400         0.01500
| 60>    C        4.38700         3.58200        -1.11500
| 61>    C        2.86600         1.91600         0.01300
| 62>    N        6.41300         4.29600        -0.09500
| 63>    H       -5.82900         5.29800         1.06500
| 64>    H        2.27400         4.76600         0.08100
| 65>    H       -1.36600         5.35200        -0.98200
| 66>    H       -2.82600         7.36700        -0.91400
| 67>    H       -4.89600         8.20300         1.00500
| 68>    H       -4.98500         8.20600        -0.78100
| 69>    H       -6.23100         7.35300         0.17200
| 70>    H       -0.33200         5.28200         0.06900
| 71>    H       -4.49200         3.20100         1.08200
| 72>    H        0.18200         1.07200         0.00500
| 73>    H       -0.18300        -1.08000        -0.02100
| 74>    H       -5.86400        -4.96200         1.89500
| 75>    H       -4.79400         2.27200         0.13900
| 76>    H       -4.80000        -2.16000        -1.99400
| 77>    H       -6.84100        -3.58200        -1.89300
| 78>    H       -8.42800        -4.53600         0.54600
| 79>    H       -7.95600        -5.33700        -0.98100
| 80>    H       -7.45600        -6.03700         0.58400
| 81>    H       -5.28700        -0.34400         0.10000
| 82>    H       -3.78000        -3.60100         1.94700
| 83>    H        3.58700        -6.86800        -1.84300
| 84>    H       -2.27600        -4.77400        -0.05000
| 85>    H        3.71400        -3.72400         1.92600
| 86>    H        5.09200        -5.79500         1.87100
| 87>    H        6.20500        -7.32900        -0.43900
| 88>    H        5.39300        -7.91700         1.04200
| 89>    H        4.75900        -8.37300        -0.56400
| 90>    H        0.32900        -5.29000        -0.00800
| 91>    H        2.14600        -4.84200        -1.94000
| 92>    H        5.80800         4.98600        -1.95600
| 93>    H        4.78800        -2.28100        -0.18500
| 94>    H        4.86000         2.11400         1.91200
| 95>    H        6.90100         3.53100         1.77200
| 96>    H        7.38300         6.10900         0.35600
| 97>    H        8.41400         4.65200         0.43500
| 98>    H        7.92100         5.31000        -1.15000
| 99>    H        5.28300         0.33600        -0.17900
|100>    H        3.72000         3.63200        -1.96700
|101> *
|102>
|103>                          ****END OF INPUT****

CARTESIAN COORDINATES (ANGSTROEM)
---------------------------------
  C     -4.837000    5.252000    0.634000
  C      1.474000    4.041000    0.057000
  C     -2.802000    4.093000    0.049000
  C     -2.345000    5.291000   -0.522000
  C     -3.139000    6.419000   -0.495000
  C     -5.177000    7.626000    0.121000
  C      0.132000    4.307000    0.061000
  C     -0.569000    3.056000    0.047000
  C      1.649000    2.618000    0.023000
  C     -4.077000    4.098000    0.637000
  N     -4.366000    6.389000    0.074000
  N      0.388000    2.067000    0.025000
  N     -2.010000    0.395000   -0.075000
  N     -0.388000   -2.074000   -0.027000
  N      2.010000   -0.401000    0.065000
  C     -1.960000    2.861000    0.024000
  C     -2.623000    1.615000   -0.018000
  C     -5.573000   -4.329000    1.066000
  C     -4.073000    1.471000    0.056000
  C     -4.106000   -2.756000   -0.026000
  C     -4.995000   -2.757000   -1.111000
  C     -6.132000   -3.542000   -1.076000
  C     -7.651000   -5.113000    0.040000
  C     -4.324000    0.141000    0.037000
  C     -3.025000   -0.520000   -0.048000
  C     -4.422000   -3.566000    1.075000
  N     -6.407000   -4.313000    0.001000
  C     -2.867000   -1.922000   -0.040000
  C     -1.650000   -2.624000   -0.027000
  C      3.568000   -6.142000   -1.040000
  C     -1.476000   -4.049000   -0.034000
  C      2.803000   -4.099000   -0.008000
  C      3.657000   -4.384000    1.069000
  C      4.427000   -5.530000    1.059000
  C      5.245000   -7.588000    0.014000
  C     -0.134000   -4.315000   -0.022000
  C      0.568000   -3.064000   -0.027000
  C      2.775000   -5.012000   -1.074000
  N      4.376000   -6.391000    0.017000
  C      1.959000   -2.869000   -0.009000
  C      2.621000   -1.622000    0.009000
  C      5.543000    4.339000   -1.130000
  C      4.070000   -1.479000   -0.094000
  C      4.104000    2.751000   -0.021000
  C      5.027000    2.729000    1.036000
  C      6.166000    3.509000    0.978000
  C      7.619000    5.153000   -0.115000
  C      4.321000   -0.148000   -0.092000
  C      3.025000    0.514000    0.015000
  C      4.387000    3.582000   -1.115000
  C      2.866000    1.916000    0.013000
  N      6.413000    4.296000   -0.095000
  H     -5.829000    5.298000    1.065000
  H      2.274000    4.766000    0.081000
  H     -1.366000    5.352000   -0.982000
  H     -2.826000    7.367000   -0.914000
  H     -4.896000    8.203000    1.005000
  H     -4.985000    8.206000   -0.781000
  H     -6.231000    7.353000    0.172000
  H     -0.332000    5.282000    0.069000
  H     -4.492000    3.201000    1.082000
  H      0.182000    1.072000    0.005000
  H     -0.183000   -1.080000   -0.021000
  H     -5.864000   -4.962000    1.895000
  H     -4.794000    2.272000    0.139000
  H     -4.800000   -2.160000   -1.994000
  H     -6.841000   -3.582000   -1.893000
  H     -8.428000   -4.536000    0.546000
  H     -7.956000   -5.337000   -0.981000
  H     -7.456000   -6.037000    0.584000
  H     -5.287000   -0.344000    0.100000
  H     -3.780000   -3.601000    1.947000
  H      3.587000   -6.868000   -1.843000
  H     -2.276000   -4.774000   -0.050000
  H      3.714000   -3.724000    1.926000
  H      5.092000   -5.795000    1.871000
  H      6.205000   -7.329000   -0.439000
  H      5.393000   -7.917000    1.042000
  H      4.759000   -8.373000   -0.564000
  H      0.329000   -5.290000   -0.008000
  H      2.146000   -4.842000   -1.940000
  H      5.808000    4.986000   -1.956000
  H      4.788000   -2.281000   -0.185000
  H      4.860000    2.114000    1.912000
  H      6.901000    3.531000    1.772000
  H      7.383000    6.109000    0.356000
  H      8.414000    4.652000    0.435000
  H      7.921000    5.310000   -1.150000
  H      5.283000    0.336000   -0.179000
  H      3.720000    3.632000   -1.967000

 Total Charge           Charge          ....    0
 Multiplicity           Mult            ....    1
 Number of Electrons    NEL             ....  358
 Basis Dimension        Dim             ....  918

ORBITAL ENERGIES
----------------

  NO   OCC          E(Eh)            E(eV)
   0   2.0000     -15.673333      -426.4931
   1   2.0000     -15.634828      -425.4453
   2   2.0000     -15.630774      -425.3350
   3   2.0000     -15.591654      -424.2705
   4   2.0000     -15.524630      -422.4467
   5   2.0000     -15.516200      -422.2173
   6   2.0000     -15.452445      -420.4824
   7   2.0000     -15.441283      -420.1787
   8   2.0000     -11.324225      -308.1478
   9   2.0000     -11.323946      -308.1402
  10   2.0000     -11.322760      -308.1080
  11   2.0000     -11.299859      -307.4848
  12   2.0000     -11.297670      -307.4252
  13   2.0000     -11.293399      -307.3090
  14   2.0000     -11.289898      -307.2138
  15   2.0000     -11.287623      -307.1518
  16   2.0000     -11.286014      -307.1081
  17   2.0000     -11.275998      -306.8355
  18   2.0000     -11.273388      -306.7645
  19   2.0000     -11.258861      -306.3692
  20   2.0000     -11.257900      -306.3430
  21   2.0000     -11.255685      -306.2828
  22   2.0000     -11.255587      -306.2801
  23   2.0000     -11.238476      -305.8145
  24   2.0000     -11.235561      -305.7352
  25   2.0000     -11.231824      -305.6335
  26   2.0000     -11.231020      -305.6116
  27   2.0000     -11.228958      -305.5555
  28   2.0000     -11.228858      -305.5528
  29   2.0000     -11.209748      -305.0327
  30   2.0000     -11.208480      -304.9983
  31   2.0000     -11.200325      -304.7763
  32   2.0000     -11.192805      -304.5717
  33   2.0000     -11.190428      -304.5070
  34   2.0000     -11.189976      -304.4947
  35   2.0000     -11.189261      -304.4753
  36   2.0000     -11.188715      -304.4604
  37   2.0000     -11.185786      -304.3807
  38   2.0000     -11.184655      -304.3499
  39   2.0000     -11.172656      -304.0234
  40   2.0000     -11.172501      -304.0192
  41   2.0000     -11.170081      -303.9534
  42   2.0000     -11.167285      -303.8773
  43   2.0000     -11.161338      -303.7155
  44   2.0000     -11.159065      -303.6536
  45   2.0000     -11.159002      -303.6519
  46   2.0000     -11.157477      -303.6104
  47   2.0000     -11.154285      -303.5235
  48   2.0000     -11.148169      -303.3571
  49   2.0000     -11.139773      -303.1286
  50   2.0000     -11.132347      -302.9266
  51   2.0000     -11.122496      -302.6585
  52   2.0000      -1.354893       -36.8685
  53   2.0000      -1.321957       -35.9723
  54   2.0000      -1.318693       -35.8834
  55   2.0000      -1.285518       -34.9807
  56   2.0000      -1.225207       -33.3396
  57   2.0000      -1.210672       -32.9441
  58   2.0000      -1.171413       -31.8758
  59   2.0000      -1.152109       -31.3505
  60   2.0000      -1.139057       -30.9953
  61   2.0000      -1.110769       -30.2256
  62   2.0000      -1.108245       -30.1569
  63   2.0000      -1.081078       -29.4176
  64   2.0000      -1.076987       -29.3063
  65   2.0000      -1.046100       -28.4658
  66   2.0000      -1.043417       -28.3928
  67   2.0000      -1.038067       -28.2472
  68   2.0000      -1.014489       -27.6057
  69   2.0000      -1.014390       -27.6030
  70   2.0000      -1.009709       -27.4756
  71   2.0000      -0.992698       -27.0127
  72   2.0000      -0.986971       -26.8568
  73   2.0000      -0.979724       -26.6596
  74   2.0000      -0.972463       -26.4621
  75   2.0000      -0.960784       -26.1443
  76   2.0000      -0.953097       -25.9351
  77   2.0000      -0.946558       -25.7572
  78   2.0000      -0.935140       -25.4464
  79   2.0000      -0.919336       -25.0164
  80   2.0000      -0.905999       -24.6535
  81   2.0000      -0.893778       -24.3209
  82   2.0000      -0.874578       -23.7985
  83   2.0000      -0.871942       -23.7268
  84   2.0000      -0.868691       -23.6383
  85   2.0000      -0.856826       -23.3154
  86   2.0000      -0.841586       -22.9007
  87   2.0000      -0.836221       -22.7547
  88   2.0000      -0.824148       -22.4262
  89   2.0000      -0.797871       -21.7112
  90   2.0000      -0.791848       -21.5473
  91   2.0000      -0.750164       -20.4130
  92   2.0000      -0.742712       -20.2102
  93   2.0000      -0.732764       -19.9395
  94   2.0000      -0.724112       -19.7041
  95   2.0000      -0.721769       -19.6403
  96   2.0000      -0.715731       -19.4760
  97   2.0000      -0.711182       -19.3523
  98   2.0000      -0.706817       -19.2335
  99   2.0000      -0.696589       -18.9551
 100   2.0000      -0.696140       -18.9429
 101   2.0000      -0.684461       -18.6251
 102   2.0000      -0.680202       -18.5092
 103   2.0000      -0.679506       -18.4903
 104   2.0000      -0.678359       -18.4591
 105   2.0000      -0.673087       -18.3156
 106   2.0000      -0.669198       -18.2098
 107   2.0000      -0.661020       -17.9873
 108   2.0000      -0.655953       -17.8494
 109   2.0000      -0.653671       -17.7873
 110   2.0000      -0.650599       -17.7037
 111   2.0000      -0.643386       -17.5074
 112   2.0000      -0.641498       -17.4560
 113   2.0000      -0.640366       -17.4252
 114   2.0000      -0.637788       -17.3551
 115   2.0000      -0.627561       -17.0768
 116   2.0000      -0.624834       -17.0026
 117   2.0000      -0.618994       -16.8437
 118   2.0000      -0.613094       -16.6831
 119   2.0000      -0.612411       -16.6646
 120   2.0000      -0.610663       -16.6170
 121   2.0000      -0.607298       -16.5254
 122   2.0000      -0.600458       -16.3393
 123   2.0000      -0.586768       -15.9668
 124   2.0000      -0.582324       -15.8458
 125   2.0000      -0.580313       -15.7911
 126   2.0000      -0.579563       -15.7707
 127   2.0000      -0.575253       -15.6534
 128   2.0000      -0.567051       -15.4302
 129   2.0000      -0.559116       -15.2143
 130   2.0000      -0.551609       -15.0100
 131   2.0000      -0.547560       -14.8999
 132   2.0000      -0.542408       -14.7597
 133   2.0000      -0.540522       -14.7084
 134   2.0000      -0.538396       -14.6505
 135   2.0000      -0.535455       -14.5705
 136   2.0000      -0.528257       -14.3746
 137   2.0000      -0.523147       -14.2355
 138   2.0000      -0.516910       -14.0658
 139   2.0000      -0.513630       -13.9766
 140   2.0000      -0.512197       -13.9376
 141   2.0000      -0.511280       -13.9126
 142   2.0000      -0.509267       -13.8579
 143   2.0000      -0.503605       -13.7038
 144   2.0000      -0.501938       -13.6584
 145   2.0000      -0.497198       -13.5294
 146   2.0000      -0.492936       -13.4135
 147   2.0000      -0.483877       -13.1670
 148   2.0000      -0.479877       -13.0581
 149   2.0000      -0.466807       -12.7025
 150   2.0000      -0.465991       -12.6803
 151   2.0000      -0.457136       -12.4393
 152   2.0000      -0.450379       -12.2554
 153   2.0000      -0.445251       -12.1159
 154   2.0000      -0.441649       -12.0179
 155   2.0000      -0.431555       -11.7432
 156   2.0000      -0.428727       -11.6662
 157   2.0000      -0.414817       -11.2877
 158   2.0000      -0.404431       -11.0051
 159   2.0000      -0.388397       -10.5688
 160   2.0000      -0.383436       -10.4338
 161   2.0000      -0.378285       -10.2937
 162   2.0000      -0.370176       -10.0730
 163   2.0000      -0.357194        -9.7197
 164   2.0000      -0.355137        -9.6638
 165   2.0000      -0.340378        -9.2622
 166   2.0000      -0.337476        -9.1832
 167   2.0000      -0.326242        -8.8775
 168   2.0000      -0.325008        -8.8439
 169   2.0000      -0.304059        -8.2739
 170   2.0000      -0.299683        -8.1548
 171   2.0000      -0.286024        -7.7831
 172   2.0000      -0.281882        -7.6704
 173   2.0000      -0.262595        -7.1456
 174   2.0000      -0.242883        -6.6092
 175   2.0000      -0.189864        -5.1664
 176   2.0000      -0.180255        -4.9050
 177   2.0000      -0.075805        -2.0628
 178   2.0000      -0.058382        -1.5887
 179   0.0000       0.028525         0.7762
 180   0.0000       0.066391         1.8066
 181   0.0000       0.091252         2.4831
 182   0.0000       0.109935         2.9915
 183   0.0000       0.110548         3.0082

MULLIKEN ATOMIC CHARGES
-----------------------
   0 C :    0.209131
   1 N :   -0.454620
   2 C :   -0.066206
   3 N :   -0.337343
   4 C :   -0.048898
   5 N :   -0.564489
   6 C :   -0.115790
   7 N :   -0.340184
   8 C :    0.207567
   9 N :   -0.562391
  10 C :    0.118687
  11 N :   -0.438260
  12 C :   -0.081610
  13 N :   -0.430939
  14 C :    0.232417
  15 N :   -0.441122
  16 C :    0.228438
  17 C :   -0.113991
  18 C :   -0.194471
  19 C :    0.225920
  20 C :    0.212925
  21 C :   -0.091858
  22 C :   -0.090934
  23 C :   -0.040507
  24 C :    0.195094
  25 C :    0.114496
  26 C :   -0.081556
  27 C :    0.213340
  28 C :   -0.060669
  29 C :   -0.180327
  30 C :    0.244765
  31 C :    0.227733
  32 C :   -0.062111
  33 C :   -0.063333
  34 C :   -0.050752
  35 C :    0.224728
  36 C :    0.109071
  37 C :   -0.064655
  38 C :    0.232194
  39 C :   -0.058356
  40 C :   -0.182266
  41 C :    0.225158
  42 C :    0.197866
  43 C :   -0.072466
  44 C :   -0.089755
  45 C :   -0.060247
  46 C :    0.210272
  47 C :    0.115460
  48 C :   -0.067899
  49 C :    0.237366
  50 C :   -0.047373
  51 C :   -0.191842
  52 H :    0.040006
  53 H :   -0.016563
  54 H :    0.049225
  55 H :    0.038352
  56 H :    0.049767
  57 H :    0.047812
  58 H :    0.048383
  59 H :    0.001157
  60 H :    0.051932
  61 H :    0.171293
  62 H :    0.175186
  63 H :    0.055442
  64 H :   -0.008920
  65 H :    0.047454
  66 H :    0.056045
  67 H :    0.062443
  68 H :    0.057422
  69 H :    0.056671
  70 H :   -0.029331
  71 H :    0.045071
  72 H :    0.069327
  73 H :   -0.008629
  74 H :    0.058559
  75 H :    0.068672
  76 H :    0.073168
  77 H :    0.066655
  78 H :    0.065925
  79 H :   -0.016124
  80 H :    0.059378
  81 H :    0.053941
  82 H :   -0.024687
  83 H :    0.041972
  84 H :    0.053945
  85 H :    0.060559
  86 H :    0.055549
  87 H :    0.056970
  88 H :   -0.015238
  89 H :    0.045804
Sum of atomic charges:   -0.0000000

LOEWDIN ATOMIC CHARGES
----------------------
   0 C :   -0.020365
   1 N :    0.118077
   2 C :   -0.101515
   3 N :    0.183381
   4 C :   -0.007004
   5 N :   -0.133024
   6 C :   -0.041762
   7 N :    0.175771
   8 C :   -0.022261
   9 N :   -0.140386
  10 C :    0.024043
  11 N :    0.142319
  12 C :   -0.115080
  13 N :    0.162792
  14 C :   -0.028169
  15 N :    0.138423
  16 C :   -0.058436
  17 C :   -0.040338
  18 C :   -0.103714
  19 C :   -0.081158
  20 C :    0.004191
  21 C :   -0.121977
  22 C :    0.037202
  23 C :   -0.015009
  24 C :   -0.011202
  25 C :    0.029900
  26 C :   -0.107643
  27 C :   -0.114529
  28 C :   -0.026880
  29 C :   -0.100410
  30 C :   -0.031864
  31 C :    0.021371
  32 C :   -0.094844
  33 C :    0.076033
  34 C :   -0.015591
  35 C :    0.019019
  36 C :    0.034469
  37 C :   -0.095101
  38 C :   -0.050464
  39 C :   -0.018710
  40 C :   -0.108295
  41 C :   -0.091891
  42 C :   -0.010151
  43 C :   -0.099908
  44 C :    0.032818
  45 C :   -0.027421
  46 C :    0.000704
  47 C :    0.029414
  48 C :   -0.096013
  49 C :   -0.071899
  50 C :   -0.019650
  51 C :   -0.108759
  52 H :    0.023895
  53 H :    0.003101
  54 H :    0.039357
  55 H :    0.023457
  56 H :    0.021912
  57 H :    0.026327
  58 H :    0.027571
  59 H :    0.011034
  60 H :    0.040029
  61 H :    0.060105
  62 H :    0.061704
  63 H :    0.030768
  64 H :    0.005596
  65 H :    0.045974
  66 H :    0.029466
  67 H :    0.028243
  68 H :    0.031711
  69 H :    0.030426
  70 H :   -0.004306
  71 H :    0.043628
  72 H :    0.036787
  73 H :    0.006821
  74 H :    0.049918
  75 H :    0.036371
  76 H :    0.033890
  77 H :    0.035553
  78 H :    0.035228
  79 H :    0.003188
  80 H :    0.049887
  81 H :    0.028914
  82 H :   -0.002631
  83 H :    0.042594
  84 H :    0.029736
  85 H :    0.027227
  86 H :    0.030174
  87 H :    0.031292
  88 H :    0.002026
  89 H :    0.044520

  Mayer bond orders larger than 0.100000
B(  0-C ,  1-N ) :   1.0919 B(  0-C , 17-C ) :   1.7050 B(  0-C , 52-H ) :   0.9665
B(  1-N ,  8-C ) :   1.0910 B(  1-N , 10-C ) :   0.9770 B(  2-C , 12-C ) :   1.5066
B(  2-C , 16-C ) :   1.3563 B(  2-C , 53-H ) :   0.9751 B(  3-N , 14-C ) :   1.2184
B(  3-N , 16-C ) :   1.1894 B(  3-N , 61-H ) :   0.8990 B(  4-C ,  6-C ) :   1.2148
B(  4-C , 17-C ) :   1.2131 B(  4-C , 18-C ) :   1.4337 B(  5-N , 19-C ) :   1.4515
B(  5-N , 27-C ) :   1.3792 B(  6-C ,  8-C ) :   1.7023 B(  6-C , 54-H ) :   0.9550
B(  7-N , 30-C ) :   1.1955 B(  7-N , 38-C ) :   1.1916 B(  7-N , 62-H ) :   0.8969
B(  8-C , 55-H ) :   0.9673 B(  9-N , 41-C ) :   1.3953 B(  9-N , 49-C ) :   1.4248
B( 10-C , 56-H ) :   0.9770 B( 10-C , 57-H ) :   0.9822 B( 10-C , 58-H ) :   0.9843
B( 11-N , 20-C ) :   1.1304 B( 11-N , 24-C ) :   1.1088 B( 11-N , 25-C ) :   0.9599
B( 12-C , 14-C ) :   1.3553 B( 12-C , 59-H ) :   0.9723 B( 13-N , 31-C ) :   1.1562
B( 13-N , 35-C ) :   1.1535 B( 13-N , 36-C ) :   0.9439 B( 14-C , 18-C ) :   1.1317
B( 15-N , 42-C ) :   1.1082 B( 15-N , 46-C ) :   1.1223 B( 15-N , 47-C ) :   0.9616
B( 16-C , 51-C ) :   1.1724 B( 17-C , 60-H ) :   0.9514 B( 18-C , 19-C ) :   1.1362
B( 19-C , 21-C ) :   1.2448 B( 20-C , 28-C ) :   1.6279 B( 20-C , 63-H ) :   0.9703
B( 21-C , 26-C ) :   1.6065 B( 21-C , 64-H ) :   0.9655 B( 22-C , 23-C ) :   1.2891
B( 22-C , 28-C ) :   1.2652 B( 22-C , 29-C ) :   1.2234 B( 23-C , 24-C ) :   1.6197
B( 23-C , 65-H ) :   0.9704 B( 24-C , 66-H ) :   0.9695 B( 25-C , 67-H ) :   0.9760
B( 25-C , 68-H ) :   0.9828 B( 25-C , 69-H ) :   0.9823 B( 26-C , 27-C ) :   1.2419
B( 26-C , 70-H ) :   0.9706 B( 27-C , 29-C ) :   1.2137 B( 28-C , 71-H ) :   0.9719
B( 29-C , 30-C ) :   1.2402 B( 30-C , 32-C ) :   1.2843 B( 31-C , 39-C ) :   1.5940
B( 31-C , 72-H ) :   0.9683 B( 32-C , 37-C ) :   1.5746 B( 32-C , 73-H ) :   0.9785
B( 33-C , 34-C ) :   1.3030 B( 33-C , 39-C ) :   1.2987 B( 33-C , 40-C ) :   1.1860
B( 34-C , 35-C ) :   1.5912 B( 34-C , 74-H ) :   0.9697 B( 35-C , 75-H ) :   0.9683
B( 36-C , 76-H ) :   0.9767 B( 36-C , 77-H ) :   0.9816 B( 36-C , 78-H ) :   0.9824
B( 37-C , 38-C ) :   1.2890 B( 37-C , 79-H ) :   0.9767 B( 38-C , 40-C ) :   1.2299
B( 39-C , 80-H ) :   0.9707 B( 40-C , 41-C ) :   1.2467 B( 41-C , 43-C ) :   1.1884
B( 42-C , 50-C ) :   1.6338 B( 42-C , 81-H ) :   0.9697 B( 43-C , 48-C ) :   1.6641
B( 43-C , 82-H ) :   0.9723 B( 44-C , 45-C ) :   1.2640 B( 44-C , 50-C ) :   1.2711
B( 44-C , 51-C ) :   1.2610 B( 45-C , 46-C ) :   1.6351 B( 45-C , 83-H ) :   0.9718
B( 46-C , 84-H ) :   0.9700 B( 47-C , 85-H ) :   0.9762 B( 47-C , 86-H ) :   0.9829
B( 47-C , 87-H ) :   0.9825 B( 48-C , 49-C ) :   1.1917 B( 48-C , 88-H ) :   0.9747
B( 49-C , 51-C ) :   1.2397 B( 50-C , 89-H ) :   0.9710

MP2 TOTAL ENERGY:    -2130.879837839 Eh
FINAL SINGLE POINT ENERGY     -2130.879837838783

DIPOLE MOMENT
-------------
                                X             Y             Z
Electronic contribution:      2.27347      -3.90642      -0.16515
Nuclear contribution   :      0.07863       0.23959       0.16509
                        -----------------------------------------
Total Dipole Moment    :      2.35209      -3.66683      -0.00005
                        -----------------------------------------
Magnitude (a.u.)       :      4.35637
Magnitude (Debye)      :     11.07301

Rotational constants in cm-1:     0.001500     0.001478     0.000761
Rotational constants in MHz :    44.981363    44.316353    22.800345

                             ****ORCA TERMINATED NORMALLY****
TOTAL RUN TIME: 0 days 1 hours 24 minutes 46 seconds 117 msec
