                         Program Version 5.0.4 -  RELEASE  -
|  1> ! PAL2
|  2> ! mp2 cc-pvdz TightSCF  NoKeepInts
|  3>
|  4> %scf
|  5>   MaxCore 2000
|  6> end
|  7> %mp2
|  8>   MaxCore 2000
|  9> end
| 10> * xyz 0 1
| 11>    C       -4.41200         5.53200         1.12700
| 12>    C        1.47400         4.04100         0.05700
| 13>    C       -2.80200         4.09300         0.04900
| 14>    C       -2.79000         4.99600        -1.02500
| 15>    C       -3.57900         6.12900        -0.98700
| 16>    C       -5.18200         7.62300         0.10200
| 17>    C        0.13200         4.30700         0.06100
| 18>    C       -0.56900         3.05600         0.04700
| 19>    C        1.64900         2.61800         0.02300
| 20>    C       -3.63600         4.38900         1.13800
| 21>    N       -4.37700         6.38200         0.07600
| 22>    N        0.38800         2.06700         0.02500
| 23>    N       -2.01000         0.39500        -0.07500
| 24>    N       -0.38800        -2.07400        -0.02700
| 25>    N        2.01000        -0.40100         0.06500
| 26>    C       -1.96000         2.86100         0.02400
| 27>    C       -2.62300         1.61500        -0.01800
| 28>    C       -5.57300        -4.32900         1.06600
| 29>    C       -4.07300         1.47100         0.05600
| 30>    C       -4.10600        -2.75600        -0.02600
| 31>    C       -4.99500        -2.75700        -1.11100
| 32>    C       -6.13200        -3.54200        -1.07600
| 33>    C       -7.65100        -5.11300         0.04000
| 34>    C       -4.32400         0.14100         0.03700
| 35>    C       -3.02500        -0.52000        -0.04800
| 36>    C       -4.42200        -3.56600         1.07500
| 37>    N       -6.40700        -4.31300         0.00100
| 38>    C       -2.86700        -1.92200        -0.04000
| 39>    C       -1.65000        -2.62400        -0.02700
| 40>    C        3.56800        -6.14200        -1.04000
| 41>    C       -1.47600        -4.04900        -0.03400
| 42>    C        2.80300        -4.09900        -0.00800
| 43>    C        3.65700        -4.38400         1.06900
| 44>    C        4.42700        -5.53000         1.05900
| 45>    C        5.24500        -7.58800         0.01400
| 46>    C       -0.13400        -4.31500        -0.02200
| 47>    C        0.56800        -3.06400        -0.02700
| 48>    C        2.77500        -5.01200        -1.07400
| 49>    N        4.37600        -6.39100         0.01700
| 50>    C        1.95900        -2.86900        -0.00900
| 51>    C        2.62100        -1.62200         0.00900
| 52>    C        5.54300         4.33900        -1.13000
| 53>    C        4.07000        -1.47900        -0.09400
| 54>    C        4.10400         2.75100        -0.02100
| 55>    C        5.02700         2.72900         1.03600
| 56>    C        6.16600         3.50900         0.97800
| 57>    C        7.61900         5.15300        -0.11500
| 58>    C        4.32100        -0.14800        -0.09200
| 59>    C        3.02500         0.51400         0.01500
| 60>    C        4.38700         3.58200        -1.11500
| 61>    C        2.86600         1.91600         0.01300
| 62>    N        6.41300         4.29600        -0.09500
| 63>    H       -5.07800         5.79400         1.94000
| 64>    H        2.27400         4.76600         0.08100
| 65>    H       -2.16000         4.82800        -1.89000
| 66>    H       -3.59700         6.85800        -1.78700
| 67>    H       -4.57000         8.43600         0.50000
| 68>    H       -5.50100         7.85700        -0.91400
| 69>    H       -6.05200         7.46300         0.73900
| 70>    H       -0.33200         5.28200         0.06900
| 71>    H       -3.70000         3.72400         1.99200
| 72>    H        0.18200         1.07200         0.00500
| 73>    H       -0.18300        -1.08000        -0.02100
| 74>    H       -5.86400        -4.96200         1.89500
| 75>    H       -4.79400         2.27200         0.13900
| 76>    H       -4.80000        -2.16000        -1.99400
| 77>    H       -6.84100        -3.58200        -1.89300
| 78>    H       -8.42800        -4.53600         0.54600
| 79>    H       -7.95600        -5.33700        -0.98100
| 80>    H       -7.45600        -6.03700         0.58400
| 81>    H       -5.28700        -0.34400         0.10000
| 82>    H       -3.78000        -3.60100         1.94700
| 83>    H        3.58700        -6.86800        -1.84300
| 84>    H       -2.27600        -4.77400        -0.05000
| 85>    H        3.71400        -3.72400         1.92600
| 86>    H        5.09200        -5.79500         1.87100
| 87>    H        6.20500        -7.32900        -0.43900
| 88>    H        5.39300        -7.91700         1.04200
| 89>    H        4.75900        -8.37300        -0.56400
| 90>    H        0.32900        -5.29000        -0.00800
| 91>    H        2.14600        -4.84200        -1.94000
| 92>    H        5.80800         4.98600        -1.95600
| 93>    H        4.78800        -2.28100        -0.18500
| 94>    H        4.86000         2.11400         1.91200
| 95>    H        6.90100         3.53100         1.77200
| 96>    H        7.38300         6.10900         0.35600
| 97>    H        8.41400         4.65200         0.43500
| 98>    H        7.92100         5.31000        -1.15000
| 99>    H        5.28300         0.33600        -0.17900
|100>    H        3.72000         3.63200        -1.96700
|101> *
|102>
|103>                          ****END OF INPUT****

CARTESIAN COORDINATES (ANGSTROEM)
---------------------------------
  C     -4.412000    5.532000    1.127000
  C      1.474000    4.041000    0.057000
  C     -2.802000    4.093000    0.049000
  C     -2.790000    4.996000   -1.025000
  C     -3.579000    6.129000   -0.987000
  C     -5.182000    7.623000    0.102000
  C      0.132000    4.307000    0.061000
  C     -0.569000    3.056000    0.047000
  C      1.649000    2.618000    0.023000
  C     -3.636000    4.389000    1.138000
  N     -4.377000    6.382000    0.076000
  N      0.388000    2.067000    0.025000
  N     -2.010000    0.395000   -0.075000
  N     -0.388000   -2.074000   -0.027000
  N      2.010000   -0.401000    0.065000
  C     -1.960000    2.861000    0.024000
  C     -2.623000    1.615000   -0.018000
  C     -5.573000   -4.329000    1.066000
  C     -4.073000    1.471000    0.056000
  C     -4.106000   -2.756000   -0.026000
  C     -4.995000   -2.757000   -1.111000
  C     -6.132000   -3.542000   -1.076000
  C     -7.651000   -5.113000    0.040000
  C     -4.324000    0.141000    0.037000
  C     -3.025000   -0.520000   -0.048000
  C     -4.422000   -3.566000    1.075000
  N     -6.407000   -4.313000    0.001000
  C     -2.867000   -1.922000   -0.040000
  C     -1.650000   -2.624000   -0.027000
  C      3.568000   -6.142000   -1.040000
  C     -1.476000   -4.049000   -0.034000
  C      2.803000   -4.099000   -0.008000
  C      3.657000   -4.384000    1.069000
  C      4.427000   -5.530000    1.059000
  C      5.245000   -7.588000    0.014000
  C     -0.134000   -4.315000   -0.022000
  C      0.568000   -3.064000   -0.027000
  C      2.775000   -5.012000   -1.074000
  N      4.376000   -6.391000    0.017000
  C      1.959000   -2.869000   -0.009000
  C      2.621000   -1.622000    0.009000
  C      5.543000    4.339000   -1.130000
  C      4.070000   -1.479000   -0.094000
  C      4.104000    2.751000   -0.021000
  C      5.027000    2.729000    1.036000
  C      6.166000    3.509000    0.978000
  C      7.619000    5.153000   -0.115000
  C      4.321000   -0.148000   -0.092000
  C      3.025000    0.514000    0.015000
  C      4.387000    3.582000   -1.115000
  C      2.866000    1.916000    0.013000
  N      6.413000    4.296000   -0.095000
  H     -5.078000    5.794000    1.940000
  H      2.274000    4.766000    0.081000
  H     -2.160000    4.828000   -1.890000
  H     -3.597000    6.858000   -1.787000
  H     -4.570000    8.436000    0.500000
  H     -5.501000    7.857000   -0.914000
  H     -6.052000    7.463000    0.739000
  H     -0.332000    5.282000    0.069000
  H     -3.700000    3.724000    1.992000
  H      0.182000    1.072000    0.005000
  H     -0.183000   -1.080000   -0.021000
  H     -5.864000   -4.962000    1.895000
  H     -4.794000    2.272000    0.139000
  H     -4.800000   -2.160000   -1.994000
  H     -6.841000   -3.582000   -1.893000
  H     -8.428000   -4.536000    0.546000
  H     -7.956000   -5.337000   -0.981000
  H     -7.456000   -6.037000    0.584000
  H     -5.287000   -0.344000    0.100000
  H     -3.780000   -3.601000    1.947000
  H      3.587000   -6.868000   -1.843000
  H     -2.276000   -4.774000   -0.050000
  H      3.714000   -3.724000    1.926000
  H      5.092000   -5.795000    1.871000
  H      6.205000   -7.329000   -0.439000
  H      5.393000   -7.917000    1.042000
  H      4.759000   -8.373000   -0.564000
  H      0.329000   -5.290000   -0.008000
  H      2.146000   -4.842000   -1.940000
  H      5.808000    4.986000   -1.956000
  H      4.788000   -2.281000   -0.185000
  H      4.860000    2.114000    1.912000
  H      6.901000    3.531000    1.772000
  H      7.383000    6.109000    0.356000
  H      8.414000    4.652000    0.435000
  H      7.921000    5.310000   -1.150000
  H      5.283000    0.336000   -0.179000
  H      3.720000    3.632000   -1.967000

 Total Charge           Charge          ....    0
 Multiplicity           Mult            ....    1
 Number of Electrons    NEL             ....  358
 Basis Dimension        Dim             ....  918

ORBITAL ENERGIES
----------------

  NO   OCC          E(Eh)            E(eV)
   0   2.0000     -15.648050      -425.8051
   1   2.0000     -15.638878      -425.5555
   2   2.0000     -15.627446      -425.2444
   3   2.0000     -15.620275      -425.0493
   4   2.0000     -15.517179      -422.2439
   5   2.0000     -15.514683      -422.1760
   6   2.0000     -15.445632      -420.2970
   7   2.0000     -15.439150      -420.1206
   8   2.0000     -11.308131      -307.7099
   9   2.0000     -11.302332      -307.5521
  10   2.0000     -11.302245      -307.5497
  11   2.0000     -11.301242      -307.5224
  12   2.0000     -11.295119      -307.3558
  13   2.0000     -11.294904      -307.3500
  14   2.0000     -11.293031      -307.2990
  15   2.0000     -11.290865      -307.2401
  16   2.0000     -11.285704      -307.0996
  17   2.0000     -11.283040      -307.0271
  18   2.0000     -11.279941      -306.9428
  19   2.0000     -11.277278      -306.8703
  20   2.0000     -11.250880      -306.1520
  21   2.0000     -11.242076      -305.9125
  22   2.0000     -11.240681      -305.8745
  23   2.0000     -11.239722      -305.8484
  24   2.0000     -11.233917      -305.6904
  25   2.0000     -11.233105      -305.6683
  26   2.0000     -11.231719      -305.6306
  27   2.0000     -11.225609      -305.4643
  28   2.0000     -11.225552      -305.4628
  29   2.0000     -11.225381      -305.4581
  30   2.0000     -11.220571      -305.3272
  31   2.0000     -11.219722      -305.3042
  32   2.0000     -11.198327      -304.7220
  33   2.0000     -11.198093      -304.7156
  34   2.0000     -11.194079      -304.6064
  35   2.0000     -11.193926      -304.6022
  36   2.0000     -11.177041      -304.1428
  37   2.0000     -11.176396      -304.1252
  38   2.0000     -11.173835      -304.0555
  39   2.0000     -11.169775      -303.9450
  40   2.0000     -11.165639      -303.8325
  41   2.0000     -11.164155      -303.7921
  42   2.0000     -11.163952      -303.7866
  43   2.0000     -11.161593      -303.7224
  44   2.0000     -11.158614      -303.6413
  45   2.0000     -11.155514      -303.5570
  46   2.0000     -11.153725      -303.5083
  47   2.0000     -11.150397      -303.4177
  48   2.0000     -11.148738      -303.3726
  49   2.0000     -11.147210      -303.3310
  50   2.0000     -11.135491      -303.0121
  51   2.0000     -11.133810      -302.9664
  52   2.0000      -1.333262       -36.2799
  53   2.0000      -1.325358       -36.0648
  54   2.0000      -1.315374       -35.7932
  55   2.0000      -1.309496       -35.6332
  56   2.0000      -1.216038       -33.0901
  57   2.0000      -1.211896       -32.9774
  58   2.0000      -1.163894       -31.6712
  59   2.0000      -1.152798       -31.3692
  60   2.0000      -1.120321       -30.4855
  61   2.0000      -1.112564       -30.2744
  62   2.0000      -1.105092       -30.0711
  63   2.0000      -1.098620       -29.8950
  64   2.0000      -1.056557       -28.7504
  65   2.0000      -1.049101       -28.5475
  66   2.0000      -1.039963       -28.2988
  67   2.0000      -1.034553       -28.1516
  68   2.0000      -1.027104       -27.9489
  69   2.0000      -1.011649       -27.5284
  70   2.0000      -1.007061       -27.4035
  71   2.0000      -0.996958       -27.1286
  72   2.0000      -0.980007       -26.6674
  73   2.0000      -0.975729       -26.5509
  74   2.0000      -0.968954       -26.3666
  75   2.0000      -0.961551       -26.1651
  76   2.0000      -0.950454       -25.8632
  77   2.0000      -0.946505       -25.7557
  78   2.0000      -0.935443       -25.4547
  79   2.0000      -0.922734       -25.1089
  80   2.0000      -0.892314       -24.2811
  81   2.0000      -0.882229       -24.0067
  82   2.0000      -0.875797       -23.8316
  83   2.0000      -0.867247       -23.5990
  84   2.0000      -0.862260       -23.4633
  85   2.0000      -0.857305       -23.3285
  86   2.0000      -0.851889       -23.1811
  87   2.0000      -0.839820       -22.8527
  88   2.0000      -0.822140       -22.3716
  89   2.0000      -0.797580       -21.7033
  90   2.0000      -0.797129       -21.6910
  91   2.0000      -0.739395       -20.1199
  92   2.0000      -0.730284       -19.8720
  93   2.0000      -0.727266       -19.7899
  94   2.0000      -0.722947       -19.6724
  95   2.0000      -0.716888       -19.5075
  96   2.0000      -0.710795       -19.3417
  97   2.0000      -0.709238       -19.2993
  98   2.0000      -0.697928       -18.9916
  99   2.0000      -0.690872       -18.7996
 100   2.0000      -0.686584       -18.6829
 101   2.0000      -0.682150       -18.5623
 102   2.0000      -0.679804       -18.4984
 103   2.0000      -0.671865       -18.2824
 104   2.0000      -0.669191       -18.2096
 105   2.0000      -0.665838       -18.1184
 106   2.0000      -0.663243       -18.0478
 107   2.0000      -0.659865       -17.9558
 108   2.0000      -0.659540       -17.9470
 109   2.0000      -0.656083       -17.8529
 110   2.0000      -0.651122       -17.7179
 111   2.0000      -0.648812       -17.6551
 112   2.0000      -0.647300       -17.6139
 113   2.0000      -0.643052       -17.4983
 114   2.0000      -0.633574       -17.2404
 115   2.0000      -0.623664       -16.9708
 116   2.0000      -0.622750       -16.9459
 117   2.0000      -0.616039       -16.7633
 118   2.0000      -0.611330       -16.6351
 119   2.0000      -0.607970       -16.5437
 120   2.0000      -0.607211       -16.5231
 121   2.0000      -0.602717       -16.4008
 122   2.0000      -0.600858       -16.3502
 123   2.0000      -0.594219       -16.1695
 124   2.0000      -0.590283       -16.0624
 125   2.0000      -0.584668       -15.9096
 126   2.0000      -0.577398       -15.7118
 127   2.0000      -0.572855       -15.5882
 128   2.0000      -0.568989       -15.4830
 129   2.0000      -0.564004       -15.3473
 130   2.0000      -0.553466       -15.0606
 131   2.0000      -0.545528       -14.8446
 132   2.0000      -0.540620       -14.7110
 133   2.0000      -0.534687       -14.5496
 134   2.0000      -0.532145       -14.4804
 135   2.0000      -0.528595       -14.3838
 136   2.0000      -0.524362       -14.2686
 137   2.0000      -0.523592       -14.2477
 138   2.0000      -0.519536       -14.1373
 139   2.0000      -0.515425       -14.0254
 140   2.0000      -0.509045       -13.8518
 141   2.0000      -0.504589       -13.7306
 142   2.0000      -0.503950       -13.7132
 143   2.0000      -0.502239       -13.6666
 144   2.0000      -0.498220       -13.5573
 145   2.0000      -0.496298       -13.5050
 146   2.0000      -0.495925       -13.4948
 147   2.0000      -0.493755       -13.4358
 148   2.0000      -0.489412       -13.3176
 149   2.0000      -0.467475       -12.7207
 150   2.0000      -0.460397       -12.5280
 151   2.0000      -0.451859       -12.2957
 152   2.0000      -0.446646       -12.1538
 153   2.0000      -0.445478       -12.1221
 154   2.0000      -0.443460       -12.0672
 155   2.0000      -0.439842       -11.9687
 156   2.0000      -0.434288       -11.8176
 157   2.0000      -0.428336       -11.6556
 158   2.0000      -0.392717       -10.6864
 159   2.0000      -0.380715       -10.3598
 160   2.0000      -0.375706       -10.2235
 161   2.0000      -0.371839       -10.1182
 162   2.0000      -0.365387        -9.9427
 163   2.0000      -0.359465        -9.7815
 164   2.0000      -0.351741        -9.5714
 165   2.0000      -0.347267        -9.4496
 166   2.0000      -0.337808        -9.1922
 167   2.0000      -0.333492        -9.0748
 168   2.0000      -0.325384        -8.8542
 169   2.0000      -0.300145        -8.1674
 170   2.0000      -0.293191        -7.9781
 171   2.0000      -0.289066        -7.8659
 172   2.0000      -0.286859        -7.8058
 173   2.0000      -0.257056        -6.9948
 174   2.0000      -0.244779        -6.6608
 175   2.0000      -0.186890        -5.0855
 176   2.0000      -0.176676        -4.8076
 177   2.0000      -0.064229        -1.7478
 178   2.0000      -0.052737        -1.4350
 179   0.0000       0.032435         0.8826
 180   0.0000       0.069215         1.8834
 181   0.0000       0.092200         2.5089
 182   0.0000       0.095595         2.6013
 183   0.0000       0.128070         3.4850

MULLIKEN ATOMIC CHARGES
-----------------------
   0 C :    0.215026
   1 N :   -0.435205
   2 C :   -0.065321
   3 N :   -0.338872
   4 C :   -0.070511
   5 N :   -0.564359
   6 C :   -0.050921
   7 N :   -0.337385
   8 C :    0.209896
   9 N :   -0.564142
  10 C :    0.111498
  11 N :   -0.437426
  12 C :   -0.067133
  13 N :   -0.442975
  14 C :    0.237576
  15 N :   -0.440715
  16 C :    0.239712
  17 C :   -0.058860
  18 C :   -0.207063
  19 C :    0.240050
  20 C :    0.204155
  21 C :   -0.079195
  22 C :   -0.086129
  23 C :   -0.053246
  24 C :    0.210021
  25 C :    0.113783
  26 C :   -0.070752
  27 C :    0.229989
  28 C :   -0.048859
  29 C :   -0.188886
  30 C :    0.231444
  31 C :    0.204028
  32 C :   -0.066173
  33 C :   -0.087425
  34 C :   -0.050660
  35 C :    0.197345
  36 C :    0.116045
  37 C :   -0.067884
  38 C :    0.238610
  39 C :   -0.062119
  40 C :   -0.193777
  41 C :    0.220339
  42 C :    0.206239
  43 C :   -0.074222
  44 C :   -0.088932
  45 C :   -0.048483
  46 C :    0.198801
  47 C :    0.115749
  48 C :   -0.076365
  49 C :    0.221558
  50 C :   -0.056623
  51 C :   -0.189068
  52 H :    0.061494
  53 H :   -0.012478
  54 H :    0.050173
  55 H :    0.059390
  56 H :    0.065375
  57 H :    0.061562
  58 H :    0.060486
  59 H :   -0.016953
  60 H :    0.052079
  61 H :    0.174034
  62 H :    0.171462
  63 H :    0.056432
  64 H :   -0.022833
  65 H :    0.046539
  66 H :    0.057884
  67 H :    0.062265
  68 H :    0.058194
  69 H :    0.059446
  70 H :   -0.022211
  71 H :    0.048310
  72 H :    0.051056
  73 H :   -0.016381
  74 H :    0.041804
  75 H :    0.050067
  76 H :    0.057493
  77 H :    0.054716
  78 H :    0.053959
  79 H :   -0.013416
  80 H :    0.042038
  81 H :    0.052897
  82 H :   -0.023011
  83 H :    0.043535
  84 H :    0.052622
  85 H :    0.058171
  86 H :    0.056603
  87 H :    0.056230
  88 H :   -0.024137
  89 H :    0.042921
Sum of atomic charges:   -0.0000000

LOEWDIN ATOMIC CHARGES
----------------------
   0 C :    0.006810
   1 N :    0.149867
   2 C :   -0.100893
   3 N :    0.176935
   4 C :    0.052857
   5 N :   -0.141453
   6 C :   -0.018558
   7 N :    0.177874
   8 C :    0.003687
   9 N :   -0.139197
  10 C :    0.031181
  11 N :    0.144732
  12 C :   -0.101290
  13 N :    0.133807
  14 C :   -0.048910
  15 N :    0.138163
  16 C :   -0.038625
  17 C :   -0.021093
  18 C :   -0.111253
  19 C :   -0.086587
  20 C :   -0.002777
  21 C :   -0.103866
  22 C :    0.043562
  23 C :   -0.023057
  24 C :    0.002642
  25 C :    0.030436
  26 C :   -0.100186
  27 C :   -0.084422
  28 C :   -0.019064
  29 C :   -0.111296
  30 C :   -0.051070
  31 C :   -0.006792
  32 C :   -0.101106
  33 C :    0.027315
  34 C :   -0.022018
  35 C :   -0.012582
  36 C :    0.027846
  37 C :   -0.103798
  38 C :   -0.038872
  39 C :   -0.027584
  40 C :   -0.110385
  41 C :   -0.092593
  42 C :   -0.003214
  43 C :   -0.106618
  44 C :    0.033587
  45 C :   -0.019858
  46 C :   -0.009504
  47 C :    0.029130
  48 C :   -0.106730
  49 C :   -0.096942
  50 C :   -0.025862
  51 C :   -0.108349
  52 H :    0.032814
  53 H :    0.005060
  54 H :    0.046258
  55 H :    0.032001
  56 H :    0.029767
  57 H :    0.032839
  58 H :    0.033031
  59 H :    0.002924
  60 H :    0.046905
  61 H :    0.061173
  62 H :    0.059752
  63 H :    0.030838
  64 H :   -0.002000
  65 H :    0.044934
  66 H :    0.030835
  67 H :    0.028300
  68 H :    0.032053
  69 H :    0.031610
  70 H :   -0.001012
  71 H :    0.045684
  72 H :    0.028248
  73 H :    0.003098
  74 H :    0.042860
  75 H :    0.027512
  76 H :    0.025796
  77 H :    0.029946
  78 H :    0.029627
  79 H :    0.004617
  80 H :    0.042353
  81 H :    0.028795
  82 H :   -0.001564
  83 H :    0.043930
  84 H :    0.028725
  85 H :    0.026142
  86 H :    0.030560
  87 H :    0.030929
  88 H :   -0.002214
  89 H :    0.042846

  Mayer bond orders larger than 0.100000
B(  0-C ,  1-N ) :   1.1347 B(  0-C , 17-C ) :   1.6109 B(  0-C , 52-H ) :   0.9689
B(  1-N ,  8-C ) :   1.1297 B(  1-N , 10-C ) :   0.9545 B(  2-C , 12-C ) :   1.5434
B(  2-C , 16-C ) :   1.3149 B(  2-C , 53-H ) :   0.9781 B(  3-N , 14-C ) :   1.1954
B(  3-N , 16-C ) :   1.1986 B(  3-N , 61-H ) :   0.8975 B(  4-C ,  6-C ) :   1.2847
B(  4-C , 17-C ) :   1.2864 B(  4-C , 18-C ) :   1.2214 B(  5-N , 19-C ) :   1.4063
B(  5-N , 27-C ) :   1.4149 B(  6-C ,  8-C ) :   1.6134 B(  6-C , 54-H ) :   0.9713
B(  7-N , 30-C ) :   1.1918 B(  7-N , 38-C ) :   1.2051 B(  7-N , 62-H ) :   0.8991
B(  8-C , 55-H ) :   0.9696 B(  9-N , 41-C ) :   1.4161 B(  9-N , 49-C ) :   1.4085
B( 10-C , 56-H ) :   0.9763 B( 10-C , 57-H ) :   0.9815 B( 10-C , 58-H ) :   0.9832
B( 11-N , 20-C ) :   1.1204 B( 11-N , 24-C ) :   1.1282 B( 11-N , 25-C ) :   0.9581
B( 12-C , 14-C ) :   1.3150 B( 12-C , 59-H ) :   0.9770 B( 13-N , 31-C ) :   1.1119
B( 13-N , 35-C ) :   1.1048 B( 13-N , 36-C ) :   0.9658 B( 14-C , 18-C ) :   1.2088
B( 15-N , 42-C ) :   1.1195 B( 15-N , 46-C ) :   1.1089 B( 15-N , 47-C ) :   0.9628
B( 16-C , 51-C ) :   1.2077 B( 17-C , 60-H ) :   0.9712 B( 18-C , 19-C ) :   1.2360
B( 19-C , 21-C ) :   1.1979 B( 20-C , 28-C ) :   1.6221 B( 20-C , 63-H ) :   0.9703
B( 21-C , 26-C ) :   1.6529 B( 21-C , 64-H ) :   0.9723 B( 22-C , 23-C ) :   1.2789
B( 22-C , 28-C ) :   1.2777 B( 22-C , 29-C ) :   1.2339 B( 23-C , 24-C ) :   1.6198
B( 23-C , 65-H ) :   0.9712 B( 24-C , 66-H ) :   0.9690 B( 25-C , 67-H ) :   0.9762
B( 25-C , 68-H ) :   0.9830 B( 25-C , 69-H ) :   0.9820 B( 26-C , 27-C ) :   1.2001
B( 26-C , 70-H ) :   0.9738 B( 27-C , 29-C ) :   1.2355 B( 28-C , 71-H ) :   0.9712
B( 29-C , 30-C ) :   1.1996 B( 30-C , 32-C ) :   1.3246 B( 31-C , 39-C ) :   1.6449
B( 31-C , 72-H ) :   0.9700 B( 32-C , 37-C ) :   1.5336 B( 32-C , 73-H ) :   0.9775
B( 33-C , 34-C ) :   1.2635 B( 33-C , 39-C ) :   1.2567 B( 33-C , 40-C ) :   1.2774
B( 34-C , 35-C ) :   1.6423 B( 34-C , 74-H ) :   0.9707 B( 35-C , 75-H ) :   0.9700
B( 36-C , 76-H ) :   0.9761 B( 36-C , 77-H ) :   0.9822 B( 36-C , 78-H ) :   0.9833
B( 37-C , 38-C ) :   1.3246 B( 37-C , 79-H ) :   0.9781 B( 38-C , 40-C ) :   1.1983
B( 39-C , 80-H ) :   0.9717 B( 40-C , 41-C ) :   1.2064 B( 41-C , 43-C ) :   1.2233
B( 42-C , 50-C ) :   1.6346 B( 42-C , 81-H ) :   0.9696 B( 43-C , 48-C ) :   1.6282
B( 43-C , 82-H ) :   0.9743 B( 44-C , 45-C ) :   1.2745 B( 44-C , 50-C ) :   1.2632
B( 44-C , 51-C ) :   1.2523 B( 45-C , 46-C ) :   1.6315 B( 45-C , 83-H ) :   0.9709
B( 46-C , 84-H ) :   0.9703 B( 47-C , 85-H ) :   0.9761 B( 47-C , 86-H ) :   0.9827
B( 47-C , 87-H ) :   0.9827 B( 48-C , 49-C ) :   1.2213 B( 48-C , 88-H ) :   0.9735
B( 49-C , 51-C ) :   1.2150 B( 50-C , 89-H ) :   0.9716

MP2 TOTAL ENERGY:    -2130.908318723 Eh
FINAL SINGLE POINT ENERGY     -2130.908318722946

DIPOLE MOMENT
-------------
                                X             Y             Z
Electronic contribution:     -1.41463       0.62650      -0.10236
Nuclear contribution   :      0.07261       0.23774       0.11696
                        -----------------------------------------
Total Dipole Moment    :     -1.34201       0.86425       0.01460
                        -----------------------------------------
Magnitude (a.u.)       :      1.59629
Magnitude (Debye)      :      4.05744

Rotational constants in cm-1:     0.001498     0.001474     0.000762
Rotational constants in MHz :    44.919896    44.183548    22.851508

                             ****ORCA TERMINATED NORMALLY****
TOTAL RUN TIME: 0 days 1 hours 12 minutes 23 seconds 6 msec
