                         Program Version 5.0.4 -  RELEASE  -
|  1> ! PAL2
|  2> ! mp2 cc-pvdz TightSCF  NoKeepInts
|  3>
|  4> %scf
|  5>   MaxCore 2000
|  6> end
|  7> %mp2
|  8>   MaxCore 2000
|  9> end
| 10> * xyz 0 1
| 11>    C       -3.44300         6.23500        -0.86100
| 12>    C        1.47400         4.04100         0.05700
| 13>    C       -2.80200         4.09300         0.04900
| 14>    C       -3.76800         4.28600         1.04800
| 15>    C       -4.53500         5.43400         1.05900
| 16>    C       -5.22800         7.59100         0.13400
| 17>    C        0.13200         4.30700         0.06100
| 18>    C       -0.56900         3.05600         0.04700
| 19>    C        1.64900         2.61800         0.02300
| 20>    C       -2.65600         5.10100        -0.91700
| 21>    N       -4.36500         6.39000         0.11600
| 22>    N        0.38800         2.06700         0.02500
| 23>    N       -2.01000         0.39500        -0.07500
| 24>    N       -0.38800        -2.07400        -0.02700
| 25>    N        2.01000        -0.40100         0.06500
| 26>    C       -1.96000         2.86100         0.02400
| 27>    C       -2.62300         1.61500        -0.01800
| 28>    C       -5.57300        -4.32900         1.06600
| 29>    C       -4.07300         1.47100         0.05600
| 30>    C       -4.10600        -2.75600        -0.02600
| 31>    C       -4.99500        -2.75700        -1.11100
| 32>    C       -6.13200        -3.54200        -1.07600
| 33>    C       -7.65100        -5.11300         0.04000
| 34>    C       -4.32400         0.14100         0.03700
| 35>    C       -3.02500        -0.52000        -0.04800
| 36>    C       -4.42200        -3.56600         1.07500
| 37>    N       -6.40700        -4.31300         0.00100
| 38>    C       -2.86700        -1.92200        -0.04000
| 39>    C       -1.65000        -2.62400        -0.02700
| 40>    C        3.56800        -6.14200        -1.04000
| 41>    C       -1.47600        -4.04900        -0.03400
| 42>    C        2.80300        -4.09900        -0.00800
| 43>    C        3.65700        -4.38400         1.06900
| 44>    C        4.42700        -5.53000         1.05900
| 45>    C        5.24500        -7.58800         0.01400
| 46>    C       -0.13400        -4.31500        -0.02200
| 47>    C        0.56800        -3.06400        -0.02700
| 48>    C        2.77500        -5.01200        -1.07400
| 49>    N        4.37600        -6.39100         0.01700
| 50>    C        1.95900        -2.86900        -0.00900
| 51>    C        2.62100        -1.62200         0.00900
| 52>    C        5.54300         4.33900        -1.13000
| 53>    C        4.07000        -1.47900        -0.09400
| 54>    C        4.10400         2.75100        -0.02100
| 55>    C        5.02700         2.72900         1.03600
| 56>    C        6.16600         3.50900         0.97800
| 57>    C        7.61900         5.15300        -0.11500
| 58>    C        4.32100        -0.14800        -0.09200
| 59>    C        3.02500         0.51400         0.01500
| 60>    C        4.38700         3.58200        -1.11500
| 61>    C        2.86600         1.91600         0.01300
| 62>    N        6.41300         4.29600        -0.09500
| 63>    H       -3.35600         7.04200        -1.57700
| 64>    H        2.27400         4.76600         0.08100
| 65>    H       -3.93500         3.54000         1.81600
| 66>    H       -5.29800         5.62300         1.80400
| 67>    H       -6.15300         7.37200        -0.40500
| 68>    H       -5.44900         7.85000         1.16900
| 69>    H       -4.69800         8.41100        -0.35100
| 70>    H       -0.33200         5.28200         0.06900
| 71>    H       -1.91700         5.01700        -1.70600
| 72>    H        0.18200         1.07200         0.00500
| 73>    H       -0.18300        -1.08000        -0.02100
| 74>    H       -5.86400        -4.96200         1.89500
| 75>    H       -4.79400         2.27200         0.13900
| 76>    H       -4.80000        -2.16000        -1.99400
| 77>    H       -6.84100        -3.58200        -1.89300
| 78>    H       -8.42800        -4.53600         0.54600
| 79>    H       -7.95600        -5.33700        -0.98100
| 80>    H       -7.45600        -6.03700         0.58400
| 81>    H       -5.28700        -0.34400         0.10000
| 82>    H       -3.78000        -3.60100         1.94700
| 83>    H        3.58700        -6.86800        -1.84300
| 84>    H       -2.27600        -4.77400        -0.05000
| 85>    H        3.71400        -3.72400         1.92600
| 86>    H        5.09200        -5.79500         1.87100
| 87>    H        6.20500        -7.32900        -0.43900
| 88>    H        5.39300        -7.91700         1.04200
| 89>    H        4.75900        -8.37300        -0.56400
| 90>    H        0.32900        -5.29000        -0.00800
| 91>    H        2.14600        -4.84200        -1.94000
| 92>    H        5.80800         4.98600        -1.95600
| 93>    H        4.78800        -2.28100        -0.18500
| 94>    H        4.86000         2.11400         1.91200
| 95>    H        6.90100         3.53100         1.77200
| 96>    H        7.38300         6.10900         0.35600
| 97>    H        8.41400         4.65200         0.43500
| 98>    H        7.92100         5.31000        -1.15000
| 99>    H        5.28300         0.33600        -0.17900
|100>    H        3.72000         3.63200        -1.96700
|101> *
|102>
|103>                          ****END OF INPUT****

CARTESIAN COORDINATES (ANGSTROEM)
---------------------------------
  C     -3.443000    6.235000   -0.861000
  C      1.474000    4.041000    0.057000
  C     -2.802000    4.093000    0.049000
  C     -3.768000    4.286000    1.048000
  C     -4.535000    5.434000    1.059000
  C     -5.228000    7.591000    0.134000
  C      0.132000    4.307000    0.061000
  C     -0.569000    3.056000    0.047000
  C      1.649000    2.618000    0.023000
  C     -2.656000    5.101000   -0.917000
  N     -4.365000    6.390000    0.116000
  N      0.388000    2.067000    0.025000
  N     -2.010000    0.395000   -0.075000
  N     -0.388000   -2.074000   -0.027000
  N      2.010000   -0.401000    0.065000
  C     -1.960000    2.861000    0.024000
  C     -2.623000    1.615000   -0.018000
  C     -5.573000   -4.329000    1.066000
  C     -4.073000    1.471000    0.056000
  C     -4.106000   -2.756000   -0.026000
  C     -4.995000   -2.757000   -1.111000
  C     -6.132000   -3.542000   -1.076000
  C     -7.651000   -5.113000    0.040000
  C     -4.324000    0.141000    0.037000
  C     -3.025000   -0.520000   -0.048000
  C     -4.422000   -3.566000    1.075000
  N     -6.407000   -4.313000    0.001000
  C     -2.867000   -1.922000   -0.040000
  C     -1.650000   -2.624000   -0.027000
  C      3.568000   -6.142000   -1.040000
  C     -1.476000   -4.049000   -0.034000
  C      2.803000   -4.099000   -0.008000
  C      3.657000   -4.384000    1.069000
  C      4.427000   -5.530000    1.059000
  C      5.245000   -7.588000    0.014000
  C     -0.134000   -4.315000   -0.022000
  C      0.568000   -3.064000   -0.027000
  C      2.775000   -5.012000   -1.074000
  N      4.376000   -6.391000    0.017000
  C      1.959000   -2.869000   -0.009000
  C      2.621000   -1.622000    0.009000
  C      5.543000    4.339000   -1.130000
  C      4.070000   -1.479000   -0.094000
  C      4.104000    2.751000   -0.021000
  C      5.027000    2.729000    1.036000
  C      6.166000    3.509000    0.978000
  C      7.619000    5.153000   -0.115000
  C      4.321000   -0.148000   -0.092000
  C      3.025000    0.514000    0.015000
  C      4.387000    3.582000   -1.115000
  C      2.866000    1.916000    0.013000
  N      6.413000    4.296000   -0.095000
  H     -3.356000    7.042000   -1.577000
  H      2.274000    4.766000    0.081000
  H     -3.935000    3.540000    1.816000
  H     -5.298000    5.623000    1.804000
  H     -6.153000    7.372000   -0.405000
  H     -5.449000    7.850000    1.169000
  H     -4.698000    8.411000   -0.351000
  H     -0.332000    5.282000    0.069000
  H     -1.917000    5.017000   -1.706000
  H      0.182000    1.072000    0.005000
  H     -0.183000   -1.080000   -0.021000
  H     -5.864000   -4.962000    1.895000
  H     -4.794000    2.272000    0.139000
  H     -4.800000   -2.160000   -1.994000
  H     -6.841000   -3.582000   -1.893000
  H     -8.428000   -4.536000    0.546000
  H     -7.956000   -5.337000   -0.981000
  H     -7.456000   -6.037000    0.584000
  H     -5.287000   -0.344000    0.100000
  H     -3.780000   -3.601000    1.947000
  H      3.587000   -6.868000   -1.843000
  H     -2.276000   -4.774000   -0.050000
  H      3.714000   -3.724000    1.926000
  H      5.092000   -5.795000    1.871000
  H      6.205000   -7.329000   -0.439000
  H      5.393000   -7.917000    1.042000
  H      4.759000   -8.373000   -0.564000
  H      0.329000   -5.290000   -0.008000
  H      2.146000   -4.842000   -1.940000
  H      5.808000    4.986000   -1.956000
  H      4.788000   -2.281000   -0.185000
  H      4.860000    2.114000    1.912000
  H      6.901000    3.531000    1.772000
  H      7.383000    6.109000    0.356000
  H      8.414000    4.652000    0.435000
  H      7.921000    5.310000   -1.150000
  H      5.283000    0.336000   -0.179000
  H      3.720000    3.632000   -1.967000

 Total Charge           Charge          ....    0
 Multiplicity           Mult            ....    1
 Number of Electrons    NEL             ....  358
 Basis Dimension        Dim             ....  918

ORBITAL ENERGIES
----------------

  NO   OCC          E(Eh)            E(eV)
   0   2.0000     -15.641885      -425.6373
   1   2.0000     -15.637892      -425.5287
   2   2.0000     -15.629813      -425.3088
   3   2.0000     -15.621753      -425.0895
   4   2.0000     -15.519122      -422.2968
   5   2.0000     -15.516493      -422.2252
   6   2.0000     -15.444964      -420.2788
   7   2.0000     -15.443724      -420.2451
   8   2.0000     -11.304409      -307.6086
   9   2.0000     -11.301687      -307.5345
  10   2.0000     -11.298053      -307.4357
  11   2.0000     -11.296748      -307.4001
  12   2.0000     -11.295885      -307.3767
  13   2.0000     -11.293890      -307.3224
  14   2.0000     -11.292290      -307.2788
  15   2.0000     -11.292279      -307.2785
  16   2.0000     -11.286888      -307.1318
  17   2.0000     -11.286455      -307.1201
  18   2.0000     -11.281568      -306.9871
  19   2.0000     -11.280409      -306.9555
  20   2.0000     -11.246187      -306.0243
  21   2.0000     -11.241202      -305.8887
  22   2.0000     -11.236347      -305.7565
  23   2.0000     -11.235466      -305.7326
  24   2.0000     -11.234232      -305.6990
  25   2.0000     -11.233522      -305.6797
  26   2.0000     -11.232732      -305.6582
  27   2.0000     -11.228421      -305.5409
  28   2.0000     -11.227692      -305.5210
  29   2.0000     -11.227515      -305.5162
  30   2.0000     -11.221922      -305.3640
  31   2.0000     -11.221212      -305.3447
  32   2.0000     -11.200495      -304.7810
  33   2.0000     -11.200231      -304.7738
  34   2.0000     -11.194523      -304.6185
  35   2.0000     -11.193943      -304.6027
  36   2.0000     -11.173769      -304.0537
  37   2.0000     -11.173050      -304.0341
  38   2.0000     -11.172702      -304.0247
  39   2.0000     -11.171304      -303.9866
  40   2.0000     -11.170056      -303.9527
  41   2.0000     -11.168873      -303.9205
  42   2.0000     -11.167804      -303.8914
  43   2.0000     -11.166484      -303.8555
  44   2.0000     -11.160125      -303.6824
  45   2.0000     -11.158741      -303.6448
  46   2.0000     -11.152962      -303.4875
  47   2.0000     -11.151017      -303.4346
  48   2.0000     -11.145089      -303.2733
  49   2.0000     -11.143142      -303.2203
  50   2.0000     -11.141754      -303.1825
  51   2.0000     -11.138686      -303.0991
  52   2.0000      -1.328035       -36.1377
  53   2.0000      -1.324515       -36.0419
  54   2.0000      -1.317574       -35.8530
  55   2.0000      -1.311411       -35.6853
  56   2.0000      -1.217860       -33.1397
  57   2.0000      -1.213032       -33.0083
  58   2.0000      -1.162226       -31.6258
  59   2.0000      -1.157204       -31.4891
  60   2.0000      -1.116565       -30.3833
  61   2.0000      -1.112426       -30.2706
  62   2.0000      -1.106576       -30.1115
  63   2.0000      -1.101502       -29.9734
  64   2.0000      -1.051929       -28.6244
  65   2.0000      -1.048380       -28.5279
  66   2.0000      -1.042160       -28.3586
  67   2.0000      -1.036794       -28.2126
  68   2.0000      -1.026847       -27.9419
  69   2.0000      -1.009822       -27.4787
  70   2.0000      -1.009596       -27.4725
  71   2.0000      -0.998084       -27.1593
  72   2.0000      -0.981941       -26.7200
  73   2.0000      -0.976114       -26.5614
  74   2.0000      -0.968938       -26.3661
  75   2.0000      -0.960627       -26.1400
  76   2.0000      -0.952438       -25.9172
  77   2.0000      -0.943553       -25.6754
  78   2.0000      -0.940613       -25.5954
  79   2.0000      -0.923531       -25.1305
  80   2.0000      -0.893411       -24.3110
  81   2.0000      -0.878638       -23.9089
  82   2.0000      -0.875343       -23.8193
  83   2.0000      -0.869483       -23.6598
  84   2.0000      -0.864625       -23.5276
  85   2.0000      -0.857013       -23.3205
  86   2.0000      -0.848028       -23.0760
  87   2.0000      -0.844318       -22.9751
  88   2.0000      -0.821887       -22.3647
  89   2.0000      -0.798574       -21.7303
  90   2.0000      -0.797976       -21.7140
  91   2.0000      -0.739513       -20.1232
  92   2.0000      -0.729628       -19.8542
  93   2.0000      -0.728813       -19.8320
  94   2.0000      -0.721063       -19.6211
  95   2.0000      -0.720424       -19.6037
  96   2.0000      -0.712234       -19.3809
  97   2.0000      -0.709912       -19.3177
  98   2.0000      -0.698886       -19.0177
  99   2.0000      -0.692390       -18.8409
 100   2.0000      -0.684111       -18.6156
 101   2.0000      -0.680879       -18.5277
 102   2.0000      -0.679101       -18.4793
 103   2.0000      -0.674076       -18.3426
 104   2.0000      -0.668187       -18.1823
 105   2.0000      -0.667332       -18.1590
 106   2.0000      -0.662157       -18.0182
 107   2.0000      -0.659786       -17.9537
 108   2.0000      -0.656829       -17.8732
 109   2.0000      -0.655268       -17.8308
 110   2.0000      -0.652321       -17.7506
 111   2.0000      -0.651078       -17.7167
 112   2.0000      -0.648410       -17.6441
 113   2.0000      -0.644835       -17.5469
 114   2.0000      -0.635000       -17.2792
 115   2.0000      -0.623966       -16.9790
 116   2.0000      -0.618454       -16.8290
 117   2.0000      -0.615281       -16.7426
 118   2.0000      -0.611410       -16.6373
 119   2.0000      -0.609192       -16.5770
 120   2.0000      -0.608375       -16.5547
 121   2.0000      -0.605075       -16.4649
 122   2.0000      -0.602112       -16.3843
 123   2.0000      -0.593741       -16.1565
 124   2.0000      -0.587020       -15.9736
 125   2.0000      -0.584091       -15.8939
 126   2.0000      -0.579120       -15.7587
 127   2.0000      -0.574317       -15.6280
 128   2.0000      -0.570759       -15.5312
 129   2.0000      -0.561787       -15.2870
 130   2.0000      -0.553755       -15.0685
 131   2.0000      -0.543111       -14.7788
 132   2.0000      -0.540577       -14.7099
 133   2.0000      -0.535673       -14.5764
 134   2.0000      -0.533735       -14.5237
 135   2.0000      -0.530856       -14.4453
 136   2.0000      -0.524575       -14.2744
 137   2.0000      -0.523904       -14.2561
 138   2.0000      -0.517785       -14.0896
 139   2.0000      -0.515969       -14.0402
 140   2.0000      -0.510840       -13.9007
 141   2.0000      -0.505674       -13.7601
 142   2.0000      -0.503895       -13.7117
 143   2.0000      -0.502612       -13.6768
 144   2.0000      -0.499102       -13.5813
 145   2.0000      -0.498471       -13.5641
 146   2.0000      -0.497386       -13.5346
 147   2.0000      -0.493180       -13.4201
 148   2.0000      -0.491457       -13.3732
 149   2.0000      -0.469266       -12.7694
 150   2.0000      -0.460495       -12.5307
 151   2.0000      -0.451738       -12.2924
 152   2.0000      -0.448301       -12.1989
 153   2.0000      -0.446631       -12.1534
 154   2.0000      -0.445270       -12.1164
 155   2.0000      -0.439705       -11.9650
 156   2.0000      -0.435464       -11.8496
 157   2.0000      -0.431976       -11.7547
 158   2.0000      -0.392061       -10.6685
 159   2.0000      -0.383008       -10.4222
 160   2.0000      -0.377703       -10.2778
 161   2.0000      -0.373543       -10.1646
 162   2.0000      -0.362053        -9.8520
 163   2.0000      -0.358897        -9.7661
 164   2.0000      -0.353740        -9.6258
 165   2.0000      -0.348260        -9.4766
 166   2.0000      -0.337151        -9.1744
 167   2.0000      -0.332594        -9.0503
 168   2.0000      -0.329423        -8.9641
 169   2.0000      -0.300362        -8.1733
 170   2.0000      -0.295213        -8.0332
 171   2.0000      -0.289411        -7.8753
 172   2.0000      -0.287489        -7.8230
 173   2.0000      -0.255579        -6.9547
 174   2.0000      -0.248459        -6.7609
 175   2.0000      -0.188238        -5.1222
 176   2.0000      -0.178162        -4.8480
 177   2.0000      -0.067009        -1.8234
 178   2.0000      -0.054544        -1.4842
 179   0.0000       0.030849         0.8394
 180   0.0000       0.070748         1.9251
 181   0.0000       0.092786         2.5248
 182   0.0000       0.097404         2.6505
 183   0.0000       0.132279         3.5995

MULLIKEN ATOMIC CHARGES
-----------------------
   0 C :    0.208082
   1 N :   -0.444094
   2 C :   -0.063550
   3 N :   -0.337040
   4 C :   -0.060721
   5 N :   -0.563399
   6 C :   -0.073608
   7 N :   -0.338187
   8 C :    0.205408
   9 N :   -0.563151
  10 C :    0.115068
  11 N :   -0.437558
  12 C :   -0.073864
  13 N :   -0.438259
  14 C :    0.244085
  15 N :   -0.440630
  16 C :    0.232473
  17 C :   -0.078949
  18 C :   -0.216020
  19 C :    0.241225
  20 C :    0.208642
  21 C :   -0.087391
  22 C :   -0.087698
  23 C :   -0.047348
  24 C :    0.203670
  25 C :    0.113981
  26 C :   -0.071917
  27 C :    0.221383
  28 C :   -0.053954
  29 C :   -0.184834
  30 C :    0.237202
  31 C :    0.213504
  32 C :   -0.065064
  33 C :   -0.078054
  34 C :   -0.050681
  35 C :    0.208305
  36 C :    0.113222
  37 C :   -0.066508
  38 C :    0.235708
  39 C :   -0.060463
  40 C :   -0.188565
  41 C :    0.222390
  42 C :    0.202680
  43 C :   -0.073212
  44 C :   -0.088796
  45 C :   -0.053701
  46 C :    0.204722
  47 C :    0.115489
  48 C :   -0.072965
  49 C :    0.228170
  50 C :   -0.052059
  51 C :   -0.189000
  52 H :    0.051536
  53 H :   -0.014274
  54 H :    0.050180
  55 H :    0.051204
  56 H :    0.057770
  57 H :    0.055534
  58 H :    0.054342
  59 H :   -0.009882
  60 H :    0.046051
  61 H :    0.172714
  62 H :    0.173083
  63 H :    0.056315
  64 H :   -0.016841
  65 H :    0.047272
  66 H :    0.057388
  67 H :    0.062582
  68 H :    0.058063
  69 H :    0.058432
  70 H :   -0.025078
  71 H :    0.047199
  72 H :    0.058582
  73 H :   -0.013358
  74 H :    0.048657
  75 H :    0.057713
  76 H :    0.063843
  77 H :    0.059576
  78 H :    0.058844
  79 H :   -0.014471
  80 H :    0.049189
  81 H :    0.053650
  82 H :   -0.023458
  83 H :    0.043253
  84 H :    0.053615
  85 H :    0.059529
  86 H :    0.056367
  87 H :    0.056779
  88 H :   -0.020498
  89 H :    0.044426
Sum of atomic charges:   -0.0000000

LOEWDIN ATOMIC CHARGES
----------------------
   0 C :   -0.007470
   1 N :    0.133399
   2 C :   -0.100457
   3 N :    0.179624
   4 C :    0.027824
   5 N :   -0.137767
   6 C :   -0.025183
   7 N :    0.177431
   8 C :   -0.008202
   9 N :   -0.139475
  10 C :    0.027667
  11 N :    0.144210
  12 C :   -0.103808
  13 N :    0.145426
  14 C :   -0.041309
  15 N :    0.138895
  16 C :   -0.048656
  17 C :   -0.029029
  18 C :   -0.107417
  19 C :   -0.085670
  20 C :    0.000997
  21 C :   -0.107937
  22 C :    0.041648
  23 C :   -0.019174
  24 C :   -0.003096
  25 C :    0.030312
  26 C :   -0.102879
  27 C :   -0.097983
  28 C :   -0.022253
  29 C :   -0.106860
  30 C :   -0.042938
  31 C :    0.004577
  32 C :   -0.099177
  33 C :    0.046766
  34 C :   -0.019350
  35 C :    0.000169
  36 C :    0.030523
  37 C :   -0.100248
  38 C :   -0.043932
  39 C :   -0.023839
  40 C :   -0.109045
  41 C :   -0.092213
  42 C :   -0.006032
  43 C :   -0.103506
  44 C :    0.034325
  45 C :   -0.023026
  46 C :   -0.004048
  47 C :    0.029385
  48 C :   -0.102295
  49 C :   -0.086484
  50 C :   -0.022714
  51 C :   -0.108027
  52 H :    0.028343
  53 H :    0.004200
  54 H :    0.044036
  55 H :    0.028551
  56 H :    0.025909
  57 H :    0.029913
  58 H :    0.030271
  59 H :    0.005024
  60 H :    0.042468
  61 H :    0.060584
  62 H :    0.060623
  63 H :    0.030964
  64 H :   -0.000144
  65 H :    0.045545
  66 H :    0.030367
  67 H :    0.028395
  68 H :    0.031999
  69 H :    0.031187
  70 H :   -0.002333
  71 H :    0.044922
  72 H :    0.031742
  73 H :    0.004536
  74 H :    0.045730
  75 H :    0.031125
  76 H :    0.029066
  77 H :    0.032224
  78 H :    0.031908
  79 H :    0.004048
  80 H :    0.045448
  81 H :    0.028971
  82 H :   -0.001889
  83 H :    0.043513
  84 H :    0.029376
  85 H :    0.026775
  86 H :    0.030499
  87 H :    0.031193
  88 H :   -0.000481
  89 H :    0.043717

  Mayer bond orders larger than 0.100000
B(  0-C ,  1-N ) :   1.1117 B(  0-C , 17-C ) :   1.6488 B(  0-C , 52-H ) :   0.9694
B(  1-N ,  8-C ) :   1.1075 B(  1-N , 10-C ) :   0.9653 B(  2-C , 12-C ) :   1.5310
B(  2-C , 16-C ) :   1.3302 B(  2-C , 53-H ) :   0.9774 B(  3-N , 14-C ) :   1.2062
B(  3-N , 16-C ) :   1.1949 B(  3-N , 61-H ) :   0.8983 B(  4-C ,  6-C ) :   1.2515
B(  4-C , 17-C ) :   1.2544 B(  4-C , 18-C ) :   1.3061 B(  5-N , 19-C ) :   1.4260
B(  5-N , 27-C ) :   1.3995 B(  6-C ,  8-C ) :   1.6516 B(  6-C , 54-H ) :   0.9697
B(  7-N , 30-C ) :   1.1944 B(  7-N , 38-C ) :   1.1996 B(  7-N , 62-H ) :   0.8982
B(  8-C , 55-H ) :   0.9696 B(  9-N , 41-C ) :   1.4070 B(  9-N , 49-C ) :   1.4158
B( 10-C , 56-H ) :   0.9764 B( 10-C , 57-H ) :   0.9818 B( 10-C , 58-H ) :   0.9837
B( 11-N , 20-C ) :   1.1258 B( 11-N , 24-C ) :   1.1202 B( 11-N , 25-C ) :   0.9585
B( 12-C , 14-C ) :   1.3311 B( 12-C , 59-H ) :   0.9760 B( 13-N , 31-C ) :   1.1291
B( 13-N , 35-C ) :   1.1237 B( 13-N , 36-C ) :   0.9570 B( 14-C , 18-C ) :   1.1809
B( 15-N , 42-C ) :   1.1150 B( 15-N , 46-C ) :   1.1161 B( 15-N , 47-C ) :   0.9619
B( 16-C , 51-C ) :   1.1939 B( 17-C , 60-H ) :   0.9706 B( 18-C , 19-C ) :   1.1974
B( 19-C , 21-C ) :   1.2153 B( 20-C , 28-C ) :   1.6240 B( 20-C , 63-H ) :   0.9703
B( 21-C , 26-C ) :   1.6389 B( 21-C , 64-H ) :   0.9709 B( 22-C , 23-C ) :   1.2848
B( 22-C , 28-C ) :   1.2728 B( 22-C , 29-C ) :   1.2278 B( 23-C , 24-C ) :   1.6185
B( 23-C , 65-H ) :   0.9708 B( 24-C , 66-H ) :   0.9692 B( 25-C , 67-H ) :   0.9761
B( 25-C , 68-H ) :   0.9829 B( 25-C , 69-H ) :   0.9821 B( 26-C , 27-C ) :   1.2145
B( 26-C , 70-H ) :   0.9730 B( 27-C , 29-C ) :   1.2295 B( 28-C , 71-H ) :   0.9715
B( 29-C , 30-C ) :   1.2139 B( 30-C , 32-C ) :   1.3095 B( 31-C , 39-C ) :   1.6243
B( 31-C , 72-H ) :   0.9694 B( 32-C , 37-C ) :   1.5487 B( 32-C , 73-H ) :   0.9779
B( 33-C , 34-C ) :   1.2796 B( 33-C , 39-C ) :   1.2736 B( 33-C , 40-C ) :   1.2388
B( 34-C , 35-C ) :   1.6214 B( 34-C , 74-H ) :   0.9704 B( 35-C , 75-H ) :   0.9694
B( 36-C , 76-H ) :   0.9764 B( 36-C , 77-H ) :   0.9820 B( 36-C , 78-H ) :   0.9830
B( 37-C , 38-C ) :   1.3114 B( 37-C , 79-H ) :   0.9776 B( 38-C , 40-C ) :   1.2100
B( 39-C , 80-H ) :   0.9713 B( 40-C , 41-C ) :   1.2240 B( 41-C , 43-C ) :   1.2082
B( 42-C , 50-C ) :   1.6328 B( 42-C , 81-H ) :   0.9696 B( 43-C , 48-C ) :   1.6436
B( 43-C , 82-H ) :   0.9735 B( 44-C , 45-C ) :   1.2704 B( 44-C , 50-C ) :   1.2681
B( 44-C , 51-C ) :   1.2545 B( 45-C , 46-C ) :   1.6322 B( 45-C , 83-H ) :   0.9713
B( 46-C , 84-H ) :   0.9702 B( 47-C , 85-H ) :   0.9761 B( 47-C , 86-H ) :   0.9828
B( 47-C , 87-H ) :   0.9826 B( 48-C , 49-C ) :   1.2085 B( 48-C , 88-H ) :   0.9740
B( 49-C , 51-C ) :   1.2251 B( 50-C , 89-H ) :   0.9713

MP2 TOTAL ENERGY:    -2130.913569466 Eh
FINAL SINGLE POINT ENERGY     -2130.913569466081

DIPOLE MOMENT
-------------
                                X             Y             Z
Electronic contribution:      0.30687      -1.22208      -0.13671
Nuclear contribution   :     -0.04759       0.15285       0.16999
                        -----------------------------------------
Total Dipole Moment    :      0.25928      -1.06923       0.03328
                        -----------------------------------------
Magnitude (a.u.)       :      1.10072
Magnitude (Debye)      :      2.79782

Rotational constants in cm-1:     0.001499     0.001474     0.000762
Rotational constants in MHz :    44.952609    44.197282    22.839101

                             ****ORCA TERMINATED NORMALLY****
TOTAL RUN TIME: 0 days 1 hours 10 minutes 18 seconds 562 msec
