                         Program Version 5.0.4 -  RELEASE  -
|  1> ! PAL2
|  2> ! mp2 cc-pvdz TightSCF  NoKeepInts
|  3>
|  4> %scf
|  5>   MaxCore 2000
|  6> end
|  7> %mp2
|  8>   MaxCore 2000
|  9> end
| 10> * xyz 0 1
| 11>    C       -4.22000         5.70700        -1.05000
| 12>    C        1.47400         4.04100         0.05700
| 13>    C       -2.80200         4.09300         0.04900
| 14>    C       -2.96200         4.83300         1.23100
| 15>    C       -3.74000         5.97300         1.23500
| 16>    C       -5.21200         7.60200         0.15100
| 17>    C        0.13200         4.30700         0.06100
| 18>    C       -0.56900         3.05600         0.04700
| 19>    C        1.64900         2.61800         0.02300
| 20>    C       -3.45700         4.55700        -1.10200
| 21>    N       -4.35300         6.39800         0.10500
| 22>    N        0.38800         2.06700         0.02500
| 23>    N       -2.01000         0.39500        -0.07500
| 24>    N       -0.38800        -2.07400        -0.02700
| 25>    N        2.01000        -0.40100         0.06500
| 26>    C       -1.96000         2.86100         0.02400
| 27>    C       -2.62300         1.61500        -0.01800
| 28>    C       -5.57300        -4.32900         1.06600
| 29>    C       -4.07300         1.47100         0.05600
| 30>    C       -4.10600        -2.75600        -0.02600
| 31>    C       -4.99500        -2.75700        -1.11100
| 32>    C       -6.13200        -3.54200        -1.07600
| 33>    C       -7.65100        -5.11300         0.04000
| 34>    C       -4.32400         0.14100         0.03700
| 35>    C       -3.02500        -0.52000        -0.04800
| 36>    C       -4.42200        -3.56600         1.07500
| 37>    N       -6.40700        -4.31300         0.00100
| 38>    C       -2.86700        -1.92200        -0.04000
| 39>    C       -1.65000        -2.62400        -0.02700
| 40>    C        3.56800        -6.14200        -1.04000
| 41>    C       -1.47600        -4.04900        -0.03400
| 42>    C        2.80300        -4.09900        -0.00800
| 43>    C        3.65700        -4.38400         1.06900
| 44>    C        4.42700        -5.53000         1.05900
| 45>    C        5.24500        -7.58800         0.01400
| 46>    C       -0.13400        -4.31500        -0.02200
| 47>    C        0.56800        -3.06400        -0.02700
| 48>    C        2.77500        -5.01200        -1.07400
| 49>    N        4.37600        -6.39100         0.01700
| 50>    C        1.95900        -2.86900        -0.00900
| 51>    C        2.62100        -1.62200         0.00900
| 52>    C        5.54300         4.33900        -1.13000
| 53>    C        4.07000        -1.47900        -0.09400
| 54>    C        4.10400         2.75100        -0.02100
| 55>    C        5.02700         2.72900         1.03600
| 56>    C        6.16600         3.50900         0.97800
| 57>    C        7.61900         5.15300        -0.11500
| 58>    C        4.32100        -0.14800        -0.09200
| 59>    C        3.02500         0.51400         0.01500
| 60>    C        4.38700         3.58200        -1.11500
| 61>    C        2.86600         1.91600         0.01300
| 62>    N        6.41300         4.29600        -0.09500
| 63>    H       -4.73300         6.10800        -1.91600
| 64>    H        2.27400         4.76600         0.08100
| 65>    H       -2.49000         4.52100         2.15400
| 66>    H       -3.90000         6.57100         2.12300
| 67>    H       -6.21700         7.31100         0.46300
| 68>    H       -4.78700         8.30800         0.86500
| 69>    H       -5.24300         8.04900        -0.84200
| 70>    H       -0.33200         5.28200         0.06900
| 71>    H       -3.36100         4.03700        -2.04900
| 72>    H        0.18200         1.07200         0.00500
| 73>    H       -0.18300        -1.08000        -0.02100
| 74>    H       -5.86400        -4.96200         1.89500
| 75>    H       -4.79400         2.27200         0.13900
| 76>    H       -4.80000        -2.16000        -1.99400
| 77>    H       -6.84100        -3.58200        -1.89300
| 78>    H       -8.42800        -4.53600         0.54600
| 79>    H       -7.95600        -5.33700        -0.98100
| 80>    H       -7.45600        -6.03700         0.58400
| 81>    H       -5.28700        -0.34400         0.10000
| 82>    H       -3.78000        -3.60100         1.94700
| 83>    H        3.58700        -6.86800        -1.84300
| 84>    H       -2.27600        -4.77400        -0.05000
| 85>    H        3.71400        -3.72400         1.92600
| 86>    H        5.09200        -5.79500         1.87100
| 87>    H        6.20500        -7.32900        -0.43900
| 88>    H        5.39300        -7.91700         1.04200
| 89>    H        4.75900        -8.37300        -0.56400
| 90>    H        0.32900        -5.29000        -0.00800
| 91>    H        2.14600        -4.84200        -1.94000
| 92>    H        5.80800         4.98600        -1.95600
| 93>    H        4.78800        -2.28100        -0.18500
| 94>    H        4.86000         2.11400         1.91200
| 95>    H        6.90100         3.53100         1.77200
| 96>    H        7.38300         6.10900         0.35600
| 97>    H        8.41400         4.65200         0.43500
| 98>    H        7.92100         5.31000        -1.15000
| 99>    H        5.28300         0.33600        -0.17900
|100>    H        3.72000         3.63200        -1.96700
|101> *
|102>
|103>                          ****END OF INPUT****

CARTESIAN COORDINATES (ANGSTROEM)
---------------------------------
  C     -4.220000    5.707000   -1.050000
  C      1.474000    4.041000    0.057000
  C     -2.802000    4.093000    0.049000
  C     -2.962000    4.833000    1.231000
  C     -3.740000    5.973000    1.235000
  C     -5.212000    7.602000    0.151000
  C      0.132000    4.307000    0.061000
  C     -0.569000    3.056000    0.047000
  C      1.649000    2.618000    0.023000
  C     -3.457000    4.557000   -1.102000
  N     -4.353000    6.398000    0.105000
  N      0.388000    2.067000    0.025000
  N     -2.010000    0.395000   -0.075000
  N     -0.388000   -2.074000   -0.027000
  N      2.010000   -0.401000    0.065000
  C     -1.960000    2.861000    0.024000
  C     -2.623000    1.615000   -0.018000
  C     -5.573000   -4.329000    1.066000
  C     -4.073000    1.471000    0.056000
  C     -4.106000   -2.756000   -0.026000
  C     -4.995000   -2.757000   -1.111000
  C     -6.132000   -3.542000   -1.076000
  C     -7.651000   -5.113000    0.040000
  C     -4.324000    0.141000    0.037000
  C     -3.025000   -0.520000   -0.048000
  C     -4.422000   -3.566000    1.075000
  N     -6.407000   -4.313000    0.001000
  C     -2.867000   -1.922000   -0.040000
  C     -1.650000   -2.624000   -0.027000
  C      3.568000   -6.142000   -1.040000
  C     -1.476000   -4.049000   -0.034000
  C      2.803000   -4.099000   -0.008000
  C      3.657000   -4.384000    1.069000
  C      4.427000   -5.530000    1.059000
  C      5.245000   -7.588000    0.014000
  C     -0.134000   -4.315000   -0.022000
  C      0.568000   -3.064000   -0.027000
  C      2.775000   -5.012000   -1.074000
  N      4.376000   -6.391000    0.017000
  C      1.959000   -2.869000   -0.009000
  C      2.621000   -1.622000    0.009000
  C      5.543000    4.339000   -1.130000
  C      4.070000   -1.479000   -0.094000
  C      4.104000    2.751000   -0.021000
  C      5.027000    2.729000    1.036000
  C      6.166000    3.509000    0.978000
  C      7.619000    5.153000   -0.115000
  C      4.321000   -0.148000   -0.092000
  C      3.025000    0.514000    0.015000
  C      4.387000    3.582000   -1.115000
  C      2.866000    1.916000    0.013000
  N      6.413000    4.296000   -0.095000
  H     -4.733000    6.108000   -1.916000
  H      2.274000    4.766000    0.081000
  H     -2.490000    4.521000    2.154000
  H     -3.900000    6.571000    2.123000
  H     -6.217000    7.311000    0.463000
  H     -4.787000    8.308000    0.865000
  H     -5.243000    8.049000   -0.842000
  H     -0.332000    5.282000    0.069000
  H     -3.361000    4.037000   -2.049000
  H      0.182000    1.072000    0.005000
  H     -0.183000   -1.080000   -0.021000
  H     -5.864000   -4.962000    1.895000
  H     -4.794000    2.272000    0.139000
  H     -4.800000   -2.160000   -1.994000
  H     -6.841000   -3.582000   -1.893000
  H     -8.428000   -4.536000    0.546000
  H     -7.956000   -5.337000   -0.981000
  H     -7.456000   -6.037000    0.584000
  H     -5.287000   -0.344000    0.100000
  H     -3.780000   -3.601000    1.947000
  H      3.587000   -6.868000   -1.843000
  H     -2.276000   -4.774000   -0.050000
  H      3.714000   -3.724000    1.926000
  H      5.092000   -5.795000    1.871000
  H      6.205000   -7.329000   -0.439000
  H      5.393000   -7.917000    1.042000
  H      4.759000   -8.373000   -0.564000
  H      0.329000   -5.290000   -0.008000
  H      2.146000   -4.842000   -1.940000
  H      5.808000    4.986000   -1.956000
  H      4.788000   -2.281000   -0.185000
  H      4.860000    2.114000    1.912000
  H      6.901000    3.531000    1.772000
  H      7.383000    6.109000    0.356000
  H      8.414000    4.652000    0.435000
  H      7.921000    5.310000   -1.150000
  H      5.283000    0.336000   -0.179000
  H      3.720000    3.632000   -1.967000

 Total Charge           Charge          ....    0
 Multiplicity           Mult            ....    1
 Number of Electrons    NEL             ....  358
 Basis Dimension        Dim             ....  918

ORBITAL ENERGIES
----------------

  NO   OCC          E(Eh)            E(eV)
   0   2.0000     -15.678785      -426.6414
   1   2.0000     -15.636536      -425.4918
   2   2.0000     -15.623623      -425.1404
   3   2.0000     -15.599481      -424.4835
   4   2.0000     -15.517748      -422.2594
   5   2.0000     -15.509985      -422.0482
   6   2.0000     -15.448294      -420.3695
   7   2.0000     -15.432953      -419.9520
   8   2.0000     -11.326345      -308.2055
   9   2.0000     -11.326209      -308.2018
  10   2.0000     -11.325037      -308.1699
  11   2.0000     -11.301048      -307.5171
  12   2.0000     -11.295207      -307.3582
  13   2.0000     -11.292648      -307.2886
  14   2.0000     -11.289114      -307.1924
  15   2.0000     -11.283768      -307.0469
  16   2.0000     -11.277895      -306.8871
  17   2.0000     -11.277718      -306.8823
  18   2.0000     -11.277370      -306.8728
  19   2.0000     -11.262592      -306.4707
  20   2.0000     -11.260822      -306.4225
  21   2.0000     -11.260659      -306.4181
  22   2.0000     -11.259074      -306.3750
  23   2.0000     -11.239921      -305.8538
  24   2.0000     -11.232300      -305.6464
  25   2.0000     -11.231469      -305.6238
  26   2.0000     -11.227799      -305.5240
  27   2.0000     -11.222373      -305.3763
  28   2.0000     -11.222206      -305.3717
  29   2.0000     -11.205982      -304.9303
  30   2.0000     -11.204959      -304.9024
  31   2.0000     -11.204142      -304.8802
  32   2.0000     -11.202858      -304.8453
  33   2.0000     -11.202704      -304.8411
  34   2.0000     -11.188041      -304.4421
  35   2.0000     -11.187933      -304.4391
  36   2.0000     -11.184667      -304.3503
  37   2.0000     -11.184345      -304.3415
  38   2.0000     -11.182450      -304.2899
  39   2.0000     -11.168493      -303.9102
  40   2.0000     -11.166745      -303.8626
  41   2.0000     -11.162240      -303.7400
  42   2.0000     -11.159051      -303.6532
  43   2.0000     -11.158248      -303.6314
  44   2.0000     -11.154232      -303.5221
  45   2.0000     -11.153774      -303.5096
  46   2.0000     -11.153653      -303.5063
  47   2.0000     -11.150234      -303.4133
  48   2.0000     -11.148649      -303.3702
  49   2.0000     -11.141969      -303.1884
  50   2.0000     -11.125524      -302.7409
  51   2.0000     -11.122408      -302.6561
  52   2.0000      -1.358127       -36.9565
  53   2.0000      -1.323451       -36.0129
  54   2.0000      -1.311940       -35.6997
  55   2.0000      -1.291587       -35.1459
  56   2.0000      -1.218813       -33.1656
  57   2.0000      -1.206837       -32.8397
  58   2.0000      -1.169320       -31.8188
  59   2.0000      -1.144767       -31.1507
  60   2.0000      -1.140037       -31.0220
  61   2.0000      -1.111487       -30.2451
  62   2.0000      -1.101267       -29.9670
  63   2.0000      -1.083283       -29.4776
  64   2.0000      -1.079435       -29.3729
  65   2.0000      -1.047373       -28.5005
  66   2.0000      -1.037070       -28.2201
  67   2.0000      -1.036527       -28.2053
  68   2.0000      -1.017715       -27.6934
  69   2.0000      -1.013807       -27.5871
  70   2.0000      -1.005456       -27.3599
  71   2.0000      -0.989143       -26.9160
  72   2.0000      -0.984460       -26.7885
  73   2.0000      -0.977048       -26.5868
  74   2.0000      -0.969669       -26.3860
  75   2.0000      -0.959660       -26.1137
  76   2.0000      -0.951208       -25.8837
  77   2.0000      -0.945326       -25.7236
  78   2.0000      -0.926998       -25.2249
  79   2.0000      -0.919015       -25.0077
  80   2.0000      -0.906119       -24.6567
  81   2.0000      -0.888742       -24.1839
  82   2.0000      -0.875055       -23.8114
  83   2.0000      -0.869511       -23.6606
  84   2.0000      -0.863719       -23.5030
  85   2.0000      -0.852351       -23.1936
  86   2.0000      -0.844320       -22.9751
  87   2.0000      -0.831918       -22.6376
  88   2.0000      -0.822364       -22.3777
  89   2.0000      -0.796226       -21.6664
  90   2.0000      -0.792504       -21.5651
  91   2.0000      -0.750407       -20.4196
  92   2.0000      -0.733775       -19.9670
  93   2.0000      -0.726866       -19.7790
  94   2.0000      -0.722102       -19.6494
  95   2.0000      -0.716109       -19.4863
  96   2.0000      -0.711859       -19.3707
  97   2.0000      -0.708004       -19.2658
  98   2.0000      -0.699981       -19.0474
  99   2.0000      -0.694601       -18.9011
 100   2.0000      -0.694063       -18.8864
 101   2.0000      -0.682892       -18.5824
 102   2.0000      -0.682024       -18.5588
 103   2.0000      -0.677971       -18.4485
 104   2.0000      -0.672505       -18.2998
 105   2.0000      -0.668510       -18.1911
 106   2.0000      -0.665972       -18.1220
 107   2.0000      -0.656369       -17.8607
 108   2.0000      -0.654354       -17.8059
 109   2.0000      -0.651406       -17.7257
 110   2.0000      -0.647869       -17.6294
 111   2.0000      -0.645864       -17.5749
 112   2.0000      -0.643598       -17.5132
 113   2.0000      -0.639343       -17.3974
 114   2.0000      -0.634148       -17.2560
 115   2.0000      -0.629045       -17.1172
 116   2.0000      -0.622517       -16.9395
 117   2.0000      -0.616297       -16.7703
 118   2.0000      -0.614003       -16.7079
 119   2.0000      -0.610525       -16.6132
 120   2.0000      -0.608174       -16.5493
 121   2.0000      -0.604420       -16.4471
 122   2.0000      -0.594981       -16.1902
 123   2.0000      -0.589081       -16.0297
 124   2.0000      -0.586785       -15.9672
 125   2.0000      -0.582954       -15.8630
 126   2.0000      -0.575472       -15.6594
 127   2.0000      -0.573255       -15.5991
 128   2.0000      -0.568687       -15.4748
 129   2.0000      -0.559909       -15.2359
 130   2.0000      -0.556781       -15.1508
 131   2.0000      -0.547058       -14.8862
 132   2.0000      -0.543570       -14.7913
 133   2.0000      -0.539036       -14.6679
 134   2.0000      -0.534532       -14.5453
 135   2.0000      -0.531339       -14.4585
 136   2.0000      -0.521192       -14.1824
 137   2.0000      -0.519072       -14.1247
 138   2.0000      -0.514985       -14.0134
 139   2.0000      -0.512123       -13.9356
 140   2.0000      -0.510108       -13.8807
 141   2.0000      -0.508243       -13.8300
 142   2.0000      -0.501931       -13.6582
 143   2.0000      -0.500050       -13.6071
 144   2.0000      -0.495778       -13.4908
 145   2.0000      -0.495057       -13.4712
 146   2.0000      -0.493445       -13.4273
 147   2.0000      -0.484970       -13.1967
 148   2.0000      -0.482137       -13.1196
 149   2.0000      -0.464331       -12.6351
 150   2.0000      -0.462635       -12.5889
 151   2.0000      -0.455949       -12.4070
 152   2.0000      -0.449730       -12.2378
 153   2.0000      -0.442181       -12.0324
 154   2.0000      -0.439057       -11.9474
 155   2.0000      -0.437573       -11.9070
 156   2.0000      -0.427250       -11.6261
 157   2.0000      -0.420155       -11.4330
 158   2.0000      -0.400226       -10.8907
 159   2.0000      -0.385430       -10.4881
 160   2.0000      -0.384259       -10.4562
 161   2.0000      -0.372314       -10.1312
 162   2.0000      -0.360891        -9.8204
 163   2.0000      -0.358119        -9.7449
 164   2.0000      -0.348886        -9.4937
 165   2.0000      -0.339099        -9.2274
 166   2.0000      -0.337129        -9.1737
 167   2.0000      -0.332795        -9.0558
 168   2.0000      -0.318605        -8.6697
 169   2.0000      -0.299431        -8.1479
 170   2.0000      -0.297637        -8.0991
 171   2.0000      -0.285233        -7.7616
 172   2.0000      -0.282741        -7.6938
 173   2.0000      -0.261524        -7.1164
 174   2.0000      -0.236923        -6.4470
 175   2.0000      -0.185141        -5.0379
 176   2.0000      -0.174902        -4.7593
 177   2.0000      -0.062386        -1.6976
 178   2.0000      -0.051843        -1.4107
 179   0.0000       0.033730         0.9178
 180   0.0000       0.063171         1.7190
 181   0.0000       0.091320         2.4849
 182   0.0000       0.096821         2.6346
 183   0.0000       0.109537         2.9807

MULLIKEN ATOMIC CHARGES
-----------------------
   0 C :    0.222973
   1 N :   -0.425865
   2 C :   -0.067545
   3 N :   -0.341835
   4 C :   -0.082895
   5 N :   -0.564251
   6 C :   -0.031366
   7 N :   -0.337293
   8 C :    0.219711
   9 N :   -0.564953
  10 C :    0.108402
  11 N :   -0.438191
  12 C :   -0.060127
  13 N :   -0.447268
  14 C :    0.223894
  15 N :   -0.441089
  16 C :    0.249504
  17 C :   -0.038172
  18 C :   -0.179612
  19 C :    0.226282
  20 C :    0.196740
  21 C :   -0.066859
  22 C :   -0.087067
  23 C :   -0.060803
  24 C :    0.215471
  25 C :    0.114065
  26 C :   -0.070134
  27 C :    0.238873
  28 C :   -0.043526
  29 C :   -0.192506
  30 C :    0.225758
  31 C :    0.195806
  32 C :   -0.065049
  33 C :   -0.095840
  34 C :   -0.049866
  35 C :    0.186493
  36 C :    0.118719
  37 C :   -0.068998
  38 C :    0.242472
  39 C :   -0.064429
  40 C :   -0.198684
  41 C :    0.216891
  42 C :    0.209409
  43 C :   -0.076059
  44 C :   -0.089908
  45 C :   -0.043320
  46 C :    0.191691
  47 C :    0.116211
  48 C :   -0.080531
  49 C :    0.213977
  50 C :   -0.061804
  51 C :   -0.190245
  52 H :    0.071305
  53 H :   -0.010195
  54 H :    0.057924
  55 H :    0.070016
  56 H :    0.074566
  57 H :    0.068471
  58 H :    0.067061
  59 H :   -0.023704
  60 H :    0.056952
  61 H :    0.175362
  62 H :    0.169804
  63 H :    0.055295
  64 H :   -0.030162
  65 H :    0.043691
  66 H :    0.056967
  67 H :    0.060920
  68 H :    0.057388
  69 H :    0.059677
  70 H :   -0.018214
  71 H :    0.048314
  72 H :    0.043813
  73 H :   -0.018017
  74 H :    0.035224
  75 H :    0.042575
  76 H :    0.051457
  77 H :    0.050069
  78 H :    0.049246
  79 H :   -0.012097
  80 H :    0.035066
  81 H :    0.051830
  82 H :   -0.023455
  83 H :    0.043081
  84 H :    0.050909
  85 H :    0.056182
  86 H :    0.056508
  87 H :    0.055458
  88 H :   -0.028202
  89 H :    0.041662
Sum of atomic charges:    0.0000000

LOEWDIN ATOMIC CHARGES
----------------------
   0 C :    0.022130
   1 N :    0.169404
   2 C :   -0.100657
   3 N :    0.173336
   4 C :    0.082372
   5 N :   -0.144079
   6 C :   -0.012028
   7 N :    0.177468
   8 C :    0.019989
   9 N :   -0.138479
  10 C :    0.035557
  11 N :    0.143101
  12 C :   -0.097683
  13 N :    0.122904
  14 C :   -0.057218
  15 N :    0.136585
  16 C :   -0.027015
  17 C :   -0.015682
  18 C :   -0.115188
  19 C :   -0.089348
  20 C :   -0.009796
  21 C :   -0.100126
  22 C :    0.040726
  23 C :   -0.028764
  24 C :    0.006908
  25 C :    0.030097
  26 C :   -0.097798
  27 C :   -0.069179
  28 C :   -0.016192
  29 C :   -0.114093
  30 C :   -0.059213
  31 C :   -0.016978
  32 C :   -0.100131
  33 C :    0.009184
  34 C :   -0.024119
  35 C :   -0.025197
  36 C :    0.025299
  37 C :   -0.106620
  38 C :   -0.032530
  39 C :   -0.031614
  40 C :   -0.111612
  41 C :   -0.094931
  42 C :   -0.000883
  43 C :   -0.111081
  44 C :    0.031331
  45 C :   -0.016995
  46 C :   -0.016296
  47 C :    0.028675
  48 C :   -0.112642
  49 C :   -0.107923
  50 C :   -0.029373
  51 C :   -0.109430
  52 H :    0.037104
  53 H :    0.006157
  54 H :    0.051206
  55 H :    0.036988
  56 H :    0.034490
  57 H :    0.036109
  58 H :    0.036136
  59 H :    0.001193
  60 H :    0.050817
  61 H :    0.061757
  62 H :    0.058817
  63 H :    0.030079
  64 H :   -0.003518
  65 H :    0.043341
  66 H :    0.030682
  67 H :    0.027668
  68 H :    0.031676
  69 H :    0.031656
  70 H :    0.000830
  71 H :    0.045971
  72 H :    0.024939
  73 H :    0.002347
  74 H :    0.040174
  75 H :    0.023992
  76 H :    0.022696
  77 H :    0.027775
  78 H :    0.027435
  79 H :    0.005327
  80 H :    0.039319
  81 H :    0.028479
  82 H :   -0.001653
  83 H :    0.044030
  84 H :    0.027723
  85 H :    0.025206
  86 H :    0.030461
  87 H :    0.030559
  88 H :   -0.004155
  89 H :    0.042011

  Mayer bond orders larger than 0.100000
B(  0-C ,  1-N ) :   1.1656 B(  0-C , 17-C ) :   1.5667 B(  0-C , 52-H ) :   0.9679
B(  1-N ,  8-C ) :   1.1589 B(  1-N , 10-C ) :   0.9414 B(  2-C , 12-C ) :   1.5608
B(  2-C , 16-C ) :   1.2934 B(  2-C , 53-H ) :   0.9788 B(  3-N , 14-C ) :   1.1838
B(  3-N , 16-C ) :   1.2013 B(  3-N , 61-H ) :   0.8967 B(  4-C ,  6-C ) :   1.3185
B(  4-C , 17-C ) :   1.3230 B(  4-C , 18-C ) :   1.1316 B(  5-N , 19-C ) :   1.3837
B(  5-N , 27-C ) :   1.4339 B(  6-C ,  8-C ) :   1.5717 B(  6-C , 54-H ) :   0.9712
B(  7-N , 30-C ) :   1.1866 B(  7-N , 38-C ) :   1.2111 B(  7-N , 62-H ) :   0.9001
B(  8-C , 55-H ) :   0.9690 B(  9-N , 41-C ) :   1.4236 B(  9-N , 49-C ) :   1.4033
B( 10-C , 56-H ) :   0.9764 B( 10-C , 57-H ) :   0.9815 B( 10-C , 58-H ) :   0.9822
B( 11-N , 20-C ) :   1.1103 B( 11-N , 24-C ) :   1.1341 B( 11-N , 25-C ) :   0.9591
B( 12-C , 14-C ) :   1.2943 B( 12-C , 59-H ) :   0.9778 B( 13-N , 31-C ) :   1.0973
B( 13-N , 35-C ) :   1.0871 B( 13-N , 36-C ) :   0.9742 B( 14-C , 18-C ) :   1.2398
B( 15-N , 42-C ) :   1.1231 B( 15-N , 46-C ) :   1.1002 B( 15-N , 47-C ) :   0.9644
B( 16-C , 51-C ) :   1.2281 B( 17-C , 60-H ) :   0.9712 B( 18-C , 19-C ) :   1.2756
B( 19-C , 21-C ) :   1.1835 B( 20-C , 28-C ) :   1.6233 B( 20-C , 63-H ) :   0.9705
B( 21-C , 26-C ) :   1.6647 B( 21-C , 64-H ) :   0.9732 B( 22-C , 23-C ) :   1.2684
B( 22-C , 28-C ) :   1.2810 B( 22-C , 29-C ) :   1.2431 B( 23-C , 24-C ) :   1.6252
B( 23-C , 65-H ) :   0.9717 B( 24-C , 66-H ) :   0.9689 B( 25-C , 67-H ) :   0.9763
B( 25-C , 68-H ) :   0.9832 B( 25-C , 69-H ) :   0.9819 B( 26-C , 27-C ) :   1.1872
B( 26-C , 70-H ) :   0.9747 B( 27-C , 29-C ) :   1.2350 B( 28-C , 71-H ) :   0.9710
B( 29-C , 30-C ) :   1.1919 B( 30-C , 32-C ) :   1.3343 B( 31-C , 39-C ) :   1.6646
B( 31-C , 72-H ) :   0.9705 B( 32-C , 37-C ) :   1.5246 B( 32-C , 73-H ) :   0.9773
B( 33-C , 34-C ) :   1.2486 B( 33-C , 39-C ) :   1.2403 B( 33-C , 40-C ) :   1.3156
B( 34-C , 35-C ) :   1.6624 B( 34-C , 74-H ) :   0.9708 B( 35-C , 75-H ) :   0.9705
B( 36-C , 76-H ) :   0.9758 B( 36-C , 77-H ) :   0.9824 B( 36-C , 78-H ) :   0.9836
B( 37-C , 38-C ) :   1.3315 B( 37-C , 79-H ) :   0.9788 B( 38-C , 40-C ) :   1.1910
B( 39-C , 80-H ) :   0.9720 B( 40-C , 41-C ) :   1.1861 B( 41-C , 43-C ) :   1.2424
B( 42-C , 50-C ) :   1.6379 B( 42-C , 81-H ) :   0.9696 B( 43-C , 48-C ) :   1.6087
B( 43-C , 82-H ) :   0.9749 B( 44-C , 45-C ) :   1.2775 B( 44-C , 50-C ) :   1.2569
B( 44-C , 51-C ) :   1.2520 B( 45-C , 46-C ) :   1.6320 B( 45-C , 83-H ) :   0.9706
B( 46-C , 84-H ) :   0.9706 B( 47-C , 85-H ) :   0.9761 B( 47-C , 86-H ) :   0.9827
B( 47-C , 87-H ) :   0.9828 B( 48-C , 49-C ) :   1.2384 B( 48-C , 88-H ) :   0.9730
B( 49-C , 51-C ) :   1.1986 B( 50-C , 89-H ) :   0.9718

MP2 TOTAL ENERGY:    -2130.895264039 Eh
FINAL SINGLE POINT ENERGY     -2130.895264038744

DIPOLE MOMENT
-------------
                                X             Y             Z
Electronic contribution:     -2.94753       2.80916      -0.17670
Nuclear contribution   :     -0.01460       0.17547       0.21925
                        -----------------------------------------
Total Dipole Moment    :     -2.96213       2.98463       0.04256
                        -----------------------------------------
Magnitude (a.u.)       :      4.20524
Magnitude (Debye)      :     10.68887

Rotational constants in cm-1:     0.001498     0.001473     0.000763
Rotational constants in MHz :    44.900588    44.155826    22.864168

                             ****ORCA TERMINATED NORMALLY****
TOTAL RUN TIME: 0 days 1 hours 29 minutes 2 seconds 508 msec
