                         Program Version 5.0.4 -  RELEASE  -
|  1> ! PAL2
|  2> ! mp2 cc-pvdz TightSCF  NoKeepInts
|  3>
|  4> %scf
|  5>   MaxCore 2000
|  6> end
|  7> %mp2
|  8>   MaxCore 2000
|  9> end
| 10> * xyz 0 1
| 11>    C       -3.37800         6.24100         0.98600
| 12>    C        1.47400         4.04100         0.05700
| 13>    C       -2.80200         4.09300         0.04900
| 14>    C       -3.85700         4.26400        -0.86100
| 15>    C       -4.62900         5.40800        -0.82000
| 16>    C       -5.20900         7.60500         0.08800
| 17>    C        0.13200         4.30700         0.06100
| 18>    C       -0.56900         3.05600         0.04700
| 19>    C        1.64900         2.61800         0.02300
| 20>    C       -2.57500         5.11800         0.98100
| 21>    N       -4.38800         6.37500         0.09600
| 22>    N        0.38800         2.06700         0.02500
| 23>    N       -2.01000         0.39500        -0.07500
| 24>    N       -0.38800        -2.07400        -0.02700
| 25>    N        2.01000        -0.40100         0.06500
| 26>    C       -1.96000         2.86100         0.02400
| 27>    C       -2.62300         1.61500        -0.01800
| 28>    C       -5.57300        -4.32900         1.06600
| 29>    C       -4.07300         1.47100         0.05600
| 30>    C       -4.10600        -2.75600        -0.02600
| 31>    C       -4.99500        -2.75700        -1.11100
| 32>    C       -6.13200        -3.54200        -1.07600
| 33>    C       -7.65100        -5.11300         0.04000
| 34>    C       -4.32400         0.14100         0.03700
| 35>    C       -3.02500        -0.52000        -0.04800
| 36>    C       -4.42200        -3.56600         1.07500
| 37>    N       -6.40700        -4.31300         0.00100
| 38>    C       -2.86700        -1.92200        -0.04000
| 39>    C       -1.65000        -2.62400        -0.02700
| 40>    C        3.56800        -6.14200        -1.04000
| 41>    C       -1.47600        -4.04900        -0.03400
| 42>    C        2.80300        -4.09900        -0.00800
| 43>    C        3.65700        -4.38400         1.06900
| 44>    C        4.42700        -5.53000         1.05900
| 45>    C        5.24500        -7.58800         0.01400
| 46>    C       -0.13400        -4.31500        -0.02200
| 47>    C        0.56800        -3.06400        -0.02700
| 48>    C        2.77500        -5.01200        -1.07400
| 49>    N        4.37600        -6.39100         0.01700
| 50>    C        1.95900        -2.86900        -0.00900
| 51>    C        2.62100        -1.62200         0.00900
| 52>    C        5.54300         4.33900        -1.13000
| 53>    C        4.07000        -1.47900        -0.09400
| 54>    C        4.10400         2.75100        -0.02100
| 55>    C        5.02700         2.72900         1.03600
| 56>    C        6.16600         3.50900         0.97800
| 57>    C        7.61900         5.15300        -0.11500
| 58>    C        4.32100        -0.14800        -0.09200
| 59>    C        3.02500         0.51400         0.01500
| 60>    C        4.38700         3.58200        -1.11500
| 61>    C        2.86600         1.91600         0.01300
| 62>    N        6.41300         4.29600        -0.09500
| 63>    H       -3.24700         7.05000         1.69400
| 64>    H        2.27400         4.76600         0.08100
| 65>    H       -4.07600         3.51300        -1.61000
| 66>    H       -5.44700         5.58800        -1.50600
| 67>    H       -4.77900         8.31600        -0.62100
| 68>    H       -6.22500         7.34700        -0.20800
| 69>    H       -5.21000         8.03200         1.09100
| 70>    H       -0.33200         5.28200         0.06900
| 71>    H       -1.78400         5.03800         1.71800
| 72>    H        0.18200         1.07200         0.00500
| 73>    H       -0.18300        -1.08000        -0.02100
| 74>    H       -5.86400        -4.96200         1.89500
| 75>    H       -4.79400         2.27200         0.13900
| 76>    H       -4.80000        -2.16000        -1.99400
| 77>    H       -6.84100        -3.58200        -1.89300
| 78>    H       -8.42800        -4.53600         0.54600
| 79>    H       -7.95600        -5.33700        -0.98100
| 80>    H       -7.45600        -6.03700         0.58400
| 81>    H       -5.28700        -0.34400         0.10000
| 82>    H       -3.78000        -3.60100         1.94700
| 83>    H        3.58700        -6.86800        -1.84300
| 84>    H       -2.27600        -4.77400        -0.05000
| 85>    H        3.71400        -3.72400         1.92600
| 86>    H        5.09200        -5.79500         1.87100
| 87>    H        6.20500        -7.32900        -0.43900
| 88>    H        5.39300        -7.91700         1.04200
| 89>    H        4.75900        -8.37300        -0.56400
| 90>    H        0.32900        -5.29000        -0.00800
| 91>    H        2.14600        -4.84200        -1.94000
| 92>    H        5.80800         4.98600        -1.95600
| 93>    H        4.78800        -2.28100        -0.18500
| 94>    H        4.86000         2.11400         1.91200
| 95>    H        6.90100         3.53100         1.77200
| 96>    H        7.38300         6.10900         0.35600
| 97>    H        8.41400         4.65200         0.43500
| 98>    H        7.92100         5.31000        -1.15000
| 99>    H        5.28300         0.33600        -0.17900
|100>    H        3.72000         3.63200        -1.96700
|101> *
|102>
|103>                          ****END OF INPUT****

CARTESIAN COORDINATES (ANGSTROEM)
---------------------------------
  C     -3.378000    6.241000    0.986000
  C      1.474000    4.041000    0.057000
  C     -2.802000    4.093000    0.049000
  C     -3.857000    4.264000   -0.861000
  C     -4.629000    5.408000   -0.820000
  C     -5.209000    7.605000    0.088000
  C      0.132000    4.307000    0.061000
  C     -0.569000    3.056000    0.047000
  C      1.649000    2.618000    0.023000
  C     -2.575000    5.118000    0.981000
  N     -4.388000    6.375000    0.096000
  N      0.388000    2.067000    0.025000
  N     -2.010000    0.395000   -0.075000
  N     -0.388000   -2.074000   -0.027000
  N      2.010000   -0.401000    0.065000
  C     -1.960000    2.861000    0.024000
  C     -2.623000    1.615000   -0.018000
  C     -5.573000   -4.329000    1.066000
  C     -4.073000    1.471000    0.056000
  C     -4.106000   -2.756000   -0.026000
  C     -4.995000   -2.757000   -1.111000
  C     -6.132000   -3.542000   -1.076000
  C     -7.651000   -5.113000    0.040000
  C     -4.324000    0.141000    0.037000
  C     -3.025000   -0.520000   -0.048000
  C     -4.422000   -3.566000    1.075000
  N     -6.407000   -4.313000    0.001000
  C     -2.867000   -1.922000   -0.040000
  C     -1.650000   -2.624000   -0.027000
  C      3.568000   -6.142000   -1.040000
  C     -1.476000   -4.049000   -0.034000
  C      2.803000   -4.099000   -0.008000
  C      3.657000   -4.384000    1.069000
  C      4.427000   -5.530000    1.059000
  C      5.245000   -7.588000    0.014000
  C     -0.134000   -4.315000   -0.022000
  C      0.568000   -3.064000   -0.027000
  C      2.775000   -5.012000   -1.074000
  N      4.376000   -6.391000    0.017000
  C      1.959000   -2.869000   -0.009000
  C      2.621000   -1.622000    0.009000
  C      5.543000    4.339000   -1.130000
  C      4.070000   -1.479000   -0.094000
  C      4.104000    2.751000   -0.021000
  C      5.027000    2.729000    1.036000
  C      6.166000    3.509000    0.978000
  C      7.619000    5.153000   -0.115000
  C      4.321000   -0.148000   -0.092000
  C      3.025000    0.514000    0.015000
  C      4.387000    3.582000   -1.115000
  C      2.866000    1.916000    0.013000
  N      6.413000    4.296000   -0.095000
  H     -3.247000    7.050000    1.694000
  H      2.274000    4.766000    0.081000
  H     -4.076000    3.513000   -1.610000
  H     -5.447000    5.588000   -1.506000
  H     -4.779000    8.316000   -0.621000
  H     -6.225000    7.347000   -0.208000
  H     -5.210000    8.032000    1.091000
  H     -0.332000    5.282000    0.069000
  H     -1.784000    5.038000    1.718000
  H      0.182000    1.072000    0.005000
  H     -0.183000   -1.080000   -0.021000
  H     -5.864000   -4.962000    1.895000
  H     -4.794000    2.272000    0.139000
  H     -4.800000   -2.160000   -1.994000
  H     -6.841000   -3.582000   -1.893000
  H     -8.428000   -4.536000    0.546000
  H     -7.956000   -5.337000   -0.981000
  H     -7.456000   -6.037000    0.584000
  H     -5.287000   -0.344000    0.100000
  H     -3.780000   -3.601000    1.947000
  H      3.587000   -6.868000   -1.843000
  H     -2.276000   -4.774000   -0.050000
  H      3.714000   -3.724000    1.926000
  H      5.092000   -5.795000    1.871000
  H      6.205000   -7.329000   -0.439000
  H      5.393000   -7.917000    1.042000
  H      4.759000   -8.373000   -0.564000
  H      0.329000   -5.290000   -0.008000
  H      2.146000   -4.842000   -1.940000
  H      5.808000    4.986000   -1.956000
  H      4.788000   -2.281000   -0.185000
  H      4.860000    2.114000    1.912000
  H      6.901000    3.531000    1.772000
  H      7.383000    6.109000    0.356000
  H      8.414000    4.652000    0.435000
  H      7.921000    5.310000   -1.150000
  H      5.283000    0.336000   -0.179000
  H      3.720000    3.632000   -1.967000

 Total Charge           Charge          ....    0
 Multiplicity           Mult            ....    1
 Number of Electrons    NEL             ....  358
 Basis Dimension        Dim             ....  918

ORBITAL ENERGIES
----------------

  NO   OCC          E(Eh)            E(eV)
   0   2.0000     -15.655690      -426.0130
   1   2.0000     -15.639065      -425.5606
   2   2.0000     -15.628648      -425.2771
   3   2.0000     -15.605729      -424.6535
   4   2.0000     -15.522216      -422.3810
   5   2.0000     -15.515639      -422.2020
   6   2.0000     -15.447831      -420.3568
   7   2.0000     -15.443752      -420.2458
   8   2.0000     -11.313000      -307.8424
   9   2.0000     -11.309851      -307.7567
  10   2.0000     -11.307382      -307.6895
  11   2.0000     -11.302437      -307.5549
  12   2.0000     -11.296111      -307.3828
  13   2.0000     -11.295766      -307.3734
  14   2.0000     -11.292537      -307.2855
  15   2.0000     -11.286972      -307.1341
  16   2.0000     -11.284706      -307.0725
  17   2.0000     -11.282607      -307.0154
  18   2.0000     -11.269098      -306.6478
  19   2.0000     -11.267422      -306.6021
  20   2.0000     -11.259302      -306.3812
  21   2.0000     -11.246306      -306.0275
  22   2.0000     -11.245403      -306.0030
  23   2.0000     -11.242540      -305.9251
  24   2.0000     -11.234665      -305.7108
  25   2.0000     -11.234083      -305.6949
  26   2.0000     -11.233208      -305.6711
  27   2.0000     -11.226929      -305.5003
  28   2.0000     -11.226734      -305.4950
  29   2.0000     -11.214935      -305.1739
  30   2.0000     -11.209843      -305.0353
  31   2.0000     -11.209558      -305.0276
  32   2.0000     -11.205719      -304.9231
  33   2.0000     -11.204779      -304.8975
  34   2.0000     -11.191488      -304.5359
  35   2.0000     -11.191156      -304.5268
  36   2.0000     -11.180272      -304.2307
  37   2.0000     -11.177601      -304.1580
  38   2.0000     -11.177205      -304.1472
  39   2.0000     -11.173690      -304.0516
  40   2.0000     -11.167507      -303.8833
  41   2.0000     -11.166420      -303.8537
  42   2.0000     -11.166222      -303.8483
  43   2.0000     -11.165411      -303.8263
  44   2.0000     -11.164116      -303.7910
  45   2.0000     -11.162725      -303.7532
  46   2.0000     -11.150177      -303.4117
  47   2.0000     -11.150123      -303.4103
  48   2.0000     -11.146786      -303.3195
  49   2.0000     -11.146721      -303.3177
  50   2.0000     -11.138312      -303.0889
  51   2.0000     -11.133813      -302.9665
  52   2.0000      -1.339832       -36.4587
  53   2.0000      -1.325570       -36.0706
  54   2.0000      -1.316670       -35.8284
  55   2.0000      -1.297982       -35.3199
  56   2.0000      -1.221885       -33.2492
  57   2.0000      -1.211252       -32.9598
  58   2.0000      -1.165171       -31.7059
  59   2.0000      -1.155860       -31.4525
  60   2.0000      -1.126218       -30.6460
  61   2.0000      -1.113694       -30.3052
  62   2.0000      -1.106086       -30.0981
  63   2.0000      -1.091185       -29.6927
  64   2.0000      -1.062955       -28.9245
  65   2.0000      -1.049481       -28.5578
  66   2.0000      -1.041343       -28.3364
  67   2.0000      -1.030728       -28.0475
  68   2.0000      -1.024673       -27.8828
  69   2.0000      -1.012790       -27.5594
  70   2.0000      -1.009376       -27.4665
  71   2.0000      -0.994173       -27.0528
  72   2.0000      -0.986229       -26.8367
  73   2.0000      -0.974480       -26.5169
  74   2.0000      -0.973095       -26.4792
  75   2.0000      -0.958773       -26.0896
  76   2.0000      -0.951154       -25.8822
  77   2.0000      -0.946589       -25.7580
  78   2.0000      -0.937843       -25.5200
  79   2.0000      -0.922359       -25.0987
  80   2.0000      -0.896405       -24.3924
  81   2.0000      -0.887048       -24.1378
  82   2.0000      -0.876332       -23.8462
  83   2.0000      -0.869181       -23.6516
  84   2.0000      -0.863041       -23.4845
  85   2.0000      -0.854774       -23.2596
  86   2.0000      -0.847557       -23.0632
  87   2.0000      -0.840216       -22.8634
  88   2.0000      -0.821887       -22.3647
  89   2.0000      -0.798785       -21.7360
  90   2.0000      -0.796150       -21.6644
  91   2.0000      -0.741779       -20.1848
  92   2.0000      -0.735000       -20.0004
  93   2.0000      -0.730905       -19.8889
  94   2.0000      -0.722544       -19.6614
  95   2.0000      -0.719475       -19.5779
  96   2.0000      -0.712946       -19.4002
  97   2.0000      -0.705370       -19.1941
  98   2.0000      -0.700676       -19.0664
  99   2.0000      -0.695377       -18.9222
 100   2.0000      -0.690906       -18.8005
 101   2.0000      -0.681422       -18.5424
 102   2.0000      -0.678767       -18.4702
 103   2.0000      -0.673873       -18.3370
 104   2.0000      -0.670472       -18.2445
 105   2.0000      -0.668490       -18.1905
 106   2.0000      -0.664163       -18.0728
 107   2.0000      -0.660999       -17.9867
 108   2.0000      -0.657237       -17.8843
 109   2.0000      -0.655795       -17.8451
 110   2.0000      -0.651118       -17.7178
 111   2.0000      -0.648453       -17.6453
 112   2.0000      -0.644261       -17.5312
 113   2.0000      -0.636626       -17.3235
 114   2.0000      -0.634167       -17.2566
 115   2.0000      -0.628543       -17.1035
 116   2.0000      -0.622859       -16.9489
 117   2.0000      -0.616253       -16.7691
 118   2.0000      -0.612857       -16.6767
 119   2.0000      -0.611065       -16.6279
 120   2.0000      -0.608598       -16.5608
 121   2.0000      -0.602269       -16.3886
 122   2.0000      -0.595920       -16.2158
 123   2.0000      -0.592639       -16.1265
 124   2.0000      -0.590422       -16.0662
 125   2.0000      -0.584832       -15.9141
 126   2.0000      -0.578384       -15.7386
 127   2.0000      -0.575625       -15.6635
 128   2.0000      -0.564633       -15.3644
 129   2.0000      -0.558846       -15.2070
 130   2.0000      -0.554004       -15.0752
 131   2.0000      -0.549292       -14.9470
 132   2.0000      -0.541996       -14.7485
 133   2.0000      -0.537537       -14.6271
 134   2.0000      -0.534204       -14.5364
 135   2.0000      -0.530447       -14.4342
 136   2.0000      -0.525575       -14.3016
 137   2.0000      -0.523074       -14.2336
 138   2.0000      -0.517920       -14.0933
 139   2.0000      -0.517427       -14.0799
 140   2.0000      -0.509746       -13.8709
 141   2.0000      -0.507955       -13.8222
 142   2.0000      -0.507430       -13.8079
 143   2.0000      -0.501574       -13.6485
 144   2.0000      -0.500139       -13.6095
 145   2.0000      -0.497817       -13.5463
 146   2.0000      -0.493992       -13.4422
 147   2.0000      -0.489376       -13.3166
 148   2.0000      -0.488193       -13.2844
 149   2.0000      -0.469228       -12.7684
 150   2.0000      -0.462383       -12.5821
 151   2.0000      -0.454184       -12.3590
 152   2.0000      -0.448245       -12.1974
 153   2.0000      -0.446798       -12.1580
 154   2.0000      -0.446177       -12.1411
 155   2.0000      -0.439610       -11.9624
 156   2.0000      -0.434656       -11.8276
 157   2.0000      -0.430014       -11.7013
 158   2.0000      -0.396432       -10.7875
 159   2.0000      -0.384332       -10.4582
 160   2.0000      -0.379266       -10.3204
 161   2.0000      -0.371693       -10.1143
 162   2.0000      -0.370820       -10.0905
 163   2.0000      -0.359918        -9.7939
 164   2.0000      -0.353142        -9.6095
 165   2.0000      -0.338033        -9.1983
 166   2.0000      -0.337252        -9.1771
 167   2.0000      -0.335285        -9.1236
 168   2.0000      -0.328901        -8.9498
 169   2.0000      -0.300333        -8.1725
 170   2.0000      -0.299724        -8.1559
 171   2.0000      -0.287748        -7.8300
 172   2.0000      -0.285806        -7.7772
 173   2.0000      -0.257580        -7.0091
 174   2.0000      -0.246855        -6.7173
 175   2.0000      -0.188952        -5.1416
 176   2.0000      -0.179023        -4.8715
 177   2.0000      -0.069659        -1.8955
 178   2.0000      -0.056228        -1.5300
 179   0.0000       0.029721         0.8087
 180   0.0000       0.069160         1.8819
 181   0.0000       0.092673         2.5217
 182   0.0000       0.101752         2.7688
 183   0.0000       0.122504         3.3335

MULLIKEN ATOMIC CHARGES
-----------------------
   0 C :    0.205634
   1 N :   -0.449812
   2 C :   -0.064305
   3 N :   -0.336422
   4 C :   -0.061534
   5 N :   -0.560836
   6 C :   -0.085612
   7 N :   -0.339215
   8 C :    0.201561
   9 N :   -0.562758
  10 C :    0.117536
  11 N :   -0.437387
  12 C :   -0.075264
  13 N :   -0.435077
  14 C :    0.234269
  15 N :   -0.441133
  16 C :    0.231154
  17 C :   -0.092737
  18 C :   -0.189984
  19 C :    0.221515
  20 C :    0.211866
  21 C :   -0.084844
  22 C :   -0.087228
  23 C :   -0.044484
  24 C :    0.201145
  25 C :    0.113867
  26 C :   -0.073493
  27 C :    0.216118
  28 C :   -0.056391
  29 C :   -0.182180
  30 C :    0.240320
  31 C :    0.220590
  32 C :   -0.063188
  33 C :   -0.071903
  34 C :   -0.049613
  35 C :    0.214413
  36 C :    0.111420
  37 C :   -0.065488
  38 C :    0.235101
  39 C :   -0.060420
  40 C :   -0.184795
  41 C :    0.222054
  42 C :    0.199820
  43 C :   -0.073265
  44 C :   -0.090143
  45 C :   -0.057145
  46 C :    0.206633
  47 C :    0.115672
  48 C :   -0.071513
  49 C :    0.231743
  50 C :   -0.049672
  51 C :   -0.191544
  52 H :    0.046530
  53 H :   -0.015298
  54 H :    0.046006
  55 H :    0.044886
  56 H :    0.052710
  57 H :    0.051720
  58 H :    0.050939
  59 H :   -0.005795
  60 H :    0.046686
  61 H :    0.171717
  62 H :    0.174298
  63 H :    0.057019
  64 H :   -0.011776
  65 H :    0.046859
  66 H :    0.057357
  67 H :    0.063499
  68 H :    0.058149
  69 H :    0.058272
  70 H :   -0.026487
  71 H :    0.047454
  72 H :    0.063357
  73 H :   -0.011183
  74 H :    0.053102
  75 H :    0.062478
  76 H :    0.067994
  77 H :    0.062686
  78 H :    0.061843
  79 H :   -0.014676
  80 H :    0.053521
  81 H :    0.053625
  82 H :   -0.024559
  83 H :    0.041870
  84 H :    0.053082
  85 H :    0.059453
  86 H :    0.055587
  87 H :    0.056701
  88 H :   -0.018466
  89 H :    0.045795
Sum of atomic charges:    0.0000000

LOEWDIN ATOMIC CHARGES
----------------------
   0 C :   -0.014239
   1 N :    0.123293
   2 C :   -0.100853
   3 N :    0.180944
   4 C :    0.011432
   5 N :   -0.133485
   6 C :   -0.029252
   7 N :    0.176574
   8 C :   -0.017166
   9 N :   -0.139564
  10 C :    0.025623
  11 N :    0.144729
  12 C :   -0.103933
  13 N :    0.153009
  14 C :   -0.039141
  15 N :    0.137925
  16 C :   -0.052965
  17 C :   -0.034690
  18 C :   -0.103326
  19 C :   -0.086663
  20 C :    0.003981
  21 C :   -0.108082
  22 C :    0.042068
  23 C :   -0.017434
  24 C :   -0.005362
  25 C :    0.030460
  26 C :   -0.105813
  27 C :   -0.106168
  28 C :   -0.023473
  29 C :   -0.102604
  30 C :   -0.039052
  31 C :    0.012694
  32 C :   -0.096114
  33 C :    0.059488
  34 C :   -0.016982
  35 C :    0.007474
  36 C :    0.032247
  37 C :   -0.097667
  38 C :   -0.045137
  39 C :   -0.022109
  40 C :   -0.108175
  41 C :   -0.094336
  42 C :   -0.008515
  43 C :   -0.102600
  44 C :    0.032349
  45 C :   -0.025571
  46 C :   -0.002662
  47 C :    0.029214
  48 C :   -0.100889
  49 C :   -0.079918
  50 C :   -0.021076
  51 C :   -0.109359
  52 H :    0.026187
  53 H :    0.003725
  54 H :    0.041392
  55 H :    0.025937
  56 H :    0.023337
  57 H :    0.028036
  58 H :    0.028851
  59 H :    0.006665
  60 H :    0.041158
  61 H :    0.060144
  62 H :    0.061235
  63 H :    0.031394
  64 H :    0.001957
  65 H :    0.045570
  66 H :    0.030247
  67 H :    0.028807
  68 H :    0.032046
  69 H :    0.031150
  70 H :   -0.003109
  71 H :    0.044892
  72 H :    0.034008
  73 H :    0.005583
  74 H :    0.047668
  75 H :    0.033357
  76 H :    0.031200
  77 H :    0.033684
  78 H :    0.033320
  79 H :    0.003917
  80 H :    0.047284
  81 H :    0.028859
  82 H :   -0.002480
  83 H :    0.042731
  84 H :    0.029229
  85 H :    0.026714
  86 H :    0.030157
  87 H :    0.031161
  88 H :    0.000490
  89 H :    0.044368

  Mayer bond orders larger than 0.100000
B(  0-C ,  1-N ) :   1.0999 B(  0-C , 17-C ) :   1.6760 B(  0-C , 52-H ) :   0.9686
B(  1-N ,  8-C ) :   1.0939 B(  1-N , 10-C ) :   0.9720 B(  2-C , 12-C ) :   1.5248
B(  2-C , 16-C ) :   1.3376 B(  2-C , 53-H ) :   0.9772 B(  3-N , 14-C ) :   1.2115
B(  3-N , 16-C ) :   1.1936 B(  3-N , 61-H ) :   0.8991 B(  4-C ,  6-C ) :   1.2327
B(  4-C , 17-C ) :   1.2305 B(  4-C , 18-C ) :   1.3574 B(  5-N , 19-C ) :   1.4380
B(  5-N , 27-C ) :   1.3914 B(  6-C ,  8-C ) :   1.6768 B(  6-C , 54-H ) :   0.9684
B(  7-N , 30-C ) :   1.1934 B(  7-N , 38-C ) :   1.1970 B(  7-N , 62-H ) :   0.8975
B(  8-C , 55-H ) :   0.9701 B(  9-N , 41-C ) :   1.3992 B(  9-N , 49-C ) :   1.4233
B( 10-C , 56-H ) :   0.9764 B( 10-C , 57-H ) :   0.9828 B( 10-C , 58-H ) :   0.9833
B( 11-N , 20-C ) :   1.1296 B( 11-N , 24-C ) :   1.1173 B( 11-N , 25-C ) :   0.9581
B( 12-C , 14-C ) :   1.3407 B( 12-C , 59-H ) :   0.9754 B( 13-N , 31-C ) :   1.1419
B( 13-N , 35-C ) :   1.1352 B( 13-N , 36-C ) :   0.9513 B( 14-C , 18-C ) :   1.1647
B( 15-N , 42-C ) :   1.1106 B( 15-N , 46-C ) :   1.1181 B( 15-N , 47-C ) :   0.9624
B( 16-C , 51-C ) :   1.1866 B( 17-C , 60-H ) :   0.9687 B( 18-C , 19-C ) :   1.1728
B( 19-C , 21-C ) :   1.2278 B( 20-C , 28-C ) :   1.6234 B( 20-C , 63-H ) :   0.9702
B( 21-C , 26-C ) :   1.6302 B( 21-C , 64-H ) :   0.9720 B( 22-C , 23-C ) :   1.2886
B( 22-C , 28-C ) :   1.2717 B( 22-C , 29-C ) :   1.2222 B( 23-C , 24-C ) :   1.6164
B( 23-C , 65-H ) :   0.9707 B( 24-C , 66-H ) :   0.9693 B( 25-C , 67-H ) :   0.9761
B( 25-C , 68-H ) :   0.9828 B( 25-C , 69-H ) :   0.9822 B( 26-C , 27-C ) :   1.2228
B( 26-C , 70-H ) :   0.9722 B( 27-C , 29-C ) :   1.2224 B( 28-C , 71-H ) :   0.9716
B( 29-C , 30-C ) :   1.2281 B( 30-C , 32-C ) :   1.2956 B( 31-C , 39-C ) :   1.6111
B( 31-C , 72-H ) :   0.9689 B( 32-C , 37-C ) :   1.5632 B( 32-C , 73-H ) :   0.9781
B( 33-C , 34-C ) :   1.2910 B( 33-C , 39-C ) :   1.2838 B( 33-C , 40-C ) :   1.2137
B( 34-C , 35-C ) :   1.6077 B( 34-C , 74-H ) :   0.9700 B( 35-C , 75-H ) :   0.9690
B( 36-C , 76-H ) :   0.9765 B( 36-C , 77-H ) :   0.9818 B( 36-C , 78-H ) :   0.9828
B( 37-C , 38-C ) :   1.2984 B( 37-C , 79-H ) :   0.9773 B( 38-C , 40-C ) :   1.2212
B( 39-C , 80-H ) :   0.9711 B( 40-C , 41-C ) :   1.2332 B( 41-C , 43-C ) :   1.2022
B( 42-C , 50-C ) :   1.6348 B( 42-C , 81-H ) :   0.9696 B( 43-C , 48-C ) :   1.6493
B( 43-C , 82-H ) :   0.9729 B( 44-C , 45-C ) :   1.2658 B( 44-C , 50-C ) :   1.2684
B( 44-C , 51-C ) :   1.2610 B( 45-C , 46-C ) :   1.6351 B( 45-C , 83-H ) :   0.9715
B( 46-C , 84-H ) :   0.9702 B( 47-C , 85-H ) :   0.9762 B( 47-C , 86-H ) :   0.9829
B( 47-C , 87-H ) :   0.9825 B( 48-C , 49-C ) :   1.2041 B( 48-C , 88-H ) :   0.9744
B( 49-C , 51-C ) :   1.2262 B( 50-C , 89-H ) :   0.9711

MP2 TOTAL ENERGY:    -2130.915601908 Eh
FINAL SINGLE POINT ENERGY     -2130.915601908354

DIPOLE MOMENT
-------------
                                X             Y             Z
Electronic contribution:      1.00713      -2.60675      -0.05972
Nuclear contribution   :      0.01423       0.19643       0.07086
                        -----------------------------------------
Total Dipole Moment    :      1.02136      -2.41032       0.01114
                        -----------------------------------------
Magnitude (a.u.)       :      2.61781
Magnitude (Debye)      :      6.65395

Rotational constants in cm-1:     0.001500     0.001474     0.000762
Rotational constants in MHz :    44.981491    44.195483    22.831914

                             ****ORCA TERMINATED NORMALLY****
TOTAL RUN TIME: 0 days 0 hours 58 minutes 47 seconds 26 msec
