                         Program Version 5.0.4 -  RELEASE  -
|  1> ! PAL2
|  2> ! mp2 cc-pvdz TightSCF  NoKeepInts
|  3>
|  4> %scf
|  5>   MaxCore 2000
|  6> end
|  7> %mp2
|  8>   MaxCore 2000
|  9> end
| 10> * xyz 0 1
| 11>    C       -3.04400         6.48400         0.26700
| 12>    C        1.47400         4.04100         0.05700
| 13>    C       -2.80200         4.09300         0.04900
| 14>    C       -4.19400         4.01800        -0.11100
| 15>    C       -4.95800         5.16800        -0.08100
| 16>    C       -5.22500         7.59400         0.10000
| 17>    C        0.13200         4.30700         0.06100
| 18>    C       -0.56900         3.05600         0.04700
| 19>    C        1.64900         2.61800         0.02300
| 20>    C       -2.23700         5.36400         0.23800
| 21>    N       -4.38300         6.37700         0.11000
| 22>    N        0.38800         2.06700         0.02500
| 23>    N       -2.01000         0.39500        -0.07500
| 24>    N       -0.38800        -2.07400        -0.02700
| 25>    N        2.01000        -0.40100         0.06500
| 26>    C       -1.96000         2.86100         0.02400
| 27>    C       -2.62300         1.61500        -0.01800
| 28>    C       -5.57300        -4.32900         1.06600
| 29>    C       -4.07300         1.47100         0.05600
| 30>    C       -4.10600        -2.75600        -0.02600
| 31>    C       -4.99500        -2.75700        -1.11100
| 32>    C       -6.13200        -3.54200        -1.07600
| 33>    C       -7.65100        -5.11300         0.04000
| 34>    C       -4.32400         0.14100         0.03700
| 35>    C       -3.02500        -0.52000        -0.04800
| 36>    C       -4.42200        -3.56600         1.07500
| 37>    N       -6.40700        -4.31300         0.00100
| 38>    C       -2.86700        -1.92200        -0.04000
| 39>    C       -1.65000        -2.62400        -0.02700
| 40>    C        3.56800        -6.14200        -1.04000
| 41>    C       -1.47600        -4.04900        -0.03400
| 42>    C        2.80300        -4.09900        -0.00800
| 43>    C        3.65700        -4.38400         1.06900
| 44>    C        4.42700        -5.53000         1.05900
| 45>    C        5.24500        -7.58800         0.01400
| 46>    C       -0.13400        -4.31500        -0.02200
| 47>    C        0.56800        -3.06400        -0.02700
| 48>    C        2.77500        -5.01200        -1.07400
| 49>    N        4.37600        -6.39100         0.01700
| 50>    C        1.95900        -2.86900        -0.00900
| 51>    C        2.62100        -1.62200         0.00900
| 52>    C        5.54300         4.33900        -1.13000
| 53>    C        4.07000        -1.47900        -0.09400
| 54>    C        4.10400         2.75100        -0.02100
| 55>    C        5.02700         2.72900         1.03600
| 56>    C        6.16600         3.50900         0.97800
| 57>    C        7.61900         5.15300        -0.11500
| 58>    C        4.32100        -0.14800        -0.09200
| 59>    C        3.02500         0.51400         0.01500
| 60>    C        4.38700         3.58200        -1.11500
| 61>    C        2.86600         1.91600         0.01300
| 62>    N        6.41300         4.29600        -0.09500
| 63>    H       -2.65300         7.48200         0.42300
| 64>    H        2.27400         4.76600         0.08100
| 65>    H       -4.68800         3.06700        -0.27000
| 66>    H       -6.03300         5.16100        -0.20800
| 67>    H       -5.35000         7.93200        -0.93100
| 68>    H       -6.19500         7.35300         0.53600
| 69>    H       -4.73300         8.36600         0.69000
| 70>    H       -0.33200         5.28200         0.06900
| 71>    H       -1.16900         5.48600         0.38200
| 72>    H        0.18200         1.07200         0.00500
| 73>    H       -0.18300        -1.08000        -0.02100
| 74>    H       -5.86400        -4.96200         1.89500
| 75>    H       -4.79400         2.27200         0.13900
| 76>    H       -4.80000        -2.16000        -1.99400
| 77>    H       -6.84100        -3.58200        -1.89300
| 78>    H       -8.42800        -4.53600         0.54600
| 79>    H       -7.95600        -5.33700        -0.98100
| 80>    H       -7.45600        -6.03700         0.58400
| 81>    H       -5.28700        -0.34400         0.10000
| 82>    H       -3.78000        -3.60100         1.94700
| 83>    H        3.58700        -6.86800        -1.84300
| 84>    H       -2.27600        -4.77400        -0.05000
| 85>    H        3.71400        -3.72400         1.92600
| 86>    H        5.09200        -5.79500         1.87100
| 87>    H        6.20500        -7.32900        -0.43900
| 88>    H        5.39300        -7.91700         1.04200
| 89>    H        4.75900        -8.37300        -0.56400
| 90>    H        0.32900        -5.29000        -0.00800
| 91>    H        2.14600        -4.84200        -1.94000
| 92>    H        5.80800         4.98600        -1.95600
| 93>    H        4.78800        -2.28100        -0.18500
| 94>    H        4.86000         2.11400         1.91200
| 95>    H        6.90100         3.53100         1.77200
| 96>    H        7.38300         6.10900         0.35600
| 97>    H        8.41400         4.65200         0.43500
| 98>    H        7.92100         5.31000        -1.15000
| 99>    H        5.28300         0.33600        -0.17900
|100>    H        3.72000         3.63200        -1.96700
|101> *
|102>
|103>                          ****END OF INPUT****

CARTESIAN COORDINATES (ANGSTROEM)
---------------------------------
  C     -3.044000    6.484000    0.267000
  C      1.474000    4.041000    0.057000
  C     -2.802000    4.093000    0.049000
  C     -4.194000    4.018000   -0.111000
  C     -4.958000    5.168000   -0.081000
  C     -5.225000    7.594000    0.100000
  C      0.132000    4.307000    0.061000
  C     -0.569000    3.056000    0.047000
  C      1.649000    2.618000    0.023000
  C     -2.237000    5.364000    0.238000
  N     -4.383000    6.377000    0.110000
  N      0.388000    2.067000    0.025000
  N     -2.010000    0.395000   -0.075000
  N     -0.388000   -2.074000   -0.027000
  N      2.010000   -0.401000    0.065000
  C     -1.960000    2.861000    0.024000
  C     -2.623000    1.615000   -0.018000
  C     -5.573000   -4.329000    1.066000
  C     -4.073000    1.471000    0.056000
  C     -4.106000   -2.756000   -0.026000
  C     -4.995000   -2.757000   -1.111000
  C     -6.132000   -3.542000   -1.076000
  C     -7.651000   -5.113000    0.040000
  C     -4.324000    0.141000    0.037000
  C     -3.025000   -0.520000   -0.048000
  C     -4.422000   -3.566000    1.075000
  N     -6.407000   -4.313000    0.001000
  C     -2.867000   -1.922000   -0.040000
  C     -1.650000   -2.624000   -0.027000
  C      3.568000   -6.142000   -1.040000
  C     -1.476000   -4.049000   -0.034000
  C      2.803000   -4.099000   -0.008000
  C      3.657000   -4.384000    1.069000
  C      4.427000   -5.530000    1.059000
  C      5.245000   -7.588000    0.014000
  C     -0.134000   -4.315000   -0.022000
  C      0.568000   -3.064000   -0.027000
  C      2.775000   -5.012000   -1.074000
  N      4.376000   -6.391000    0.017000
  C      1.959000   -2.869000   -0.009000
  C      2.621000   -1.622000    0.009000
  C      5.543000    4.339000   -1.130000
  C      4.070000   -1.479000   -0.094000
  C      4.104000    2.751000   -0.021000
  C      5.027000    2.729000    1.036000
  C      6.166000    3.509000    0.978000
  C      7.619000    5.153000   -0.115000
  C      4.321000   -0.148000   -0.092000
  C      3.025000    0.514000    0.015000
  C      4.387000    3.582000   -1.115000
  C      2.866000    1.916000    0.013000
  N      6.413000    4.296000   -0.095000
  H     -2.653000    7.482000    0.423000
  H      2.274000    4.766000    0.081000
  H     -4.688000    3.067000   -0.270000
  H     -6.033000    5.161000   -0.208000
  H     -5.350000    7.932000   -0.931000
  H     -6.195000    7.353000    0.536000
  H     -4.733000    8.366000    0.690000
  H     -0.332000    5.282000    0.069000
  H     -1.169000    5.486000    0.382000
  H      0.182000    1.072000    0.005000
  H     -0.183000   -1.080000   -0.021000
  H     -5.864000   -4.962000    1.895000
  H     -4.794000    2.272000    0.139000
  H     -4.800000   -2.160000   -1.994000
  H     -6.841000   -3.582000   -1.893000
  H     -8.428000   -4.536000    0.546000
  H     -7.956000   -5.337000   -0.981000
  H     -7.456000   -6.037000    0.584000
  H     -5.287000   -0.344000    0.100000
  H     -3.780000   -3.601000    1.947000
  H      3.587000   -6.868000   -1.843000
  H     -2.276000   -4.774000   -0.050000
  H      3.714000   -3.724000    1.926000
  H      5.092000   -5.795000    1.871000
  H      6.205000   -7.329000   -0.439000
  H      5.393000   -7.917000    1.042000
  H      4.759000   -8.373000   -0.564000
  H      0.329000   -5.290000   -0.008000
  H      2.146000   -4.842000   -1.940000
  H      5.808000    4.986000   -1.956000
  H      4.788000   -2.281000   -0.185000
  H      4.860000    2.114000    1.912000
  H      6.901000    3.531000    1.772000
  H      7.383000    6.109000    0.356000
  H      8.414000    4.652000    0.435000
  H      7.921000    5.310000   -1.150000
  H      5.283000    0.336000   -0.179000
  H      3.720000    3.632000   -1.967000

 Total Charge           Charge          ....    0
 Multiplicity           Mult            ....    1
 Number of Electrons    NEL             ....  358
 Basis Dimension        Dim             ....  918

ORBITAL ENERGIES
----------------

  NO   OCC          E(Eh)            E(eV)
   0   2.0000     -15.680568      -426.6899
   1   2.0000     -15.634071      -425.4247
   2   2.0000     -15.631958      -425.3672
   3   2.0000     -15.587496      -424.1573
   4   2.0000     -15.525190      -422.4619
   5   2.0000     -15.515357      -422.1943
   6   2.0000     -15.453939      -420.5230
   7   2.0000     -15.439678      -420.1350
   8   2.0000     -11.330046      -308.3062
   9   2.0000     -11.329023      -308.2784
  10   2.0000     -11.328406      -308.2616
  11   2.0000     -11.299379      -307.4717
  12   2.0000     -11.298446      -307.4463
  13   2.0000     -11.293101      -307.3009
  14   2.0000     -11.291393      -307.2544
  15   2.0000     -11.286650      -307.1254
  16   2.0000     -11.286548      -307.1226
  17   2.0000     -11.282769      -307.0198
  18   2.0000     -11.269290      -306.6530
  19   2.0000     -11.263896      -306.5062
  20   2.0000     -11.262896      -306.4790
  21   2.0000     -11.250930      -306.1534
  22   2.0000     -11.247441      -306.0584
  23   2.0000     -11.237854      -305.7976
  24   2.0000     -11.236734      -305.7671
  25   2.0000     -11.231180      -305.6160
  26   2.0000     -11.230514      -305.5978
  27   2.0000     -11.229832      -305.5793
  28   2.0000     -11.229569      -305.5721
  29   2.0000     -11.211277      -305.0744
  30   2.0000     -11.209890      -305.0366
  31   2.0000     -11.193157      -304.5813
  32   2.0000     -11.191775      -304.5437
  33   2.0000     -11.191585      -304.5385
  34   2.0000     -11.188654      -304.4587
  35   2.0000     -11.188009      -304.4412
  36   2.0000     -11.187192      -304.4190
  37   2.0000     -11.175048      -304.0885
  38   2.0000     -11.172628      -304.0227
  39   2.0000     -11.172260      -304.0127
  40   2.0000     -11.170725      -303.9709
  41   2.0000     -11.168633      -303.9140
  42   2.0000     -11.168576      -303.9124
  43   2.0000     -11.162163      -303.7379
  44   2.0000     -11.160598      -303.6953
  45   2.0000     -11.156849      -303.5933
  46   2.0000     -11.156477      -303.5832
  47   2.0000     -11.151330      -303.4431
  48   2.0000     -11.146674      -303.3164
  49   2.0000     -11.135102      -303.0015
  50   2.0000     -11.129333      -302.8445
  51   2.0000     -11.116753      -302.5022
  52   2.0000      -1.361035       -37.0356
  53   2.0000      -1.321304       -35.9545
  54   2.0000      -1.319723       -35.9115
  55   2.0000      -1.280007       -34.8308
  56   2.0000      -1.226371       -33.3713
  57   2.0000      -1.210180       -32.9307
  58   2.0000      -1.173655       -31.9368
  59   2.0000      -1.150724       -31.3128
  60   2.0000      -1.144189       -31.1350
  61   2.0000      -1.110395       -30.2154
  62   2.0000      -1.108976       -30.1768
  63   2.0000      -1.082676       -29.4611
  64   2.0000      -1.076667       -29.2976
  65   2.0000      -1.045488       -28.4492
  66   2.0000      -1.044355       -28.4183
  67   2.0000      -1.041511       -28.3410
  68   2.0000      -1.015043       -27.6207
  69   2.0000      -1.013572       -27.5807
  70   2.0000      -1.008919       -27.4541
  71   2.0000      -0.993780       -27.0421
  72   2.0000      -0.985458       -26.8157
  73   2.0000      -0.982057       -26.7231
  74   2.0000      -0.973459       -26.4892
  75   2.0000      -0.962240       -26.1839
  76   2.0000      -0.954836       -25.9824
  77   2.0000      -0.946050       -25.7433
  78   2.0000      -0.938319       -25.5330
  79   2.0000      -0.916675       -24.9440
  80   2.0000      -0.911101       -24.7923
  81   2.0000      -0.897812       -24.4307
  82   2.0000      -0.877282       -23.8720
  83   2.0000      -0.872449       -23.7405
  84   2.0000      -0.870799       -23.6956
  85   2.0000      -0.860688       -23.4205
  86   2.0000      -0.843316       -22.9478
  87   2.0000      -0.837410       -22.7871
  88   2.0000      -0.828657       -22.5489
  89   2.0000      -0.796412       -21.6715
  90   2.0000      -0.788786       -21.4640
  91   2.0000      -0.769634       -20.9428
  92   2.0000      -0.753468       -20.5029
  93   2.0000      -0.734018       -19.9737
  94   2.0000      -0.727635       -19.7999
  95   2.0000      -0.725207       -19.7339
  96   2.0000      -0.719768       -19.5859
  97   2.0000      -0.717810       -19.5326
  98   2.0000      -0.713545       -19.4165
  99   2.0000      -0.698726       -19.0133
 100   2.0000      -0.698317       -19.0022
 101   2.0000      -0.693675       -18.8759
 102   2.0000      -0.685687       -18.6585
 103   2.0000      -0.684773       -18.6336
 104   2.0000      -0.678960       -18.4754
 105   2.0000      -0.674524       -18.3547
 106   2.0000      -0.672904       -18.3107
 107   2.0000      -0.660452       -17.9718
 108   2.0000      -0.658179       -17.9100
 109   2.0000      -0.652958       -17.7679
 110   2.0000      -0.652048       -17.7431
 111   2.0000      -0.646708       -17.5978
 112   2.0000      -0.645763       -17.5721
 113   2.0000      -0.637847       -17.3567
 114   2.0000      -0.635508       -17.2930
 115   2.0000      -0.628200       -17.0942
 116   2.0000      -0.622910       -16.9502
 117   2.0000      -0.620451       -16.8833
 118   2.0000      -0.613271       -16.6879
 119   2.0000      -0.612398       -16.6642
 120   2.0000      -0.611988       -16.6531
 121   2.0000      -0.611454       -16.6385
 122   2.0000      -0.601018       -16.3545
 123   2.0000      -0.588842       -16.0232
 124   2.0000      -0.581703       -15.8289
 125   2.0000      -0.580889       -15.8068
 126   2.0000      -0.580318       -15.7913
 127   2.0000      -0.571546       -15.5526
 128   2.0000      -0.567274       -15.4363
 129   2.0000      -0.559958       -15.2372
 130   2.0000      -0.554811       -15.0972
 131   2.0000      -0.548207       -14.9175
 132   2.0000      -0.542968       -14.7749
 133   2.0000      -0.540661       -14.7121
 134   2.0000      -0.538720       -14.6593
 135   2.0000      -0.535980       -14.5847
 136   2.0000      -0.531394       -14.4600
 137   2.0000      -0.518145       -14.0994
 138   2.0000      -0.517358       -14.0780
 139   2.0000      -0.514209       -13.9924
 140   2.0000      -0.512335       -13.9414
 141   2.0000      -0.510114       -13.8809
 142   2.0000      -0.508511       -13.8373
 143   2.0000      -0.504581       -13.7304
 144   2.0000      -0.502099       -13.6628
 145   2.0000      -0.495355       -13.4793
 146   2.0000      -0.488767       -13.3000
 147   2.0000      -0.481150       -13.0928
 148   2.0000      -0.476718       -12.9721
 149   2.0000      -0.467981       -12.7344
 150   2.0000      -0.466176       -12.6853
 151   2.0000      -0.456613       -12.4251
 152   2.0000      -0.451587       -12.2883
 153   2.0000      -0.445191       -12.1143
 154   2.0000      -0.438108       -11.9215
 155   2.0000      -0.427490       -11.6326
 156   2.0000      -0.409450       -11.1417
 157   2.0000      -0.392876       -10.6907
 158   2.0000      -0.389882       -10.6092
 159   2.0000      -0.387935       -10.5563
 160   2.0000      -0.378994       -10.3129
 161   2.0000      -0.374316       -10.1856
 162   2.0000      -0.366222        -9.9654
 163   2.0000      -0.356749        -9.7076
 164   2.0000      -0.355902        -9.6846
 165   2.0000      -0.341970        -9.3055
 166   2.0000      -0.337743        -9.1905
 167   2.0000      -0.324917        -8.8414
 168   2.0000      -0.320347        -8.7171
 169   2.0000      -0.305631        -8.3166
 170   2.0000      -0.299308        -8.1446
 171   2.0000      -0.285470        -7.7680
 172   2.0000      -0.278270        -7.5721
 173   2.0000      -0.263538        -7.1712
 174   2.0000      -0.241650        -6.5756
 175   2.0000      -0.190025        -5.1709
 176   2.0000      -0.181294        -4.9333
 177   2.0000      -0.080194        -2.1822
 178   2.0000      -0.059869        -1.6291
 179   0.0000       0.028299         0.7701
 180   0.0000       0.065154         1.7729
 181   0.0000       0.090094         2.4516
 182   0.0000       0.105749         2.8776
 183   0.0000       0.116398         3.1673

MULLIKEN ATOMIC CHARGES
-----------------------
   0 C :    0.226554
   1 N :   -0.455418
   2 C :   -0.075650
   3 N :   -0.341623
   4 C :   -0.084747
   5 N :   -0.568704
   6 C :   -0.108122
   7 N :   -0.341125
   8 C :    0.215450
   9 N :   -0.562331
  10 C :    0.119389
  11 N :   -0.438436
  12 C :   -0.046876
  13 N :   -0.429148
  14 C :    0.210027
  15 N :   -0.440896
  16 C :    0.234948
  17 C :   -0.121476
  18 C :   -0.160181
  19 C :    0.202498
  20 C :    0.213962
  21 C :   -0.050457
  22 C :   -0.089796
  23 C :   -0.039597
  24 C :    0.193394
  25 C :    0.114581
  26 C :   -0.093321
  27 C :    0.216369
  28 C :   -0.061865
  29 C :   -0.183937
  30 C :    0.246353
  31 C :    0.230655
  32 C :   -0.061546
  33 C :   -0.059694
  34 C :   -0.051217
  35 C :    0.229076
  36 C :    0.108103
  37 C :   -0.064263
  38 C :    0.230907
  39 C :   -0.057582
  40 C :   -0.181328
  41 C :    0.226005
  42 C :    0.197389
  43 C :   -0.072585
  44 C :   -0.089726
  45 C :   -0.061825
  46 C :    0.211971
  47 C :    0.115323
  48 C :   -0.066479
  49 C :    0.238253
  50 C :   -0.045898
  51 C :   -0.194225
  52 H :    0.034386
  53 H :   -0.018232
  54 H :    0.044185
  55 H :    0.032893
  56 H :    0.049102
  57 H :    0.048082
  58 H :    0.045980
  59 H :   -0.017536
  60 H :    0.047968
  61 H :    0.171037
  62 H :    0.175588
  63 H :    0.055340
  64 H :   -0.027817
  65 H :    0.046762
  66 H :    0.055527
  67 H :    0.062527
  68 H :    0.057180
  69 H :    0.056345
  70 H :   -0.030111
  71 H :    0.044861
  72 H :    0.071717
  73 H :   -0.007876
  74 H :    0.060787
  75 H :    0.071178
  76 H :    0.075320
  77 H :    0.068279
  78 H :    0.067579
  79 H :   -0.016720
  80 H :    0.061709
  81 H :    0.054592
  82 H :   -0.025015
  83 H :    0.041889
  84 H :    0.054285
  85 H :    0.060990
  86 H :    0.055566
  87 H :    0.057361
  88 H :   -0.014307
  89 H :    0.047467
Sum of atomic charges:    0.0000000

LOEWDIN ATOMIC CHARGES
----------------------
   0 C :   -0.016962
   1 N :    0.121910
   2 C :   -0.100751
   3 N :    0.182460
   4 C :   -0.012227
   5 N :   -0.134139
   6 C :   -0.022151
   7 N :    0.174913
   8 C :   -0.023521
   9 N :   -0.140655
  10 C :    0.023001
  11 N :    0.141931
  12 C :   -0.099304
  13 N :    0.166910
  14 C :   -0.015997
  15 N :    0.138978
  16 C :   -0.060829
  17 C :   -0.030771
  18 C :   -0.112815
  19 C :   -0.073648
  20 C :    0.005028
  21 C :   -0.106092
  22 C :    0.037553
  23 C :   -0.014544
  24 C :   -0.012826
  25 C :    0.029814
  26 C :   -0.108600
  27 C :   -0.117341
  28 C :   -0.027658
  29 C :   -0.099428
  30 C :   -0.029496
  31 C :    0.024890
  32 C :   -0.094211
  33 C :    0.083148
  34 C :   -0.015042
  35 C :    0.023844
  36 C :    0.035387
  37 C :   -0.093848
  38 C :   -0.052479
  39 C :   -0.017397
  40 C :   -0.108740
  41 C :   -0.091256
  42 C :   -0.010411
  43 C :   -0.099203
  44 C :    0.033959
  45 C :   -0.028476
  46 C :    0.002337
  47 C :    0.029547
  48 C :   -0.094632
  49 C :   -0.068921
  50 C :   -0.018342
  51 C :   -0.108784
  52 H :    0.022200
  53 H :    0.002351
  54 H :   -0.004959
  55 H :    0.021745
  56 H :    0.021776
  57 H :    0.026586
  58 H :    0.026318
  59 H :    0.003283
  60 H :   -0.002806
  61 H :    0.060212
  62 H :    0.061927
  63 H :    0.030771
  64 H :    0.002410
  65 H :    0.045773
  66 H :    0.029184
  67 H :    0.028266
  68 H :    0.031603
  69 H :    0.030289
  70 H :   -0.004897
  71 H :    0.043507
  72 H :    0.037901
  73 H :    0.007198
  74 H :    0.050846
  75 H :    0.037602
  76 H :    0.035011
  77 H :    0.036319
  78 H :    0.036003
  79 H :    0.002907
  80 H :    0.050928
  81 H :    0.029171
  82 H :   -0.002814
  83 H :    0.042464
  84 H :    0.029942
  85 H :    0.027447
  86 H :    0.030193
  87 H :    0.031474
  88 H :    0.002479
  89 H :    0.045272

  Mayer bond orders larger than 0.100000
B(  0-C ,  1-N ) :   1.1019 B(  0-C , 17-C ) :   1.7207 B(  0-C , 52-H ) :   0.9606
B(  1-N ,  8-C ) :   1.0905 B(  1-N , 10-C ) :   0.9777 B(  2-C , 12-C ) :   1.4841
B(  2-C , 16-C ) :   1.3760 B(  2-C , 53-H ) :   0.9721 B(  3-N , 14-C ) :   1.2233
B(  3-N , 16-C ) :   1.1795 B(  3-N , 61-H ) :   0.8984 B(  4-C ,  6-C ) :   1.2219
B(  4-C , 17-C ) :   1.2222 B(  4-C , 18-C ) :   1.4811 B(  5-N , 19-C ) :   1.4593
B(  5-N , 27-C ) :   1.3694 B(  6-C ,  8-C ) :   1.7254 B(  6-C , 54-H ) :   0.8656
B(  7-N , 30-C ) :   1.1952 B(  7-N , 38-C ) :   1.1892 B(  7-N , 62-H ) :   0.8967
B(  8-C , 55-H ) :   0.9613 B(  9-N , 41-C ) :   1.3941 B(  9-N , 49-C ) :   1.4254
B( 10-C , 56-H ) :   0.9776 B( 10-C , 57-H ) :   0.9829 B( 10-C , 58-H ) :   0.9835
B( 11-N , 20-C ) :   1.1314 B( 11-N , 24-C ) :   1.1068 B( 11-N , 25-C ) :   0.9602
B( 12-C , 14-C ) :   1.3605 B( 12-C , 59-H ) :   0.9197 B( 13-N , 31-C ) :   1.1624
B( 13-N , 35-C ) :   1.1615 B( 13-N , 36-C ) :   0.9409 B( 14-C , 18-C ) :   1.1157
B( 15-N , 42-C ) :   1.1077 B( 15-N , 46-C ) :   1.1251 B( 15-N , 47-C ) :   0.9611
B( 16-C , 51-C ) :   1.1671 B( 17-C , 60-H ) :   0.8785 B( 18-C , 19-C ) :   1.1128
B( 19-C , 21-C ) :   1.2546 B( 20-C , 28-C ) :   1.6286 B( 20-C , 63-H ) :   0.9702
B( 21-C , 26-C ) :   1.5771 B( 21-C , 64-H ) :   0.9097 B( 22-C , 23-C ) :   1.2897
B( 22-C , 28-C ) :   1.2638 B( 22-C , 29-C ) :   1.2272 B( 23-C , 24-C ) :   1.6200
B( 23-C , 65-H ) :   0.9703 B( 24-C , 66-H ) :   0.9695 B( 25-C , 67-H ) :   0.9761
B( 25-C , 68-H ) :   0.9828 B( 25-C , 69-H ) :   0.9823 B( 26-C , 27-C ) :   1.2648
B( 26-C , 70-H ) :   0.9661 B( 27-C , 29-C ) :   1.2042 B( 28-C , 71-H ) :   0.9720
B( 29-C , 30-C ) :   1.2482 B( 30-C , 32-C ) :   1.2776 B( 31-C , 39-C ) :   1.5866
B( 31-C , 72-H ) :   0.9681 B( 32-C , 37-C ) :   1.5811 B( 32-C , 73-H ) :   0.9786
B( 33-C , 34-C ) :   1.3077 B( 33-C , 39-C ) :   1.3050 B( 33-C , 40-C ) :   1.1743
B( 34-C , 35-C ) :   1.5843 B( 34-C , 74-H ) :   0.9696 B( 35-C , 75-H ) :   0.9681
B( 36-C , 76-H ) :   0.9768 B( 36-C , 77-H ) :   0.9816 B( 36-C , 78-H ) :   0.9823
B( 37-C , 38-C ) :   1.2839 B( 37-C , 79-H ) :   0.9764 B( 38-C , 40-C ) :   1.2351
B( 39-C , 80-H ) :   0.9705 B( 40-C , 41-C ) :   1.2510 B( 41-C , 43-C ) :   1.1839
B( 42-C , 50-C ) :   1.6329 B( 42-C , 81-H ) :   0.9696 B( 43-C , 48-C ) :   1.6690
B( 43-C , 82-H ) :   0.9721 B( 44-C , 45-C ) :   1.2633 B( 44-C , 50-C ) :   1.2726
B( 44-C , 51-C ) :   1.2604 B( 45-C , 46-C ) :   1.6343 B( 45-C , 83-H ) :   0.9718
B( 46-C , 84-H ) :   0.9700 B( 47-C , 85-H ) :   0.9762 B( 47-C , 86-H ) :   0.9829
B( 47-C , 87-H ) :   0.9824 B( 48-C , 49-C ) :   1.1873 B( 48-C , 88-H ) :   0.9749
B( 49-C , 51-C ) :   1.2463 B( 50-C , 89-H ) :   0.9708 B( 54-H , 64-H ) :   0.1052

MP2 TOTAL ENERGY:    -2130.771333566 Eh
FINAL SINGLE POINT ENERGY     -2130.771333565567

DIPOLE MOMENT
-------------
                                X             Y             Z
Electronic contribution:      2.89835      -4.37515      -0.07769
Nuclear contribution   :     -0.03002       0.16727       0.09265
                        -----------------------------------------
Total Dipole Moment    :      2.86833      -4.20788       0.01496
                        -----------------------------------------
Magnitude (a.u.)       :      5.09252
Magnitude (Debye)      :     12.94416

Rotational constants in cm-1:     0.001503     0.001478     0.000760
Rotational constants in MHz :    45.073217    44.296322    22.782238

                             ****ORCA TERMINATED NORMALLY****
TOTAL RUN TIME: 0 days 1 hours 1 minutes 24 seconds 498 msec
