                         Program Version 5.0.4 -  RELEASE  -
|  1> ! PAL2
|  2> ! mp2 cc-pvdz TightSCF  NoKeepInts
|  3>
|  4> %scf
|  5>   MaxCore 2000
|  6> end
|  7> %mp2
|  8>   MaxCore 2000
|  9> end
| 10> * xyz 0 1
| 11>    C       -3.29000         6.33600        -0.69700
| 12>    C        1.47400         4.04100         0.05700
| 13>    C       -2.80200         4.09300         0.04900
| 14>    C       -3.92900         4.18000         0.88100
| 15>    C       -4.69400         5.32900         0.89600
| 16>    C       -5.23000         7.59000         0.12700
| 17>    C        0.13200         4.30700         0.06100
| 18>    C       -0.56900         3.05600         0.04700
| 19>    C        1.64900         2.61800         0.02300
| 20>    C       -2.49700         5.20600        -0.75000
| 21>    N       -4.36900         6.38700         0.11700
| 22>    N        0.38800         2.06700         0.02500
| 23>    N       -2.01000         0.39500        -0.07500
| 24>    N       -0.38800        -2.07400        -0.02700
| 25>    N        2.01000        -0.40100         0.06500
| 26>    C       -1.96000         2.86100         0.02400
| 27>    C       -2.62300         1.61500        -0.01800
| 28>    C       -5.57300        -4.32900         1.06600
| 29>    C       -4.07300         1.47100         0.05600
| 30>    C       -4.10600        -2.75600        -0.02600
| 31>    C       -4.99500        -2.75700        -1.11100
| 32>    C       -6.13200        -3.54200        -1.07600
| 33>    C       -7.65100        -5.11300         0.04000
| 34>    C       -4.32400         0.14100         0.03700
| 35>    C       -3.02500        -0.52000        -0.04800
| 36>    C       -4.42200        -3.56600         1.07500
| 37>    N       -6.40700        -4.31300         0.00100
| 38>    C       -2.86700        -1.92200        -0.04000
| 39>    C       -1.65000        -2.62400        -0.02700
| 40>    C        3.56800        -6.14200        -1.04000
| 41>    C       -1.47600        -4.04900        -0.03400
| 42>    C        2.80300        -4.09900        -0.00800
| 43>    C        3.65700        -4.38400         1.06900
| 44>    C        4.42700        -5.53000         1.05900
| 45>    C        5.24500        -7.58800         0.01400
| 46>    C       -0.13400        -4.31500        -0.02200
| 47>    C        0.56800        -3.06400        -0.02700
| 48>    C        2.77500        -5.01200        -1.07400
| 49>    N        4.37600        -6.39100         0.01700
| 50>    C        1.95900        -2.86900        -0.00900
| 51>    C        2.62100        -1.62200         0.00900
| 52>    C        5.54300         4.33900        -1.13000
| 53>    C        4.07000        -1.47900        -0.09400
| 54>    C        4.10400         2.75100        -0.02100
| 55>    C        5.02700         2.72900         1.03600
| 56>    C        6.16600         3.50900         0.97800
| 57>    C        7.61900         5.15300        -0.11500
| 58>    C        4.32100        -0.14800        -0.09200
| 59>    C        3.02500         0.51400         0.01500
| 60>    C        4.38700         3.58200        -1.11500
| 61>    C        2.86600         1.91600         0.01300
| 62>    N        6.41300         4.29600        -0.09500
| 63>    H       -3.08500         7.22200        -1.28600
| 64>    H        2.27400         4.76600         0.08100
| 65>    H       -4.22100         3.35000         1.51400
| 66>    H       -5.57500         5.43900         1.51300
| 67>    H       -6.04600         7.44900        -0.58600
| 68>    H       -5.63000         7.72700         1.13200
| 69>    H       -4.63000         8.45400        -0.15700
| 70>    H       -0.33200         5.28200         0.06900
| 71>    H       -1.63200         5.20600        -1.40300
| 72>    H        0.18200         1.07200         0.00500
| 73>    H       -0.18300        -1.08000        -0.02100
| 74>    H       -5.86400        -4.96200         1.89500
| 75>    H       -4.79400         2.27200         0.13900
| 76>    H       -4.80000        -2.16000        -1.99400
| 77>    H       -6.84100        -3.58200        -1.89300
| 78>    H       -8.42800        -4.53600         0.54600
| 79>    H       -7.95600        -5.33700        -0.98100
| 80>    H       -7.45600        -6.03700         0.58400
| 81>    H       -5.28700        -0.34400         0.10000
| 82>    H       -3.78000        -3.60100         1.94700
| 83>    H        3.58700        -6.86800        -1.84300
| 84>    H       -2.27600        -4.77400        -0.05000
| 85>    H        3.71400        -3.72400         1.92600
| 86>    H        5.09200        -5.79500         1.87100
| 87>    H        6.20500        -7.32900        -0.43900
| 88>    H        5.39300        -7.91700         1.04200
| 89>    H        4.75900        -8.37300        -0.56400
| 90>    H        0.32900        -5.29000        -0.00800
| 91>    H        2.14600        -4.84200        -1.94000
| 92>    H        5.80800         4.98600        -1.95600
| 93>    H        4.78800        -2.28100        -0.18500
| 94>    H        4.86000         2.11400         1.91200
| 95>    H        6.90100         3.53100         1.77200
| 96>    H        7.38300         6.10900         0.35600
| 97>    H        8.41400         4.65200         0.43500
| 98>    H        7.92100         5.31000        -1.15000
| 99>    H        5.28300         0.33600        -0.17900
|100>    H        3.72000         3.63200        -1.96700
|101> *
|102>
|103>                          ****END OF INPUT****

CARTESIAN COORDINATES (ANGSTROEM)
---------------------------------
  C     -3.290000    6.336000   -0.697000
  C      1.474000    4.041000    0.057000
  C     -2.802000    4.093000    0.049000
  C     -3.929000    4.180000    0.881000
  C     -4.694000    5.329000    0.896000
  C     -5.230000    7.590000    0.127000
  C      0.132000    4.307000    0.061000
  C     -0.569000    3.056000    0.047000
  C      1.649000    2.618000    0.023000
  C     -2.497000    5.206000   -0.750000
  N     -4.369000    6.387000    0.117000
  N      0.388000    2.067000    0.025000
  N     -2.010000    0.395000   -0.075000
  N     -0.388000   -2.074000   -0.027000
  N      2.010000   -0.401000    0.065000
  C     -1.960000    2.861000    0.024000
  C     -2.623000    1.615000   -0.018000
  C     -5.573000   -4.329000    1.066000
  C     -4.073000    1.471000    0.056000
  C     -4.106000   -2.756000   -0.026000
  C     -4.995000   -2.757000   -1.111000
  C     -6.132000   -3.542000   -1.076000
  C     -7.651000   -5.113000    0.040000
  C     -4.324000    0.141000    0.037000
  C     -3.025000   -0.520000   -0.048000
  C     -4.422000   -3.566000    1.075000
  N     -6.407000   -4.313000    0.001000
  C     -2.867000   -1.922000   -0.040000
  C     -1.650000   -2.624000   -0.027000
  C      3.568000   -6.142000   -1.040000
  C     -1.476000   -4.049000   -0.034000
  C      2.803000   -4.099000   -0.008000
  C      3.657000   -4.384000    1.069000
  C      4.427000   -5.530000    1.059000
  C      5.245000   -7.588000    0.014000
  C     -0.134000   -4.315000   -0.022000
  C      0.568000   -3.064000   -0.027000
  C      2.775000   -5.012000   -1.074000
  N      4.376000   -6.391000    0.017000
  C      1.959000   -2.869000   -0.009000
  C      2.621000   -1.622000    0.009000
  C      5.543000    4.339000   -1.130000
  C      4.070000   -1.479000   -0.094000
  C      4.104000    2.751000   -0.021000
  C      5.027000    2.729000    1.036000
  C      6.166000    3.509000    0.978000
  C      7.619000    5.153000   -0.115000
  C      4.321000   -0.148000   -0.092000
  C      3.025000    0.514000    0.015000
  C      4.387000    3.582000   -1.115000
  C      2.866000    1.916000    0.013000
  N      6.413000    4.296000   -0.095000
  H     -3.085000    7.222000   -1.286000
  H      2.274000    4.766000    0.081000
  H     -4.221000    3.350000    1.514000
  H     -5.575000    5.439000    1.513000
  H     -6.046000    7.449000   -0.586000
  H     -5.630000    7.727000    1.132000
  H     -4.630000    8.454000   -0.157000
  H     -0.332000    5.282000    0.069000
  H     -1.632000    5.206000   -1.403000
  H      0.182000    1.072000    0.005000
  H     -0.183000   -1.080000   -0.021000
  H     -5.864000   -4.962000    1.895000
  H     -4.794000    2.272000    0.139000
  H     -4.800000   -2.160000   -1.994000
  H     -6.841000   -3.582000   -1.893000
  H     -8.428000   -4.536000    0.546000
  H     -7.956000   -5.337000   -0.981000
  H     -7.456000   -6.037000    0.584000
  H     -5.287000   -0.344000    0.100000
  H     -3.780000   -3.601000    1.947000
  H      3.587000   -6.868000   -1.843000
  H     -2.276000   -4.774000   -0.050000
  H      3.714000   -3.724000    1.926000
  H      5.092000   -5.795000    1.871000
  H      6.205000   -7.329000   -0.439000
  H      5.393000   -7.917000    1.042000
  H      4.759000   -8.373000   -0.564000
  H      0.329000   -5.290000   -0.008000
  H      2.146000   -4.842000   -1.940000
  H      5.808000    4.986000   -1.956000
  H      4.788000   -2.281000   -0.185000
  H      4.860000    2.114000    1.912000
  H      6.901000    3.531000    1.772000
  H      7.383000    6.109000    0.356000
  H      8.414000    4.652000    0.435000
  H      7.921000    5.310000   -1.150000
  H      5.283000    0.336000   -0.179000
  H      3.720000    3.632000   -1.967000

 Total Charge           Charge          ....    0
 Multiplicity           Mult            ....    1
 Number of Electrons    NEL             ....  358
 Basis Dimension        Dim             ....  918

ORBITAL ENERGIES
----------------

  NO   OCC          E(Eh)            E(eV)
   0   2.0000     -15.660736      -426.1503
   1   2.0000     -15.636245      -425.4839
   2   2.0000     -15.630334      -425.3230
   3   2.0000     -15.601985      -424.5516
   4   2.0000     -15.522724      -422.3948
   5   2.0000     -15.516416      -422.2232
   6   2.0000     -15.449585      -420.4046
   7   2.0000     -15.442674      -420.2165
   8   2.0000     -11.316147      -307.9280
   9   2.0000     -11.313819      -307.8647
  10   2.0000     -11.311996      -307.8151
  11   2.0000     -11.300713      -307.5080
  12   2.0000     -11.297265      -307.4142
  13   2.0000     -11.293829      -307.3207
  14   2.0000     -11.289601      -307.2057
  15   2.0000     -11.288717      -307.1816
  16   2.0000     -11.286101      -307.1104
  17   2.0000     -11.280307      -306.9528
  18   2.0000     -11.266005      -306.5636
  19   2.0000     -11.264218      -306.5150
  20   2.0000     -11.264110      -306.5120
  21   2.0000     -11.249919      -306.1259
  22   2.0000     -11.248999      -306.1008
  23   2.0000     -11.239749      -305.8491
  24   2.0000     -11.234983      -305.7194
  25   2.0000     -11.232719      -305.6578
  26   2.0000     -11.231923      -305.6362
  27   2.0000     -11.228441      -305.5414
  28   2.0000     -11.228326      -305.5383
  29   2.0000     -11.211239      -305.0733
  30   2.0000     -11.206254      -304.9377
  31   2.0000     -11.206230      -304.9370
  32   2.0000     -11.205392      -304.9142
  33   2.0000     -11.205075      -304.9056
  34   2.0000     -11.191683      -304.5412
  35   2.0000     -11.191038      -304.5236
  36   2.0000     -11.182754      -304.2982
  37   2.0000     -11.180796      -304.2449
  38   2.0000     -11.180107      -304.2262
  39   2.0000     -11.172438      -304.0175
  40   2.0000     -11.169253      -303.9308
  41   2.0000     -11.167555      -303.8846
  42   2.0000     -11.164790      -303.8094
  43   2.0000     -11.164174      -303.7926
  44   2.0000     -11.163191      -303.7659
  45   2.0000     -11.161588      -303.7223
  46   2.0000     -11.153479      -303.5016
  47   2.0000     -11.150274      -303.4144
  48   2.0000     -11.149945      -303.4054
  49   2.0000     -11.145390      -303.2815
  50   2.0000     -11.136688      -303.0447
  51   2.0000     -11.130635      -302.8800
  52   2.0000      -1.344158       -36.5764
  53   2.0000      -1.323156       -36.0049
  54   2.0000      -1.318205       -35.8702
  55   2.0000      -1.294718       -35.2311
  56   2.0000      -1.222443       -33.2644
  57   2.0000      -1.211572       -32.9685
  58   2.0000      -1.167508       -31.7695
  59   2.0000      -1.154636       -31.4192
  60   2.0000      -1.129936       -30.7471
  61   2.0000      -1.111679       -30.2503
  62   2.0000      -1.107626       -30.1400
  63   2.0000      -1.088689       -29.6247
  64   2.0000      -1.066993       -29.0344
  65   2.0000      -1.047198       -28.4957
  66   2.0000      -1.042889       -28.3784
  67   2.0000      -1.032513       -28.0961
  68   2.0000      -1.022026       -27.8107
  69   2.0000      -1.012987       -27.5648
  70   2.0000      -1.009828       -27.4788
  71   2.0000      -0.993299       -27.0290
  72   2.0000      -0.986638       -26.8478
  73   2.0000      -0.975714       -26.5505
  74   2.0000      -0.973281       -26.4843
  75   2.0000      -0.959615       -26.1124
  76   2.0000      -0.950757       -25.8714
  77   2.0000      -0.948201       -25.8019
  78   2.0000      -0.936854       -25.4931
  79   2.0000      -0.921895       -25.0860
  80   2.0000      -0.898574       -24.4515
  81   2.0000      -0.889529       -24.2053
  82   2.0000      -0.874626       -23.7998
  83   2.0000      -0.870477       -23.6869
  84   2.0000      -0.864594       -23.5268
  85   2.0000      -0.855619       -23.2826
  86   2.0000      -0.846145       -23.0248
  87   2.0000      -0.838786       -22.8245
  88   2.0000      -0.822552       -22.3828
  89   2.0000      -0.798698       -21.7337
  90   2.0000      -0.795416       -21.6444
  91   2.0000      -0.743673       -20.2364
  92   2.0000      -0.736884       -20.0516
  93   2.0000      -0.731080       -19.8937
  94   2.0000      -0.722267       -19.6539
  95   2.0000      -0.720787       -19.6136
  96   2.0000      -0.713590       -19.4178
  97   2.0000      -0.706442       -19.2233
  98   2.0000      -0.702171       -19.1071
  99   2.0000      -0.695464       -18.9245
 100   2.0000      -0.692927       -18.8555
 101   2.0000      -0.681699       -18.5500
 102   2.0000      -0.678606       -18.4658
 103   2.0000      -0.675528       -18.3820
 104   2.0000      -0.672037       -18.2871
 105   2.0000      -0.671444       -18.2709
 106   2.0000      -0.663824       -18.0636
 107   2.0000      -0.662849       -18.0370
 108   2.0000      -0.655413       -17.8347
 109   2.0000      -0.654305       -17.8045
 110   2.0000      -0.650849       -17.7105
 111   2.0000      -0.647995       -17.6328
 112   2.0000      -0.643415       -17.5082
 113   2.0000      -0.637613       -17.3503
 114   2.0000      -0.632256       -17.2046
 115   2.0000      -0.631760       -17.1911
 116   2.0000      -0.625165       -17.0116
 117   2.0000      -0.615151       -16.7391
 118   2.0000      -0.613998       -16.7077
 119   2.0000      -0.610987       -16.6258
 120   2.0000      -0.610067       -16.6008
 121   2.0000      -0.602115       -16.3844
 122   2.0000      -0.599061       -16.3013
 123   2.0000      -0.590141       -16.0586
 124   2.0000      -0.587829       -15.9956
 125   2.0000      -0.582839       -15.8598
 126   2.0000      -0.579549       -15.7703
 127   2.0000      -0.576207       -15.6794
 128   2.0000      -0.563769       -15.3409
 129   2.0000      -0.558559       -15.1992
 130   2.0000      -0.554536       -15.0897
 131   2.0000      -0.549256       -14.9460
 132   2.0000      -0.541214       -14.7272
 133   2.0000      -0.537573       -14.6281
 134   2.0000      -0.535143       -14.5620
 135   2.0000      -0.533143       -14.5076
 136   2.0000      -0.525901       -14.3105
 137   2.0000      -0.524178       -14.2636
 138   2.0000      -0.517161       -14.0727
 139   2.0000      -0.516329       -14.0500
 140   2.0000      -0.511185       -13.9101
 141   2.0000      -0.509249       -13.8574
 142   2.0000      -0.507716       -13.8157
 143   2.0000      -0.502126       -13.6635
 144   2.0000      -0.501080       -13.6351
 145   2.0000      -0.498110       -13.5543
 146   2.0000      -0.494327       -13.4513
 147   2.0000      -0.487417       -13.2633
 148   2.0000      -0.486154       -13.2289
 149   2.0000      -0.468955       -12.7609
 150   2.0000      -0.463413       -12.6101
 151   2.0000      -0.455546       -12.3960
 152   2.0000      -0.448414       -12.2020
 153   2.0000      -0.446622       -12.1532
 154   2.0000      -0.445466       -12.1217
 155   2.0000      -0.440820       -11.9953
 156   2.0000      -0.432843       -11.7783
 157   2.0000      -0.427421       -11.6307
 158   2.0000      -0.398674       -10.8485
 159   2.0000      -0.386950       -10.5295
 160   2.0000      -0.378386       -10.2964
 161   2.0000      -0.374734       -10.1970
 162   2.0000      -0.370479       -10.0813
 163   2.0000      -0.358030        -9.7425
 164   2.0000      -0.354560        -9.6481
 165   2.0000      -0.337687        -9.1889
 166   2.0000      -0.336681        -9.1616
 167   2.0000      -0.334272        -9.0960
 168   2.0000      -0.327766        -8.9190
 169   2.0000      -0.300856        -8.1867
 170   2.0000      -0.299885        -8.1603
 171   2.0000      -0.287536        -7.8242
 172   2.0000      -0.285238        -7.7617
 173   2.0000      -0.259683        -7.0663
 174   2.0000      -0.245865        -6.6903
 175   2.0000      -0.189293        -5.1509
 176   2.0000      -0.179453        -4.8832
 177   2.0000      -0.071247        -1.9387
 178   2.0000      -0.056637        -1.5412
 179   0.0000       0.029385         0.7996
 180   0.0000       0.068592         1.8665
 181   0.0000       0.092246         2.5101
 182   0.0000       0.103705         2.8220
 183   0.0000       0.118988         3.2378

MULLIKEN ATOMIC CHARGES
-----------------------
   0 C :    0.206364
   1 N :   -0.451091
   2 C :   -0.062558
   3 N :   -0.335972
   4 C :   -0.051025
   5 N :   -0.562820
   6 C :   -0.097569
   7 N :   -0.339244
   8 C :    0.206009
   9 N :   -0.562673
  10 C :    0.117323
  11 N :   -0.437930
  12 C :   -0.081796
  13 N :   -0.433956
  14 C :    0.242718
  15 N :   -0.440952
  16 C :    0.228514
  17 C :   -0.104325
  18 C :   -0.210480
  19 C :    0.236136
  20 C :    0.211418
  21 C :   -0.095225
  22 C :   -0.089838
  23 C :   -0.043068
  24 C :    0.198362
  25 C :    0.114274
  26 C :   -0.073799
  27 C :    0.215132
  28 C :   -0.058124
  29 C :   -0.181420
  30 C :    0.241784
  31 C :    0.222107
  32 C :   -0.063318
  33 C :   -0.069382
  34 C :   -0.050583
  35 C :    0.217957
  36 C :    0.110742
  37 C :   -0.065433
  38 C :    0.233677
  39 C :   -0.059254
  40 C :   -0.184598
  41 C :    0.223993
  42 C :    0.199558
  43 C :   -0.072711
  44 C :   -0.089529
  45 C :   -0.057770
  46 C :    0.208210
  47 C :    0.115482
  48 C :   -0.069940
  49 C :    0.233719
  50 C :   -0.049077
  51 C :   -0.190105
  52 H :    0.044750
  53 H :   -0.015447
  54 H :    0.052398
  55 H :    0.043303
  56 H :    0.052352
  57 H :    0.050936
  58 H :    0.050049
  59 H :   -0.002286
  60 H :    0.047102
  61 H :    0.171766
  62 H :    0.174375
  63 H :    0.055859
  64 H :   -0.009982
  65 H :    0.047478
  66 H :    0.056661
  67 H :    0.062544
  68 H :    0.057732
  69 H :    0.057397
  70 H :   -0.027231
  71 H :    0.045941
  72 H :    0.065066
  73 H :   -0.010458
  74 H :    0.054609
  75 H :    0.064301
  76 H :    0.069427
  77 H :    0.063820
  78 H :    0.063084
  79 H :   -0.015394
  80 H :    0.055314
  81 H :    0.053774
  82 H :   -0.024153
  83 H :    0.042458
  84 H :    0.053817
  85 H :    0.060147
  86 H :    0.055850
  87 H :    0.056875
  88 H :   -0.017278
  89 H :    0.045129
Sum of atomic charges:   -0.0000000

LOEWDIN ATOMIC CHARGES
----------------------
   0 C :   -0.016622
   1 N :    0.121677
   2 C :   -0.100666
   3 N :    0.182193
   4 C :    0.006866
   5 N :   -0.134233
   6 C :   -0.032463
   7 N :    0.176619
   8 C :   -0.017663
   9 N :   -0.139984
  10 C :    0.025176
  11 N :    0.143166
  12 C :   -0.107404
  13 N :    0.155750
  14 C :   -0.035193
  15 N :    0.138564
  16 C :   -0.055085
  17 C :   -0.037490
  18 C :   -0.103520
  19 C :   -0.084413
  20 C :    0.003109
  21 C :   -0.113944
  22 C :    0.038771
  23 C :   -0.016519
  24 C :   -0.008070
  25 C :    0.030089
  26 C :   -0.105149
  27 C :   -0.108509
  28 C :   -0.025055
  29 C :   -0.102764
  30 C :   -0.036324
  31 C :    0.014732
  32 C :   -0.096572
  33 C :    0.064153
  34 C :   -0.016992
  35 C :    0.011315
  36 C :    0.032881
  37 C :   -0.097241
  38 C :   -0.047718
  39 C :   -0.020776
  40 C :   -0.108415
  41 C :   -0.092162
  42 C :   -0.008741
  43 C :   -0.101297
  44 C :    0.033196
  45 C :   -0.025748
  46 C :   -0.001059
  47 C :    0.029396
  48 C :   -0.098514
  49 C :   -0.077641
  50 C :   -0.020817
  51 C :   -0.108362
  52 H :    0.025603
  53 H :    0.003641
  54 H :    0.043049
  55 H :    0.025214
  56 H :    0.023156
  57 H :    0.027891
  58 H :    0.028175
  59 H :    0.007720
  60 H :    0.040398
  61 H :    0.060226
  62 H :    0.061295
  63 H :    0.030882
  64 H :    0.002915
  65 H :    0.045844
  66 H :    0.029851
  67 H :    0.028323
  68 H :    0.031851
  69 H :    0.030741
  70 H :   -0.003321
  71 H :    0.044141
  72 H :    0.034783
  73 H :    0.005931
  74 H :    0.048249
  75 H :    0.034265
  76 H :    0.031950
  77 H :    0.034218
  78 H :    0.033895
  79 H :    0.003558
  80 H :    0.048108
  81 H :    0.028906
  82 H :   -0.002317
  83 H :    0.042940
  84 H :    0.029602
  85 H :    0.027042
  86 H :    0.030293
  87 H :    0.031244
  88 H :    0.001052
  89 H :    0.044159

  Mayer bond orders larger than 0.100000
B(  0-C ,  1-N ) :   1.0982 B(  0-C , 17-C ) :   1.6803 B(  0-C , 52-H ) :   0.9687
B(  1-N ,  8-C ) :   1.0930 B(  1-N , 10-C ) :   0.9732 B(  2-C , 12-C ) :   1.5201
B(  2-C , 16-C ) :   1.3439 B(  2-C , 53-H ) :   0.9765 B(  3-N , 14-C ) :   1.2141
B(  3-N , 16-C ) :   1.1928 B(  3-N , 61-H ) :   0.8989 B(  4-C ,  6-C ) :   1.2258
B(  4-C , 17-C ) :   1.2277 B(  4-C , 18-C ) :   1.3814 B(  5-N , 19-C ) :   1.4418
B(  5-N , 27-C ) :   1.3875 B(  6-C ,  8-C ) :   1.6852 B(  6-C , 54-H ) :   0.9655
B(  7-N , 30-C ) :   1.1953 B(  7-N , 38-C ) :   1.1950 B(  7-N , 62-H ) :   0.8974
B(  8-C , 55-H ) :   0.9688 B(  9-N , 41-C ) :   1.3995 B(  9-N , 49-C ) :   1.4217
B( 10-C , 56-H ) :   0.9766 B( 10-C , 57-H ) :   0.9820 B( 10-C , 58-H ) :   0.9841
B( 11-N , 20-C ) :   1.1288 B( 11-N , 24-C ) :   1.1131 B( 11-N , 25-C ) :   0.9593
B( 12-C , 14-C ) :   1.3453 B( 12-C , 59-H ) :   0.9745 B( 13-N , 31-C ) :   1.1452
B( 13-N , 35-C ) :   1.1410 B( 13-N , 36-C ) :   0.9492 B( 14-C , 18-C ) :   1.1527
B( 15-N , 42-C ) :   1.1106 B( 15-N , 46-C ) :   1.1199 B( 15-N , 47-C ) :   0.9618
B( 16-C , 51-C ) :   1.1813 B( 17-C , 60-H ) :   0.9671 B( 18-C , 19-C ) :   1.1618
B( 19-C , 21-C ) :   1.2313 B( 20-C , 28-C ) :   1.6262 B( 20-C , 63-H ) :   0.9703
B( 21-C , 26-C ) :   1.6253 B( 21-C , 64-H ) :   0.9699 B( 22-C , 23-C ) :   1.2879
B( 22-C , 28-C ) :   1.2682 B( 22-C , 29-C ) :   1.2240 B( 23-C , 24-C ) :   1.6189
B( 23-C , 65-H ) :   0.9705 B( 24-C , 66-H ) :   0.9693 B( 25-C , 67-H ) :   0.9761
B( 25-C , 68-H ) :   0.9828 B( 25-C , 69-H ) :   0.9822 B( 26-C , 27-C ) :   1.2280
B( 26-C , 70-H ) :   0.9720 B( 27-C , 29-C ) :   1.2221 B( 28-C , 71-H ) :   0.9717
B( 29-C , 30-C ) :   1.2285 B( 30-C , 32-C ) :   1.2949 B( 31-C , 39-C ) :   1.6063
B( 31-C , 72-H ) :   0.9688 B( 32-C , 37-C ) :   1.5637 B( 32-C , 73-H ) :   0.9783
B( 33-C , 34-C ) :   1.2937 B( 33-C , 39-C ) :   1.2884 B( 33-C , 40-C ) :   1.2067
B( 34-C , 35-C ) :   1.6033 B( 34-C , 74-H ) :   0.9700 B( 35-C , 75-H ) :   0.9688
B( 36-C , 76-H ) :   0.9766 B( 36-C , 77-H ) :   0.9818 B( 36-C , 78-H ) :   0.9827
B( 37-C , 38-C ) :   1.2983 B( 37-C , 79-H ) :   0.9770 B( 38-C , 40-C ) :   1.2215
B( 39-C , 80-H ) :   0.9710 B( 40-C , 41-C ) :   1.2380 B( 41-C , 43-C ) :   1.1963
B( 42-C , 50-C ) :   1.6334 B( 42-C , 81-H ) :   0.9697 B( 43-C , 48-C ) :   1.6559
B( 43-C , 82-H ) :   0.9728 B( 44-C , 45-C ) :   1.2663 B( 44-C , 50-C ) :   1.2701
B( 44-C , 51-C ) :   1.2584 B( 45-C , 46-C ) :   1.6341 B( 45-C , 83-H ) :   0.9716
B( 46-C , 84-H ) :   0.9701 B( 47-C , 85-H ) :   0.9761 B( 47-C , 86-H ) :   0.9829
B( 47-C , 87-H ) :   0.9825 B( 48-C , 49-C ) :   1.1985 B( 48-C , 88-H ) :   0.9745
B( 49-C , 51-C ) :   1.2333 B( 50-C , 89-H ) :   0.9711

MP2 TOTAL ENERGY:    -2130.908514715 Eh
FINAL SINGLE POINT ENERGY     -2130.908514715029

DIPOLE MOMENT
-------------
                                X             Y             Z
Electronic contribution:      1.57810      -2.81999      -0.12483
Nuclear contribution   :     -0.04985       0.15175       0.15269
                        -----------------------------------------
Total Dipole Moment    :      1.52824      -2.66824       0.02786
                        -----------------------------------------
Magnitude (a.u.)       :      3.07503
Magnitude (Debye)      :      7.81610

Rotational constants in cm-1:     0.001501     0.001475     0.000761
Rotational constants in MHz :    44.986498    44.233510    22.820516

                             ****ORCA TERMINATED NORMALLY****
TOTAL RUN TIME: 0 days 1 hours 9 minutes 43 seconds 333 msec
