                         Program Version 5.0.4 -  RELEASE  -
|  1> ! PAL2
|  2> ! mp2 cc-pvdz TightSCF  NoKeepInts
|  3>
|  4> %scf
|  5>   MaxCore 2000
|  6> end
|  7> %mp2
|  8>   MaxCore 2000
|  9> end
| 10> * xyz 0 1
| 11>    C       -3.74600         5.98500         1.21200
| 12>    C        1.47400         4.04100         0.05700
| 13>    C       -2.80200         4.09300         0.04900
| 14>    C       -3.47900         4.52700        -1.10100
| 15>    C       -4.25800         5.66600        -1.05900
| 16>    C       -5.19700         7.61300         0.08900
| 17>    C        0.13200         4.30700         0.06100
| 18>    C       -0.56900         3.05600         0.04700
| 19>    C        1.64900         2.61800         0.02300
| 20>    C       -2.95100         4.85600         1.21800
| 21>    N       -4.38600         6.37600         0.08600
| 22>    N        0.38800         2.06700         0.02500
| 23>    N       -2.01000         0.39500        -0.07500
| 24>    N       -0.38800        -2.07400        -0.02700
| 25>    N        2.01000        -0.40100         0.06500
| 26>    C       -1.96000         2.86100         0.02400
| 27>    C       -2.62300         1.61500        -0.01800
| 28>    C       -5.57300        -4.32900         1.06600
| 29>    C       -4.07300         1.47100         0.05600
| 30>    C       -4.10600        -2.75600        -0.02600
| 31>    C       -4.99500        -2.75700        -1.11100
| 32>    C       -6.13200        -3.54200        -1.07600
| 33>    C       -7.65100        -5.11300         0.04000
| 34>    C       -4.32400         0.14100         0.03700
| 35>    C       -3.02500        -0.52000        -0.04800
| 36>    C       -4.42200        -3.56600         1.07500
| 37>    N       -6.40700        -4.31300         0.00100
| 38>    C       -2.86700        -1.92200        -0.04000
| 39>    C       -1.65000        -2.62400        -0.02700
| 40>    C        3.56800        -6.14200        -1.04000
| 41>    C       -1.47600        -4.04900        -0.03400
| 42>    C        2.80300        -4.09900        -0.00800
| 43>    C        3.65700        -4.38400         1.06900
| 44>    C        4.42700        -5.53000         1.05900
| 45>    C        5.24500        -7.58800         0.01400
| 46>    C       -0.13400        -4.31500        -0.02200
| 47>    C        0.56800        -3.06400        -0.02700
| 48>    C        2.77500        -5.01200        -1.07400
| 49>    N        4.37600        -6.39100         0.01700
| 50>    C        1.95900        -2.86900        -0.00900
| 51>    C        2.62100        -1.62200         0.00900
| 52>    C        5.54300         4.33900        -1.13000
| 53>    C        4.07000        -1.47900        -0.09400
| 54>    C        4.10400         2.75100        -0.02100
| 55>    C        5.02700         2.72900         1.03600
| 56>    C        6.16600         3.50900         0.97800
| 57>    C        7.61900         5.15300        -0.11500
| 58>    C        4.32100        -0.14800        -0.09200
| 59>    C        3.02500         0.51400         0.01500
| 60>    C        4.38700         3.58200        -1.11500
| 61>    C        2.86600         1.91600         0.01300
| 62>    N        6.41300         4.29600        -0.09500
| 63>    H       -3.89900         6.59600         2.09300
| 64>    H        2.27400         4.76600         0.08100
| 65>    H       -3.39700         3.98600        -2.03600
| 66>    H       -4.79200         6.04400        -1.92100
| 67>    H       -4.57300         8.44900        -0.23600
| 68>    H       -6.03700         7.48400        -0.59400
| 69>    H       -5.56300         7.79000         1.10000
| 70>    H       -0.33200         5.28200         0.06900
| 71>    H       -2.46500         4.56500         2.14200
| 72>    H        0.18200         1.07200         0.00500
| 73>    H       -0.18300        -1.08000        -0.02100
| 74>    H       -5.86400        -4.96200         1.89500
| 75>    H       -4.79400         2.27200         0.13900
| 76>    H       -4.80000        -2.16000        -1.99400
| 77>    H       -6.84100        -3.58200        -1.89300
| 78>    H       -8.42800        -4.53600         0.54600
| 79>    H       -7.95600        -5.33700        -0.98100
| 80>    H       -7.45600        -6.03700         0.58400
| 81>    H       -5.28700        -0.34400         0.10000
| 82>    H       -3.78000        -3.60100         1.94700
| 83>    H        3.58700        -6.86800        -1.84300
| 84>    H       -2.27600        -4.77400        -0.05000
| 85>    H        3.71400        -3.72400         1.92600
| 86>    H        5.09200        -5.79500         1.87100
| 87>    H        6.20500        -7.32900        -0.43900
| 88>    H        5.39300        -7.91700         1.04200
| 89>    H        4.75900        -8.37300        -0.56400
| 90>    H        0.32900        -5.29000        -0.00800
| 91>    H        2.14600        -4.84200        -1.94000
| 92>    H        5.80800         4.98600        -1.95600
| 93>    H        4.78800        -2.28100        -0.18500
| 94>    H        4.86000         2.11400         1.91200
| 95>    H        6.90100         3.53100         1.77200
| 96>    H        7.38300         6.10900         0.35600
| 97>    H        8.41400         4.65200         0.43500
| 98>    H        7.92100         5.31000        -1.15000
| 99>    H        5.28300         0.33600        -0.17900
|100>    H        3.72000         3.63200        -1.96700
|101> *
|102>
|103>                          ****END OF INPUT****

CARTESIAN COORDINATES (ANGSTROEM)
---------------------------------
  C     -3.746000    5.985000    1.212000
  C      1.474000    4.041000    0.057000
  C     -2.802000    4.093000    0.049000
  C     -3.479000    4.527000   -1.101000
  C     -4.258000    5.666000   -1.059000
  C     -5.197000    7.613000    0.089000
  C      0.132000    4.307000    0.061000
  C     -0.569000    3.056000    0.047000
  C      1.649000    2.618000    0.023000
  C     -2.951000    4.856000    1.218000
  N     -4.386000    6.376000    0.086000
  N      0.388000    2.067000    0.025000
  N     -2.010000    0.395000   -0.075000
  N     -0.388000   -2.074000   -0.027000
  N      2.010000   -0.401000    0.065000
  C     -1.960000    2.861000    0.024000
  C     -2.623000    1.615000   -0.018000
  C     -5.573000   -4.329000    1.066000
  C     -4.073000    1.471000    0.056000
  C     -4.106000   -2.756000   -0.026000
  C     -4.995000   -2.757000   -1.111000
  C     -6.132000   -3.542000   -1.076000
  C     -7.651000   -5.113000    0.040000
  C     -4.324000    0.141000    0.037000
  C     -3.025000   -0.520000   -0.048000
  C     -4.422000   -3.566000    1.075000
  N     -6.407000   -4.313000    0.001000
  C     -2.867000   -1.922000   -0.040000
  C     -1.650000   -2.624000   -0.027000
  C      3.568000   -6.142000   -1.040000
  C     -1.476000   -4.049000   -0.034000
  C      2.803000   -4.099000   -0.008000
  C      3.657000   -4.384000    1.069000
  C      4.427000   -5.530000    1.059000
  C      5.245000   -7.588000    0.014000
  C     -0.134000   -4.315000   -0.022000
  C      0.568000   -3.064000   -0.027000
  C      2.775000   -5.012000   -1.074000
  N      4.376000   -6.391000    0.017000
  C      1.959000   -2.869000   -0.009000
  C      2.621000   -1.622000    0.009000
  C      5.543000    4.339000   -1.130000
  C      4.070000   -1.479000   -0.094000
  C      4.104000    2.751000   -0.021000
  C      5.027000    2.729000    1.036000
  C      6.166000    3.509000    0.978000
  C      7.619000    5.153000   -0.115000
  C      4.321000   -0.148000   -0.092000
  C      3.025000    0.514000    0.015000
  C      4.387000    3.582000   -1.115000
  C      2.866000    1.916000    0.013000
  N      6.413000    4.296000   -0.095000
  H     -3.899000    6.596000    2.093000
  H      2.274000    4.766000    0.081000
  H     -3.397000    3.986000   -2.036000
  H     -4.792000    6.044000   -1.921000
  H     -4.573000    8.449000   -0.236000
  H     -6.037000    7.484000   -0.594000
  H     -5.563000    7.790000    1.100000
  H     -0.332000    5.282000    0.069000
  H     -2.465000    4.565000    2.142000
  H      0.182000    1.072000    0.005000
  H     -0.183000   -1.080000   -0.021000
  H     -5.864000   -4.962000    1.895000
  H     -4.794000    2.272000    0.139000
  H     -4.800000   -2.160000   -1.994000
  H     -6.841000   -3.582000   -1.893000
  H     -8.428000   -4.536000    0.546000
  H     -7.956000   -5.337000   -0.981000
  H     -7.456000   -6.037000    0.584000
  H     -5.287000   -0.344000    0.100000
  H     -3.780000   -3.601000    1.947000
  H      3.587000   -6.868000   -1.843000
  H     -2.276000   -4.774000   -0.050000
  H      3.714000   -3.724000    1.926000
  H      5.092000   -5.795000    1.871000
  H      6.205000   -7.329000   -0.439000
  H      5.393000   -7.917000    1.042000
  H      4.759000   -8.373000   -0.564000
  H      0.329000   -5.290000   -0.008000
  H      2.146000   -4.842000   -1.940000
  H      5.808000    4.986000   -1.956000
  H      4.788000   -2.281000   -0.185000
  H      4.860000    2.114000    1.912000
  H      6.901000    3.531000    1.772000
  H      7.383000    6.109000    0.356000
  H      8.414000    4.652000    0.435000
  H      7.921000    5.310000   -1.150000
  H      5.283000    0.336000   -0.179000
  H      3.720000    3.632000   -1.967000

 Total Charge           Charge          ....    0
 Multiplicity           Mult            ....    1
 Number of Electrons    NEL             ....  358
 Basis Dimension        Dim             ....  918

ORBITAL ENERGIES
----------------

  NO   OCC          E(Eh)            E(eV)
   0   2.0000     -15.672587      -426.4728
   1   2.0000     -15.636783      -425.4985
   2   2.0000     -15.625059      -425.1795
   3   2.0000     -15.603412      -424.5904
   4   2.0000     -15.517433      -422.2508
   5   2.0000     -15.510798      -422.0703
   6   2.0000     -15.447598      -420.3505
   7   2.0000     -15.434218      -419.9864
   8   2.0000     -11.322565      -308.1026
   9   2.0000     -11.321066      -308.0619
  10   2.0000     -11.320427      -308.0445
  11   2.0000     -11.301163      -307.5203
  12   2.0000     -11.295028      -307.3533
  13   2.0000     -11.293531      -307.3126
  14   2.0000     -11.289671      -307.2076
  15   2.0000     -11.284660      -307.0712
  16   2.0000     -11.280213      -306.9502
  17   2.0000     -11.279493      -306.9306
  18   2.0000     -11.271914      -306.7244
  19   2.0000     -11.265863      -306.5597
  20   2.0000     -11.262530      -306.4690
  21   2.0000     -11.256764      -306.3121
  22   2.0000     -11.256474      -306.3042
  23   2.0000     -11.240167      -305.8605
  24   2.0000     -11.232438      -305.6502
  25   2.0000     -11.231633      -305.6283
  26   2.0000     -11.229184      -305.5616
  27   2.0000     -11.223423      -305.4049
  28   2.0000     -11.223266      -305.4006
  29   2.0000     -11.209522      -305.0266
  30   2.0000     -11.207992      -304.9850
  31   2.0000     -11.207185      -304.9630
  32   2.0000     -11.201906      -304.8194
  33   2.0000     -11.201751      -304.8151
  34   2.0000     -11.189110      -304.4712
  35   2.0000     -11.189065      -304.4699
  36   2.0000     -11.182804      -304.2996
  37   2.0000     -11.182639      -304.2951
  38   2.0000     -11.180485      -304.2365
  39   2.0000     -11.168527      -303.9111
  40   2.0000     -11.165113      -303.8182
  41   2.0000     -11.163057      -303.7622
  42   2.0000     -11.158467      -303.6373
  43   2.0000     -11.156191      -303.5754
  44   2.0000     -11.156107      -303.5731
  45   2.0000     -11.155678      -303.5614
  46   2.0000     -11.152444      -303.4734
  47   2.0000     -11.152116      -303.4645
  48   2.0000     -11.149534      -303.3942
  49   2.0000     -11.143596      -303.2327
  50   2.0000     -11.127478      -302.7941
  51   2.0000     -11.124650      -302.7171
  52   2.0000      -1.353166       -36.8215
  53   2.0000      -1.323646       -36.0182
  54   2.0000      -1.313179       -35.7334
  55   2.0000      -1.294975       -35.2381
  56   2.0000      -1.218134       -33.1471
  57   2.0000      -1.207751       -32.8646
  58   2.0000      -1.167971       -31.7821
  59   2.0000      -1.146356       -31.1939
  60   2.0000      -1.135913       -30.9098
  61   2.0000      -1.111590       -30.2479
  62   2.0000      -1.102400       -29.9978
  63   2.0000      -1.086249       -29.5583
  64   2.0000      -1.074801       -29.2468
  65   2.0000      -1.047543       -28.5051
  66   2.0000      -1.037766       -28.2391
  67   2.0000      -1.034316       -28.1452
  68   2.0000      -1.020902       -27.7802
  69   2.0000      -1.013430       -27.5768
  70   2.0000      -1.005909       -27.3722
  71   2.0000      -0.990523       -26.9535
  72   2.0000      -0.983572       -26.7643
  73   2.0000      -0.975735       -26.5511
  74   2.0000      -0.970612       -26.4117
  75   2.0000      -0.959552       -26.1107
  76   2.0000      -0.950344       -25.8602
  77   2.0000      -0.946446       -25.7541
  78   2.0000      -0.928586       -25.2681
  79   2.0000      -0.919949       -25.0331
  80   2.0000      -0.901862       -24.5409
  81   2.0000      -0.888611       -24.1803
  82   2.0000      -0.874853       -23.8060
  83   2.0000      -0.867134       -23.5959
  84   2.0000      -0.864691       -23.5294
  85   2.0000      -0.853224       -23.2174
  86   2.0000      -0.846904       -23.0454
  87   2.0000      -0.833423       -22.6786
  88   2.0000      -0.822329       -22.3767
  89   2.0000      -0.796448       -21.6724
  90   2.0000      -0.793625       -21.5956
  91   2.0000      -0.747244       -20.3335
  92   2.0000      -0.733624       -19.9629
  93   2.0000      -0.726773       -19.7765
  94   2.0000      -0.722073       -19.6486
  95   2.0000      -0.716293       -19.4913
  96   2.0000      -0.709943       -19.3185
  97   2.0000      -0.706154       -19.2154
  98   2.0000      -0.701452       -19.0875
  99   2.0000      -0.694108       -18.8876
 100   2.0000      -0.693214       -18.8633
 101   2.0000      -0.682820       -18.5805
 102   2.0000      -0.678711       -18.4687
 103   2.0000      -0.677797       -18.4438
 104   2.0000      -0.672225       -18.2922
 105   2.0000      -0.668769       -18.1981
 106   2.0000      -0.665318       -18.1042
 107   2.0000      -0.657193       -17.8831
 108   2.0000      -0.655079       -17.8256
 109   2.0000      -0.653020       -17.7696
 110   2.0000      -0.648946       -17.6587
 111   2.0000      -0.646833       -17.6012
 112   2.0000      -0.640702       -17.4344
 113   2.0000      -0.639341       -17.3974
 114   2.0000      -0.634559       -17.2672
 115   2.0000      -0.631161       -17.1748
 116   2.0000      -0.622271       -16.9328
 117   2.0000      -0.616007       -16.7624
 118   2.0000      -0.613974       -16.7071
 119   2.0000      -0.609333       -16.5808
 120   2.0000      -0.605596       -16.4791
 121   2.0000      -0.605192       -16.4681
 122   2.0000      -0.596258       -16.2250
 123   2.0000      -0.590226       -16.0609
 124   2.0000      -0.589588       -16.0435
 125   2.0000      -0.583185       -15.8693
 126   2.0000      -0.575897       -15.6710
 127   2.0000      -0.572997       -15.5920
 128   2.0000      -0.565829       -15.3970
 129   2.0000      -0.561573       -15.2812
 130   2.0000      -0.557513       -15.1707
 131   2.0000      -0.547614       -14.9013
 132   2.0000      -0.539733       -14.6869
 133   2.0000      -0.539117       -14.6701
 134   2.0000      -0.534311       -14.5393
 135   2.0000      -0.531747       -14.4696
 136   2.0000      -0.522253       -14.2112
 137   2.0000      -0.519874       -14.1465
 138   2.0000      -0.515674       -14.0322
 139   2.0000      -0.512701       -13.9513
 140   2.0000      -0.510166       -13.8823
 141   2.0000      -0.507734       -13.8161
 142   2.0000      -0.502324       -13.6689
 143   2.0000      -0.499582       -13.5943
 144   2.0000      -0.496404       -13.5078
 145   2.0000      -0.495705       -13.4888
 146   2.0000      -0.493344       -13.4246
 147   2.0000      -0.487416       -13.2633
 148   2.0000      -0.483630       -13.1602
 149   2.0000      -0.465001       -12.6533
 150   2.0000      -0.461907       -12.5691
 151   2.0000      -0.454925       -12.3791
 152   2.0000      -0.449008       -12.2181
 153   2.0000      -0.442122       -12.0307
 154   2.0000      -0.439976       -11.9724
 155   2.0000      -0.438796       -11.9402
 156   2.0000      -0.428896       -11.6709
 157   2.0000      -0.421836       -11.4787
 158   2.0000      -0.397550       -10.8179
 159   2.0000      -0.384542       -10.4639
 160   2.0000      -0.381288       -10.3754
 161   2.0000      -0.373019       -10.1504
 162   2.0000      -0.362892        -9.8748
 163   2.0000      -0.358239        -9.7482
 164   2.0000      -0.349831        -9.5194
 165   2.0000      -0.338920        -9.2225
 166   2.0000      -0.336273        -9.1504
 167   2.0000      -0.335482        -9.1289
 168   2.0000      -0.319965        -8.7067
 169   2.0000      -0.299496        -8.1497
 170   2.0000      -0.296757        -8.0752
 171   2.0000      -0.285754        -7.7758
 172   2.0000      -0.283738        -7.7209
 173   2.0000      -0.260386        -7.0855
 174   2.0000      -0.238515        -6.4903
 175   2.0000      -0.185461        -5.0467
 176   2.0000      -0.175183        -4.7670
 177   2.0000      -0.062476        -1.7001
 178   2.0000      -0.052065        -1.4168
 179   0.0000       0.033485         0.9112
 180   0.0000       0.064501         1.7552
 181   0.0000       0.091986         2.5031
 182   0.0000       0.096320         2.6210
 183   0.0000       0.112907         3.0724

MULLIKEN ATOMIC CHARGES
-----------------------
   0 C :    0.219684
   1 N :   -0.427421
   2 C :   -0.067415
   3 N :   -0.341516
   4 C :   -0.084218
   5 N :   -0.564115
   6 C :   -0.035532
   7 N :   -0.337355
   8 C :    0.218741
   9 N :   -0.564615
  10 C :    0.108663
  11 N :   -0.438106
  12 C :   -0.060512
  13 N :   -0.446462
  14 C :    0.225260
  15 N :   -0.440834
  16 C :    0.247660
  17 C :   -0.037753
  18 C :   -0.181014
  19 C :    0.225953
  20 C :    0.198090
  21 C :   -0.067510
  22 C :   -0.086710
  23 C :   -0.059430
  24 C :    0.214483
  25 C :    0.114028
  26 C :   -0.070815
  27 C :    0.237149
  28 C :   -0.044451
  29 C :   -0.192192
  30 C :    0.227078
  31 C :    0.197290
  32 C :   -0.065331
  33 C :   -0.094315
  34 C :   -0.050029
  35 C :    0.188538
  36 C :    0.118216
  37 C :   -0.068648
  38 C :    0.241611
  39 C :   -0.063967
  40 C :   -0.197581
  41 C :    0.217451
  42 C :    0.209076
  43 C :   -0.075691
  44 C :   -0.089330
  45 C :   -0.044360
  46 C :    0.193514
  47 C :    0.116024
  48 C :   -0.079929
  49 C :    0.215313
  50 C :   -0.060618
  51 C :   -0.189855
  52 H :    0.069312
  53 H :   -0.010791
  54 H :    0.054934
  55 H :    0.067549
  56 H :    0.072619
  57 H :    0.066913
  58 H :    0.066060
  59 H :   -0.023012
  60 H :    0.056393
  61 H :    0.175083
  62 H :    0.170129
  63 H :    0.055483
  64 H :   -0.028880
  65 H :    0.043959
  66 H :    0.057027
  67 H :    0.061179
  68 H :    0.057466
  69 H :    0.059599
  70 H :   -0.019088
  71 H :    0.048321
  72 H :    0.045185
  73 H :   -0.017698
  74 H :    0.036463
  75 H :    0.043994
  76 H :    0.052582
  77 H :    0.050949
  78 H :    0.050144
  79 H :   -0.012332
  80 H :    0.036388
  81 H :    0.052345
  82 H :   -0.023369
  83 H :    0.043386
  84 H :    0.051489
  85 H :    0.056782
  86 H :    0.056680
  87 H :    0.055797
  88 H :   -0.027601
  89 H :    0.042370
Sum of atomic charges:   -0.0000000

LOEWDIN ATOMIC CHARGES
----------------------
   0 C :    0.017983
   1 N :    0.165655
   2 C :   -0.100568
   3 N :    0.173783
   4 C :    0.076276
   5 N :   -0.143469
   6 C :   -0.014424
   7 N :    0.177490
   8 C :    0.017718
   9 N :   -0.138453
  10 C :    0.034363
  11 N :    0.143318
  12 C :   -0.098221
  13 N :    0.124956
  14 C :   -0.055463
  15 N :    0.137323
  16 C :   -0.029617
  17 C :   -0.015179
  18 C :   -0.114397
  19 C :   -0.089620
  20 C :   -0.008524
  21 C :   -0.100571
  22 C :    0.041307
  23 C :   -0.027816
  24 C :    0.006099
  25 C :    0.030141
  26 C :   -0.098968
  27 C :   -0.071936
  28 C :   -0.016693
  29 C :   -0.113695
  30 C :   -0.057475
  31 C :   -0.015111
  32 C :   -0.100360
  33 C :    0.012562
  34 C :   -0.023725
  35 C :   -0.022811
  36 C :    0.025780
  37 C :   -0.105904
  38 C :   -0.033881
  39 C :   -0.030827
  40 C :   -0.111245
  41 C :   -0.094544
  42 C :   -0.000948
  43 C :   -0.110257
  44 C :    0.032593
  45 C :   -0.017476
  46 C :   -0.014467
  47 C :    0.028857
  48 C :   -0.111759
  49 C :   -0.105946
  50 C :   -0.028414
  51 C :   -0.109182
  52 H :    0.036131
  53 H :    0.005870
  54 H :    0.049857
  55 H :    0.035880
  56 H :    0.033574
  57 H :    0.035314
  58 H :    0.035693
  59 H :    0.001479
  60 H :    0.050320
  61 H :    0.061623
  62 H :    0.058997
  63 H :    0.030212
  64 H :   -0.003142
  65 H :    0.043538
  66 H :    0.030666
  67 H :    0.027787
  68 H :    0.031714
  69 H :    0.031631
  70 H :    0.000410
  71 H :    0.045930
  72 H :    0.025561
  73 H :    0.002494
  74 H :    0.040677
  75 H :    0.024657
  76 H :    0.023274
  77 H :    0.028185
  78 H :    0.027851
  79 H :    0.005204
  80 H :    0.039893
  81 H :    0.028680
  82 H :   -0.001632
  83 H :    0.044100
  84 H :    0.028036
  85 H :    0.025499
  86 H :    0.030553
  87 H :    0.030720
  88 H :   -0.003869
  89 H :    0.042372

  Mayer bond orders larger than 0.100000
B(  0-C ,  1-N ) :   1.1567 B(  0-C , 17-C ) :   1.5784 B(  0-C , 52-H ) :   0.9681
B(  1-N ,  8-C ) :   1.1552 B(  1-N , 10-C ) :   0.9443 B(  2-C , 12-C ) :   1.5579
B(  2-C , 16-C ) :   1.2966 B(  2-C , 53-H ) :   0.9787 B(  3-N , 14-C ) :   1.1862
B(  3-N , 16-C ) :   1.2003 B(  3-N , 61-H ) :   0.8969 B(  4-C ,  6-C ) :   1.3154
B(  4-C , 17-C ) :   1.3133 B(  4-C , 18-C ) :   1.1458 B(  5-N , 19-C ) :   1.3867
B(  5-N , 27-C ) :   1.4316 B(  6-C ,  8-C ) :   1.5763 B(  6-C , 54-H ) :   0.9711
B(  7-N , 30-C ) :   1.1877 B(  7-N , 38-C ) :   1.2098 B(  7-N , 62-H ) :   0.8999
B(  8-C , 55-H ) :   0.9693 B(  9-N , 41-C ) :   1.4222 B(  9-N , 49-C ) :   1.4044
B( 10-C , 56-H ) :   0.9763 B( 10-C , 57-H ) :   0.9816 B( 10-C , 58-H ) :   0.9823
B( 11-N , 20-C ) :   1.1120 B( 11-N , 24-C ) :   1.1330 B( 11-N , 25-C ) :   0.9590
B( 12-C , 14-C ) :   1.2977 B( 12-C , 59-H ) :   0.9779 B( 13-N , 31-C ) :   1.0999
B( 13-N , 35-C ) :   1.0904 B( 13-N , 36-C ) :   0.9726 B( 14-C , 18-C ) :   1.2358
B( 15-N , 42-C ) :   1.1230 B( 15-N , 46-C ) :   1.1027 B( 15-N , 47-C ) :   0.9638
B( 16-C , 51-C ) :   1.2252 B( 17-C , 60-H ) :   0.9714 B( 18-C , 19-C ) :   1.2686
B( 19-C , 21-C ) :   1.1873 B( 20-C , 28-C ) :   1.6233 B( 20-C , 63-H ) :   0.9705
B( 21-C , 26-C ) :   1.6612 B( 21-C , 64-H ) :   0.9735 B( 22-C , 23-C ) :   1.2700
B( 22-C , 28-C ) :   1.2803 B( 22-C , 29-C ) :   1.2424 B( 23-C , 24-C ) :   1.6245
B( 23-C , 65-H ) :   0.9716 B( 24-C , 66-H ) :   0.9690 B( 25-C , 67-H ) :   0.9763
B( 25-C , 68-H ) :   0.9831 B( 25-C , 69-H ) :   0.9819 B( 26-C , 27-C ) :   1.1904
B( 26-C , 70-H ) :   0.9745 B( 27-C , 29-C ) :   1.2332 B( 28-C , 71-H ) :   0.9711
B( 29-C , 30-C ) :   1.1939 B( 30-C , 32-C ) :   1.3321 B( 31-C , 39-C ) :   1.6608
B( 31-C , 72-H ) :   0.9704 B( 32-C , 37-C ) :   1.5266 B( 32-C , 73-H ) :   0.9773
B( 33-C , 34-C ) :   1.2514 B( 33-C , 39-C ) :   1.2435 B( 33-C , 40-C ) :   1.3081
B( 34-C , 35-C ) :   1.6586 B( 34-C , 74-H ) :   0.9708 B( 35-C , 75-H ) :   0.9704
B( 36-C , 76-H ) :   0.9758 B( 36-C , 77-H ) :   0.9824 B( 36-C , 78-H ) :   0.9835
B( 37-C , 38-C ) :   1.3300 B( 37-C , 79-H ) :   0.9786 B( 38-C , 40-C ) :   1.1927
B( 39-C , 80-H ) :   0.9719 B( 40-C , 41-C ) :   1.1898 B( 41-C , 43-C ) :   1.2389
B( 42-C , 50-C ) :   1.6365 B( 42-C , 81-H ) :   0.9696 B( 43-C , 48-C ) :   1.6122
B( 43-C , 82-H ) :   0.9747 B( 44-C , 45-C ) :   1.2773 B( 44-C , 50-C ) :   1.2588
B( 44-C , 51-C ) :   1.2511 B( 45-C , 46-C ) :   1.6312 B( 45-C , 83-H ) :   0.9706
B( 46-C , 84-H ) :   0.9705 B( 47-C , 85-H ) :   0.9761 B( 47-C , 86-H ) :   0.9827
B( 47-C , 87-H ) :   0.9828 B( 48-C , 49-C ) :   1.2353 B( 48-C , 88-H ) :   0.9730
B( 49-C , 51-C ) :   1.2013 B( 50-C , 89-H ) :   0.9718

MP2 TOTAL ENERGY:    -2130.898615826 Eh
FINAL SINGLE POINT ENERGY     -2130.898615825899

DIPOLE MOMENT
-------------
                                X             Y             Z
Electronic contribution:     -2.65372       2.36852      -0.06059
Nuclear contribution   :      0.03921       0.21531       0.07880
                        -----------------------------------------
Total Dipole Moment    :     -2.61451       2.58382       0.01820
                        -----------------------------------------
Magnitude (a.u.)       :      3.67589
Magnitude (Debye)      :      9.34336

Rotational constants in cm-1:     0.001499     0.001472     0.000763
Rotational constants in MHz :    44.929136    44.132821    22.862611

                             ****ORCA TERMINATED NORMALLY****
TOTAL RUN TIME: 0 days 1 hours 13 minutes 37 seconds 50 msec
