                         Program Version 5.0.4 -  RELEASE  -
|  1> ! PAL2
|  2> ! mp2 cc-pvdz TightSCF  NoKeepInts
|  3>
|  4> %scf
|  5>   MaxCore 2000
|  6> end
|  7> %mp2
|  8>   MaxCore 2000
|  9> end
| 10> * xyz 0 1
| 11>    C       -3.23100         6.34500         0.80200
| 12>    C        1.47400         4.04100         0.05700
| 13>    C       -2.80200         4.09300         0.04900
| 14>    C       -4.00700         4.15800        -0.66800
| 15>    C       -4.77600         5.30300        -0.62900
| 16>    C       -5.21500         7.60100         0.09000
| 17>    C        0.13200         4.30700         0.06100
| 18>    C       -0.56900         3.05600         0.04700
| 19>    C        1.64900         2.61800         0.02300
| 20>    C       -2.42500         5.22400         0.79000
| 21>    N       -4.38700         6.37500         0.10000
| 22>    N        0.38800         2.06700         0.02500
| 23>    N       -2.01000         0.39500        -0.07500
| 24>    N       -0.38800        -2.07400        -0.02700
| 25>    N        2.01000        -0.40100         0.06500
| 26>    C       -1.96000         2.86100         0.02400
| 27>    C       -2.62300         1.61500        -0.01800
| 28>    C       -5.57300        -4.32900         1.06600
| 29>    C       -4.07300         1.47100         0.05600
| 30>    C       -4.10600        -2.75600        -0.02600
| 31>    C       -4.99500        -2.75700        -1.11100
| 32>    C       -6.13200        -3.54200        -1.07600
| 33>    C       -7.65100        -5.11300         0.04000
| 34>    C       -4.32400         0.14100         0.03700
| 35>    C       -3.02500        -0.52000        -0.04800
| 36>    C       -4.42200        -3.56600         1.07500
| 37>    N       -6.40700        -4.31300         0.00100
| 38>    C       -2.86700        -1.92200        -0.04000
| 39>    C       -1.65000        -2.62400        -0.02700
| 40>    C        3.56800        -6.14200        -1.04000
| 41>    C       -1.47600        -4.04900        -0.03400
| 42>    C        2.80300        -4.09900        -0.00800
| 43>    C        3.65700        -4.38400         1.06900
| 44>    C        4.42700        -5.53000         1.05900
| 45>    C        5.24500        -7.58800         0.01400
| 46>    C       -0.13400        -4.31500        -0.02200
| 47>    C        0.56800        -3.06400        -0.02700
| 48>    C        2.77500        -5.01200        -1.07400
| 49>    N        4.37600        -6.39100         0.01700
| 50>    C        1.95900        -2.86900        -0.00900
| 51>    C        2.62100        -1.62200         0.00900
| 52>    C        5.54300         4.33900        -1.13000
| 53>    C        4.07000        -1.47900        -0.09400
| 54>    C        4.10400         2.75100        -0.02100
| 55>    C        5.02700         2.72900         1.03600
| 56>    C        6.16600         3.50900         0.97800
| 57>    C        7.61900         5.15300        -0.11500
| 58>    C        4.32100        -0.14800        -0.09200
| 59>    C        3.02500         0.51400         0.01500
| 60>    C        4.38700         3.58200        -1.11500
| 61>    C        2.86600         1.91600         0.01300
| 62>    N        6.41300         4.29600        -0.09500
| 63>    H       -2.98600         7.23500         1.36900
| 64>    H        2.27400         4.76600         0.08100
| 65>    H       -4.34700         3.32100        -1.26600
| 66>    H       -5.70700         5.40300        -1.17200
| 67>    H       -4.93100         8.21500        -0.76800
| 68>    H       -6.26400         7.31600         0.01800
| 69>    H       -5.04000         8.15000         1.01600
| 70>    H       -0.33200         5.28200         0.06900
| 71>    H       -1.51300         5.23100         1.37600
| 72>    H        0.18200         1.07200         0.00500
| 73>    H       -0.18300        -1.08000        -0.02100
| 74>    H       -5.86400        -4.96200         1.89500
| 75>    H       -4.79400         2.27200         0.13900
| 76>    H       -4.80000        -2.16000        -1.99400
| 77>    H       -6.84100        -3.58200        -1.89300
| 78>    H       -8.42800        -4.53600         0.54600
| 79>    H       -7.95600        -5.33700        -0.98100
| 80>    H       -7.45600        -6.03700         0.58400
| 81>    H       -5.28700        -0.34400         0.10000
| 82>    H       -3.78000        -3.60100         1.94700
| 83>    H        3.58700        -6.86800        -1.84300
| 84>    H       -2.27600        -4.77400        -0.05000
| 85>    H        3.71400        -3.72400         1.92600
| 86>    H        5.09200        -5.79500         1.87100
| 87>    H        6.20500        -7.32900        -0.43900
| 88>    H        5.39300        -7.91700         1.04200
| 89>    H        4.75900        -8.37300        -0.56400
| 90>    H        0.32900        -5.29000        -0.00800
| 91>    H        2.14600        -4.84200        -1.94000
| 92>    H        5.80800         4.98600        -1.95600
| 93>    H        4.78800        -2.28100        -0.18500
| 94>    H        4.86000         2.11400         1.91200
| 95>    H        6.90100         3.53100         1.77200
| 96>    H        7.38300         6.10900         0.35600
| 97>    H        8.41400         4.65200         0.43500
| 98>    H        7.92100         5.31000        -1.15000
| 99>    H        5.28300         0.33600        -0.17900
|100>    H        3.72000         3.63200        -1.96700
|101> *
|102>
|103>                          ****END OF INPUT****

CARTESIAN COORDINATES (ANGSTROEM)
---------------------------------
  C     -3.231000    6.345000    0.802000
  C      1.474000    4.041000    0.057000
  C     -2.802000    4.093000    0.049000
  C     -4.007000    4.158000   -0.668000
  C     -4.776000    5.303000   -0.629000
  C     -5.215000    7.601000    0.090000
  C      0.132000    4.307000    0.061000
  C     -0.569000    3.056000    0.047000
  C      1.649000    2.618000    0.023000
  C     -2.425000    5.224000    0.790000
  N     -4.387000    6.375000    0.100000
  N      0.388000    2.067000    0.025000
  N     -2.010000    0.395000   -0.075000
  N     -0.388000   -2.074000   -0.027000
  N      2.010000   -0.401000    0.065000
  C     -1.960000    2.861000    0.024000
  C     -2.623000    1.615000   -0.018000
  C     -5.573000   -4.329000    1.066000
  C     -4.073000    1.471000    0.056000
  C     -4.106000   -2.756000   -0.026000
  C     -4.995000   -2.757000   -1.111000
  C     -6.132000   -3.542000   -1.076000
  C     -7.651000   -5.113000    0.040000
  C     -4.324000    0.141000    0.037000
  C     -3.025000   -0.520000   -0.048000
  C     -4.422000   -3.566000    1.075000
  N     -6.407000   -4.313000    0.001000
  C     -2.867000   -1.922000   -0.040000
  C     -1.650000   -2.624000   -0.027000
  C      3.568000   -6.142000   -1.040000
  C     -1.476000   -4.049000   -0.034000
  C      2.803000   -4.099000   -0.008000
  C      3.657000   -4.384000    1.069000
  C      4.427000   -5.530000    1.059000
  C      5.245000   -7.588000    0.014000
  C     -0.134000   -4.315000   -0.022000
  C      0.568000   -3.064000   -0.027000
  C      2.775000   -5.012000   -1.074000
  N      4.376000   -6.391000    0.017000
  C      1.959000   -2.869000   -0.009000
  C      2.621000   -1.622000    0.009000
  C      5.543000    4.339000   -1.130000
  C      4.070000   -1.479000   -0.094000
  C      4.104000    2.751000   -0.021000
  C      5.027000    2.729000    1.036000
  C      6.166000    3.509000    0.978000
  C      7.619000    5.153000   -0.115000
  C      4.321000   -0.148000   -0.092000
  C      3.025000    0.514000    0.015000
  C      4.387000    3.582000   -1.115000
  C      2.866000    1.916000    0.013000
  N      6.413000    4.296000   -0.095000
  H     -2.986000    7.235000    1.369000
  H      2.274000    4.766000    0.081000
  H     -4.347000    3.321000   -1.266000
  H     -5.707000    5.403000   -1.172000
  H     -4.931000    8.215000   -0.768000
  H     -6.264000    7.316000    0.018000
  H     -5.040000    8.150000    1.016000
  H     -0.332000    5.282000    0.069000
  H     -1.513000    5.231000    1.376000
  H      0.182000    1.072000    0.005000
  H     -0.183000   -1.080000   -0.021000
  H     -5.864000   -4.962000    1.895000
  H     -4.794000    2.272000    0.139000
  H     -4.800000   -2.160000   -1.994000
  H     -6.841000   -3.582000   -1.893000
  H     -8.428000   -4.536000    0.546000
  H     -7.956000   -5.337000   -0.981000
  H     -7.456000   -6.037000    0.584000
  H     -5.287000   -0.344000    0.100000
  H     -3.780000   -3.601000    1.947000
  H      3.587000   -6.868000   -1.843000
  H     -2.276000   -4.774000   -0.050000
  H      3.714000   -3.724000    1.926000
  H      5.092000   -5.795000    1.871000
  H      6.205000   -7.329000   -0.439000
  H      5.393000   -7.917000    1.042000
  H      4.759000   -8.373000   -0.564000
  H      0.329000   -5.290000   -0.008000
  H      2.146000   -4.842000   -1.940000
  H      5.808000    4.986000   -1.956000
  H      4.788000   -2.281000   -0.185000
  H      4.860000    2.114000    1.912000
  H      6.901000    3.531000    1.772000
  H      7.383000    6.109000    0.356000
  H      8.414000    4.652000    0.435000
  H      7.921000    5.310000   -1.150000
  H      5.283000    0.336000   -0.179000
  H      3.720000    3.632000   -1.967000

 Total Charge           Charge          ....    0
 Multiplicity           Mult            ....    1
 Number of Electrons    NEL             ....  358
 Basis Dimension        Dim             ....  918

ORBITAL ENERGIES
----------------

  NO   OCC          E(Eh)            E(eV)
   0   2.0000     -15.668946      -426.3737
   1   2.0000     -15.637811      -425.5265
   2   2.0000     -15.628694      -425.2784
   3   2.0000     -15.593022      -424.3077
   4   2.0000     -15.524640      -422.4469
   5   2.0000     -15.515853      -422.2078
   6   2.0000     -15.450946      -420.4416
   7   2.0000     -15.443259      -420.2325
   8   2.0000     -11.321235      -308.0665
   9   2.0000     -11.320895      -308.0572
  10   2.0000     -11.318698      -307.9974
  11   2.0000     -11.301716      -307.5353
  12   2.0000     -11.296299      -307.3879
  13   2.0000     -11.295603      -307.3690
  14   2.0000     -11.290645      -307.2341
  15   2.0000     -11.287888      -307.1590
  16   2.0000     -11.284305      -307.0615
  17   2.0000     -11.274876      -306.8050
  18   2.0000     -11.271876      -306.7233
  19   2.0000     -11.259077      -306.3751
  20   2.0000     -11.256379      -306.3016
  21   2.0000     -11.255781      -306.2854
  22   2.0000     -11.254848      -306.2600
  23   2.0000     -11.241435      -305.8950
  24   2.0000     -11.234035      -305.6936
  25   2.0000     -11.233470      -305.6783
  26   2.0000     -11.233459      -305.6780
  27   2.0000     -11.227297      -305.5103
  28   2.0000     -11.227012      -305.5025
  29   2.0000     -11.209666      -305.0305
  30   2.0000     -11.208311      -304.9936
  31   2.0000     -11.203308      -304.8575
  32   2.0000     -11.197612      -304.7025
  33   2.0000     -11.197210      -304.6916
  34   2.0000     -11.189709      -304.4875
  35   2.0000     -11.189390      -304.4788
  36   2.0000     -11.186728      -304.4063
  37   2.0000     -11.182983      -304.3044
  38   2.0000     -11.182097      -304.2803
  39   2.0000     -11.174517      -304.0741
  40   2.0000     -11.171681      -303.9969
  41   2.0000     -11.168368      -303.9067
  42   2.0000     -11.167684      -303.8881
  43   2.0000     -11.162880      -303.7574
  44   2.0000     -11.161559      -303.7214
  45   2.0000     -11.159696      -303.6708
  46   2.0000     -11.156139      -303.5740
  47   2.0000     -11.151493      -303.4475
  48   2.0000     -11.148076      -303.3546
  49   2.0000     -11.142099      -303.1919
  50   2.0000     -11.135050      -303.0001
  51   2.0000     -11.127924      -302.8062
  52   2.0000      -1.351154       -36.7668
  53   2.0000      -1.324544       -36.0427
  54   2.0000      -1.316849       -35.8333
  55   2.0000      -1.287068       -35.0229
  56   2.0000      -1.225091       -33.3364
  57   2.0000      -1.210407       -32.9369
  58   2.0000      -1.169312       -31.8186
  59   2.0000      -1.153960       -31.4009
  60   2.0000      -1.135864       -30.9084
  61   2.0000      -1.112994       -30.2861
  62   2.0000      -1.106568       -30.1112
  63   2.0000      -1.082837       -29.4655
  64   2.0000      -1.073516       -29.2118
  65   2.0000      -1.048591       -28.5336
  66   2.0000      -1.041609       -28.3436
  67   2.0000      -1.036148       -28.1950
  68   2.0000      -1.015444       -27.6316
  69   2.0000      -1.014527       -27.6067
  70   2.0000      -1.009472       -27.4691
  71   2.0000      -0.992796       -27.0153
  72   2.0000      -0.987375       -26.8678
  73   2.0000      -0.978618       -26.6296
  74   2.0000      -0.972187       -26.4546
  75   2.0000      -0.959616       -26.1125
  76   2.0000      -0.951748       -25.8984
  77   2.0000      -0.946959       -25.7681
  78   2.0000      -0.935755       -25.4632
  79   2.0000      -0.920201       -25.0399
  80   2.0000      -0.903142       -24.5757
  81   2.0000      -0.892334       -24.2817
  82   2.0000      -0.875776       -23.8311
  83   2.0000      -0.871134       -23.7048
  84   2.0000      -0.866694       -23.5839
  85   2.0000      -0.855424       -23.2773
  86   2.0000      -0.841008       -22.8850
  87   2.0000      -0.837540       -22.7906
  88   2.0000      -0.822845       -22.3907
  89   2.0000      -0.798439       -21.7266
  90   2.0000      -0.793029       -21.5794
  91   2.0000      -0.747593       -20.3430
  92   2.0000      -0.738898       -20.1064
  93   2.0000      -0.732751       -19.9392
  94   2.0000      -0.723923       -19.6989
  95   2.0000      -0.720138       -19.5959
  96   2.0000      -0.714570       -19.4444
  97   2.0000      -0.707781       -19.2597
  98   2.0000      -0.703719       -19.1492
  99   2.0000      -0.696351       -18.9487
 100   2.0000      -0.695494       -18.9253
 101   2.0000      -0.682680       -18.5767
 102   2.0000      -0.679681       -18.4950
 103   2.0000      -0.677149       -18.4262
 104   2.0000      -0.675155       -18.3719
 105   2.0000      -0.671065       -18.2606
 106   2.0000      -0.666734       -18.1428
 107   2.0000      -0.662305       -18.0222
 108   2.0000      -0.655926       -17.8486
 109   2.0000      -0.653537       -17.7836
 110   2.0000      -0.649129       -17.6637
 111   2.0000      -0.643696       -17.5159
 112   2.0000      -0.641994       -17.4696
 113   2.0000      -0.638231       -17.3671
 114   2.0000      -0.636709       -17.3257
 115   2.0000      -0.626754       -17.0549
 116   2.0000      -0.624531       -16.9943
 117   2.0000      -0.616051       -16.7636
 118   2.0000      -0.615182       -16.7399
 119   2.0000      -0.612844       -16.6763
 120   2.0000      -0.608979       -16.5712
 121   2.0000      -0.604555       -16.4508
 122   2.0000      -0.599874       -16.3234
 123   2.0000      -0.586961       -15.9720
 124   2.0000      -0.584020       -15.8920
 125   2.0000      -0.582633       -15.8543
 126   2.0000      -0.578793       -15.7498
 127   2.0000      -0.577839       -15.7238
 128   2.0000      -0.564762       -15.3680
 129   2.0000      -0.558469       -15.1967
 130   2.0000      -0.552080       -15.0229
 131   2.0000      -0.548188       -14.9170
 132   2.0000      -0.543110       -14.7788
 133   2.0000      -0.539426       -14.6785
 134   2.0000      -0.538234       -14.6461
 135   2.0000      -0.534198       -14.5363
 136   2.0000      -0.525478       -14.2990
 137   2.0000      -0.524008       -14.2590
 138   2.0000      -0.518092       -14.0980
 139   2.0000      -0.513151       -13.9636
 140   2.0000      -0.512062       -13.9339
 141   2.0000      -0.510155       -13.8820
 142   2.0000      -0.509816       -13.8728
 143   2.0000      -0.503105       -13.6902
 144   2.0000      -0.500633       -13.6229
 145   2.0000      -0.496708       -13.5161
 146   2.0000      -0.494210       -13.4482
 147   2.0000      -0.484912       -13.1951
 148   2.0000      -0.481212       -13.0944
 149   2.0000      -0.467669       -12.7259
 150   2.0000      -0.465048       -12.6546
 151   2.0000      -0.457005       -12.4357
 152   2.0000      -0.449295       -12.2260
 153   2.0000      -0.446471       -12.1491
 154   2.0000      -0.443546       -12.0695
 155   2.0000      -0.439494       -11.9592
 156   2.0000      -0.430643       -11.7184
 157   2.0000      -0.425965       -11.5911
 158   2.0000      -0.403094       -10.9687
 159   2.0000      -0.386254       -10.5105
 160   2.0000      -0.380586       -10.3563
 161   2.0000      -0.378545       -10.3007
 162   2.0000      -0.370812       -10.0903
 163   2.0000      -0.359287        -9.7767
 164   2.0000      -0.353539        -9.6203
 165   2.0000      -0.338711        -9.2168
 166   2.0000      -0.337566        -9.1856
 167   2.0000      -0.328167        -8.9299
 168   2.0000      -0.327577        -8.9138
 169   2.0000      -0.303865        -8.2686
 170   2.0000      -0.299620        -8.1531
 171   2.0000      -0.286397        -7.7932
 172   2.0000      -0.283188        -7.7059
 173   2.0000      -0.260874        -7.0987
 174   2.0000      -0.244599        -6.6559
 175   2.0000      -0.189771        -5.1639
 176   2.0000      -0.180053        -4.8995
 177   2.0000      -0.074030        -2.0145
 178   2.0000      -0.057842        -1.5740
 179   0.0000       0.028668         0.7801
 180   0.0000       0.066964         1.8222
 181   0.0000       0.091822         2.4986
 182   0.0000       0.107558         2.9268
 183   0.0000       0.113367         3.0849

MULLIKEN ATOMIC CHARGES
-----------------------
   0 C :    0.209271
   1 N :   -0.454654
   2 C :   -0.065111
   3 N :   -0.336333
   4 C :   -0.054674
   5 N :   -0.560885
   6 C :   -0.108611
   7 N :   -0.340044
   8 C :    0.203974
   9 N :   -0.562685
  10 C :    0.118424
  11 N :   -0.437706
  12 C :   -0.080637
  13 N :   -0.431970
  14 C :    0.226191
  15 N :   -0.441448
  16 C :    0.229877
  17 C :   -0.116929
  18 C :   -0.171262
  19 C :    0.212082
  20 C :    0.213609
  21 C :   -0.092786
  22 C :   -0.088628
  23 C :   -0.041772
  24 C :    0.197479
  25 C :    0.114086
  26 C :   -0.075044
  27 C :    0.212590
  28 C :   -0.059269
  29 C :   -0.180818
  30 C :    0.243416
  31 C :    0.226658
  32 C :   -0.061887
  33 C :   -0.065658
  34 C :   -0.049661
  35 C :    0.221329
  36 C :    0.109668
  37 C :   -0.064838
  38 C :    0.233655
  39 C :   -0.059558
  40 C :   -0.182305
  41 C :    0.223374
  42 C :    0.197862
  43 C :   -0.072922
  44 C :   -0.091007
  45 C :   -0.059755
  46 C :    0.208535
  47 C :    0.115710
  48 C :   -0.069151
  49 C :    0.235590
  50 C :   -0.047845
  51 C :   -0.193048
  52 H :    0.041750
  53 H :   -0.016241
  54 H :    0.051510
  55 H :    0.039573
  56 H :    0.049549
  57 H :    0.049262
  58 H :    0.048019
  59 H :    0.000481
  60 H :    0.049822
  61 H :    0.171150
  62 H :    0.175151
  63 H :    0.056639
  64 H :   -0.004949
  65 H :    0.046961
  66 H :    0.056793
  67 H :    0.063404
  68 H :    0.057885
  69 H :    0.057538
  70 H :   -0.027764
  71 H :    0.046529
  72 H :    0.067874
  73 H :   -0.009174
  74 H :    0.057250
  75 H :    0.067082
  76 H :    0.071927
  77 H :    0.065669
  78 H :    0.064824
  79 H :   -0.015384
  80 H :    0.057799
  81 H :    0.053631
  82 H :   -0.025015
  83 H :    0.041197
  84 H :    0.053075
  85 H :    0.059766
  86 H :    0.055165
  87 H :    0.056687
  88 H :   -0.016104
  89 H :    0.046195
Sum of atomic charges:    0.0000000

LOEWDIN ATOMIC CHARGES
----------------------
   0 C :   -0.018609
   1 N :    0.116481
   2 C :   -0.101707
   3 N :    0.182962
   4 C :   -0.003941
   5 N :   -0.130868
   6 C :   -0.035422
   7 N :    0.175919
   8 C :   -0.023991
   9 N :   -0.140177
  10 C :    0.024003
  11 N :    0.143881
  12 C :   -0.109095
  13 N :    0.160343
  14 C :   -0.034093
  15 N :    0.137483
  16 C :   -0.056548
  17 C :   -0.042925
  18 C :   -0.100816
  19 C :   -0.085048
  20 C :    0.005253
  21 C :   -0.114147
  22 C :    0.039905
  23 C :   -0.015731
  24 C :   -0.008820
  25 C :    0.030281
  26 C :   -0.107379
  27 C :   -0.113212
  28 C :   -0.025424
  29 C :   -0.099764
  30 C :   -0.034560
  31 C :    0.019823
  32 C :   -0.094266
  33 C :    0.071852
  34 C :   -0.015429
  35 C :    0.015397
  36 C :    0.033911
  37 C :   -0.095703
  38 C :   -0.047782
  39 C :   -0.019986
  40 C :   -0.108053
  41 C :   -0.094007
  42 C :   -0.010262
  43 C :   -0.100977
  44 C :    0.031216
  45 C :   -0.027433
  46 C :   -0.001110
  47 C :    0.029174
  48 C :   -0.097946
  49 C :   -0.073706
  50 C :   -0.019997
  51 C :   -0.109843
  52 H :    0.024386
  53 H :    0.003256
  54 H :    0.041788
  55 H :    0.023893
  56 H :    0.021764
  57 H :    0.026863
  58 H :    0.027519
  59 H :    0.009533
  60 H :    0.040563
  61 H :    0.059994
  62 H :    0.061677
  63 H :    0.031303
  64 H :    0.005387
  65 H :    0.045740
  66 H :    0.029866
  67 H :    0.028725
  68 H :    0.031927
  69 H :    0.030832
  70 H :   -0.003712
  71 H :    0.044331
  72 H :    0.036136
  73 H :    0.006552
  74 H :    0.049424
  75 H :    0.035564
  76 H :    0.033236
  77 H :    0.035088
  78 H :    0.034718
  79 H :    0.003546
  80 H :    0.049149
  81 H :    0.028791
  82 H :   -0.002768
  83 H :    0.042292
  84 H :    0.029303
  85 H :    0.026843
  86 H :    0.029983
  87 H :    0.031159
  88 H :    0.001615
  89 H :    0.044626

  Mayer bond orders larger than 0.100000
B(  0-C ,  1-N ) :   1.0944 B(  0-C , 17-C ) :   1.6990 B(  0-C , 52-H ) :   0.9672
B(  1-N ,  8-C ) :   1.0849 B(  1-N , 10-C ) :   0.9769 B(  2-C , 12-C ) :   1.5138
B(  2-C , 16-C ) :   1.3499 B(  2-C , 53-H ) :   0.9763 B(  3-N , 14-C ) :   1.2165
B(  3-N , 16-C ) :   1.1925 B(  3-N , 61-H ) :   0.8994 B(  4-C ,  6-C ) :   1.2152
B(  4-C , 17-C ) :   1.2142 B(  4-C , 18-C ) :   1.4138 B(  5-N , 19-C ) :   1.4491
B(  5-N , 27-C ) :   1.3828 B(  6-C ,  8-C ) :   1.7021 B(  6-C , 54-H ) :   0.9623
B(  7-N , 30-C ) :   1.1938 B(  7-N , 38-C ) :   1.1938 B(  7-N , 62-H ) :   0.8970
B(  8-C , 55-H ) :   0.9687 B(  9-N , 41-C ) :   1.3944 B(  9-N , 49-C ) :   1.4267
B( 10-C , 56-H ) :   0.9767 B( 10-C , 57-H ) :   0.9830 B( 10-C , 58-H ) :   0.9834
B( 11-N , 20-C ) :   1.1314 B( 11-N , 24-C ) :   1.1124 B( 11-N , 25-C ) :   0.9587
B( 12-C , 14-C ) :   1.3519 B( 12-C , 59-H ) :   0.9747 B( 13-N , 31-C ) :   1.1535
B( 13-N , 35-C ) :   1.1478 B( 13-N , 36-C ) :   0.9458 B( 14-C , 18-C ) :   1.1400
B( 15-N , 42-C ) :   1.1077 B( 15-N , 46-C ) :   1.1201 B( 15-N , 47-C ) :   0.9624
B( 16-C , 51-C ) :   1.1759 B( 17-C , 60-H ) :   0.9627 B( 18-C , 19-C ) :   1.1441
B( 19-C , 21-C ) :   1.2386 B( 20-C , 28-C ) :   1.6251 B( 20-C , 63-H ) :   0.9702
B( 21-C , 26-C ) :   1.6193 B( 21-C , 64-H ) :   0.9715 B( 22-C , 23-C ) :   1.2904
B( 22-C , 28-C ) :   1.2685 B( 22-C , 29-C ) :   1.2205 B( 23-C , 24-C ) :   1.6171
B( 23-C , 65-H ) :   0.9705 B( 24-C , 66-H ) :   0.9694 B( 25-C , 67-H ) :   0.9760
B( 25-C , 68-H ) :   0.9828 B( 25-C , 69-H ) :   0.9822 B( 26-C , 27-C ) :   1.2332
B( 26-C , 70-H ) :   0.9710 B( 27-C , 29-C ) :   1.2168 B( 28-C , 71-H ) :   0.9718
B( 29-C , 30-C ) :   1.2384 B( 30-C , 32-C ) :   1.2857 B( 31-C , 39-C ) :   1.5984
B( 31-C , 72-H ) :   0.9685 B( 32-C , 37-C ) :   1.5736 B( 32-C , 73-H ) :   0.9784
B( 33-C , 34-C ) :   1.3009 B( 33-C , 39-C ) :   1.2943 B( 33-C , 40-C ) :   1.1917
B( 34-C , 35-C ) :   1.5949 B( 34-C , 74-H ) :   0.9698 B( 35-C , 75-H ) :   0.9685
B( 36-C , 76-H ) :   0.9766 B( 36-C , 77-H ) :   0.9817 B( 36-C , 78-H ) :   0.9825
B( 37-C , 38-C ) :   1.2894 B( 37-C , 79-H ) :   0.9769 B( 38-C , 40-C ) :   1.2292
B( 39-C , 80-H ) :   0.9708 B( 40-C , 41-C ) :   1.2430 B( 41-C , 43-C ) :   1.1935
B( 42-C , 50-C ) :   1.6358 B( 42-C , 81-H ) :   0.9697 B( 43-C , 48-C ) :   1.6583
B( 43-C , 82-H ) :   0.9724 B( 44-C , 45-C ) :   1.2630 B( 44-C , 50-C ) :   1.2689
B( 44-C , 51-C ) :   1.2643 B( 45-C , 46-C ) :   1.6366 B( 45-C , 83-H ) :   0.9717
B( 46-C , 84-H ) :   0.9701 B( 47-C , 85-H ) :   0.9762 B( 47-C , 86-H ) :   0.9829
B( 47-C , 87-H ) :   0.9825 B( 48-C , 49-C ) :   1.1966 B( 48-C , 88-H ) :   0.9747
B( 49-C , 51-C ) :   1.2336 B( 50-C , 89-H ) :   0.9710

MP2 TOTAL ENERGY:    -2130.905768724 Eh
FINAL SINGLE POINT ENERGY     -2130.905768723863

DIPOLE MOMENT
-------------
                                X             Y             Z
Electronic contribution:      1.88429      -3.69625      -0.06437
Nuclear contribution   :     -0.00041       0.18808       0.07427
                        -----------------------------------------
Total Dipole Moment    :      1.88388      -3.50817       0.00990
                        -----------------------------------------
Magnitude (a.u.)       :      3.98201
Magnitude (Debye)      :     10.12145

Rotational constants in cm-1:     0.001502     0.001476     0.000761
Rotational constants in MHz :    45.016283    44.235510    22.812718

                             ****ORCA TERMINATED NORMALLY****
TOTAL RUN TIME: 0 days 1 hours 3 minutes 44 seconds 394 msec
