                         Program Version 5.0.4 -  RELEASE  -
|  1> ! PAL2
|  2> ! mp2 cc-pvdz TightSCF  NoKeepInts
|  3>
|  4> %scf
|  5>   MaxCore 2000
|  6> end
|  7> %mp2
|  8>   MaxCore 2000
|  9> end
| 10> * xyz 0 1
| 11>    C       -4.85400         5.24100         0.59400
| 12>    C        1.47400         4.04100         0.05700
| 13>    C       -2.80200         4.09300         0.04900
| 14>    C       -2.32700         5.30200        -0.48200
| 15>    C       -3.12100         6.43100        -0.45500
| 16>    C       -5.17700         7.62600         0.12200
| 17>    C        0.13200         4.30700         0.06100
| 18>    C       -0.56900         3.05600         0.04700
| 19>    C        1.64900         2.61800         0.02300
| 20>    C       -4.09500         4.08700         0.59600
| 21>    N       -4.36600         6.39000         0.07400
| 22>    N        0.38800         2.06700         0.02500
| 23>    N       -2.01000         0.39500        -0.07500
| 24>    N       -0.38800        -2.07400        -0.02700
| 25>    N        2.01000        -0.40100         0.06500
| 26>    C       -1.96000         2.86100         0.02400
| 27>    C       -2.62300         1.61500        -0.01800
| 28>    C       -5.57300        -4.32900         1.06600
| 29>    C       -4.07300         1.47100         0.05600
| 30>    C       -4.10600        -2.75600        -0.02600
| 31>    C       -4.99500        -2.75700        -1.11100
| 32>    C       -6.13200        -3.54200        -1.07600
| 33>    C       -7.65100        -5.11300         0.04000
| 34>    C       -4.32400         0.14100         0.03700
| 35>    C       -3.02500        -0.52000        -0.04800
| 36>    C       -4.42200        -3.56600         1.07500
| 37>    N       -6.40700        -4.31300         0.00100
| 38>    C       -2.86700        -1.92200        -0.04000
| 39>    C       -1.65000        -2.62400        -0.02700
| 40>    C        3.56800        -6.14200        -1.04000
| 41>    C       -1.47600        -4.04900        -0.03400
| 42>    C        2.80300        -4.09900        -0.00800
| 43>    C        3.65700        -4.38400         1.06900
| 44>    C        4.42700        -5.53000         1.05900
| 45>    C        5.24500        -7.58800         0.01400
| 46>    C       -0.13400        -4.31500        -0.02200
| 47>    C        0.56800        -3.06400        -0.02700
| 48>    C        2.77500        -5.01200        -1.07400
| 49>    N        4.37600        -6.39100         0.01700
| 50>    C        1.95900        -2.86900        -0.00900
| 51>    C        2.62100        -1.62200         0.00900
| 52>    C        5.54300         4.33900        -1.13000
| 53>    C        4.07000        -1.47900        -0.09400
| 54>    C        4.10400         2.75100        -0.02100
| 55>    C        5.02700         2.72900         1.03600
| 56>    C        6.16600         3.50900         0.97800
| 57>    C        7.61900         5.15300        -0.11500
| 58>    C        4.32100        -0.14800        -0.09200
| 59>    C        3.02500         0.51400         0.01500
| 60>    C        4.38700         3.58200        -1.11500
| 61>    C        2.86600         1.91600         0.01300
| 62>    N        6.41300         4.29600        -0.09500
| 63>    H       -5.86000         5.27900         0.99400
| 64>    H        2.27400         4.76600         0.08100
| 65>    H       -1.33400         5.37300        -0.90900
| 66>    H       -2.79500         7.38700        -0.84300
| 67>    H       -4.92400         8.18300         1.02700
| 68>    H       -4.95700         8.22500        -0.76100
| 69>    H       -6.23200         7.35300         0.13400
| 70>    H       -0.33200         5.28200         0.06900
| 71>    H       -4.52400         3.18100         1.00800
| 72>    H        0.18200         1.07200         0.00500
| 73>    H       -0.18300        -1.08000        -0.02100
| 74>    H       -5.86400        -4.96200         1.89500
| 75>    H       -4.79400         2.27200         0.13900
| 76>    H       -4.80000        -2.16000        -1.99400
| 77>    H       -6.84100        -3.58200        -1.89300
| 78>    H       -8.42800        -4.53600         0.54600
| 79>    H       -7.95600        -5.33700        -0.98100
| 80>    H       -7.45600        -6.03700         0.58400
| 81>    H       -5.28700        -0.34400         0.10000
| 82>    H       -3.78000        -3.60100         1.94700
| 83>    H        3.58700        -6.86800        -1.84300
| 84>    H       -2.27600        -4.77400        -0.05000
| 85>    H        3.71400        -3.72400         1.92600
| 86>    H        5.09200        -5.79500         1.87100
| 87>    H        6.20500        -7.32900        -0.43900
| 88>    H        5.39300        -7.91700         1.04200
| 89>    H        4.75900        -8.37300        -0.56400
| 90>    H        0.32900        -5.29000        -0.00800
| 91>    H        2.14600        -4.84200        -1.94000
| 92>    H        5.80800         4.98600        -1.95600
| 93>    H        4.78800        -2.28100        -0.18500
| 94>    H        4.86000         2.11400         1.91200
| 95>    H        6.90100         3.53100         1.77200
| 96>    H        7.38300         6.10900         0.35600
| 97>    H        8.41400         4.65200         0.43500
| 98>    H        7.92100         5.31000        -1.15000
| 99>    H        5.28300         0.33600        -0.17900
|100>    H        3.72000         3.63200        -1.96700
|101> *
|102>
|103>                          ****END OF INPUT****

CARTESIAN COORDINATES (ANGSTROEM)
---------------------------------
  C     -4.854000    5.241000    0.594000
  C      1.474000    4.041000    0.057000
  C     -2.802000    4.093000    0.049000
  C     -2.327000    5.302000   -0.482000
  C     -3.121000    6.431000   -0.455000
  C     -5.177000    7.626000    0.122000
  C      0.132000    4.307000    0.061000
  C     -0.569000    3.056000    0.047000
  C      1.649000    2.618000    0.023000
  C     -4.095000    4.087000    0.596000
  N     -4.366000    6.390000    0.074000
  N      0.388000    2.067000    0.025000
  N     -2.010000    0.395000   -0.075000
  N     -0.388000   -2.074000   -0.027000
  N      2.010000   -0.401000    0.065000
  C     -1.960000    2.861000    0.024000
  C     -2.623000    1.615000   -0.018000
  C     -5.573000   -4.329000    1.066000
  C     -4.073000    1.471000    0.056000
  C     -4.106000   -2.756000   -0.026000
  C     -4.995000   -2.757000   -1.111000
  C     -6.132000   -3.542000   -1.076000
  C     -7.651000   -5.113000    0.040000
  C     -4.324000    0.141000    0.037000
  C     -3.025000   -0.520000   -0.048000
  C     -4.422000   -3.566000    1.075000
  N     -6.407000   -4.313000    0.001000
  C     -2.867000   -1.922000   -0.040000
  C     -1.650000   -2.624000   -0.027000
  C      3.568000   -6.142000   -1.040000
  C     -1.476000   -4.049000   -0.034000
  C      2.803000   -4.099000   -0.008000
  C      3.657000   -4.384000    1.069000
  C      4.427000   -5.530000    1.059000
  C      5.245000   -7.588000    0.014000
  C     -0.134000   -4.315000   -0.022000
  C      0.568000   -3.064000   -0.027000
  C      2.775000   -5.012000   -1.074000
  N      4.376000   -6.391000    0.017000
  C      1.959000   -2.869000   -0.009000
  C      2.621000   -1.622000    0.009000
  C      5.543000    4.339000   -1.130000
  C      4.070000   -1.479000   -0.094000
  C      4.104000    2.751000   -0.021000
  C      5.027000    2.729000    1.036000
  C      6.166000    3.509000    0.978000
  C      7.619000    5.153000   -0.115000
  C      4.321000   -0.148000   -0.092000
  C      3.025000    0.514000    0.015000
  C      4.387000    3.582000   -1.115000
  C      2.866000    1.916000    0.013000
  N      6.413000    4.296000   -0.095000
  H     -5.860000    5.279000    0.994000
  H      2.274000    4.766000    0.081000
  H     -1.334000    5.373000   -0.909000
  H     -2.795000    7.387000   -0.843000
  H     -4.924000    8.183000    1.027000
  H     -4.957000    8.225000   -0.761000
  H     -6.232000    7.353000    0.134000
  H     -0.332000    5.282000    0.069000
  H     -4.524000    3.181000    1.008000
  H      0.182000    1.072000    0.005000
  H     -0.183000   -1.080000   -0.021000
  H     -5.864000   -4.962000    1.895000
  H     -4.794000    2.272000    0.139000
  H     -4.800000   -2.160000   -1.994000
  H     -6.841000   -3.582000   -1.893000
  H     -8.428000   -4.536000    0.546000
  H     -7.956000   -5.337000   -0.981000
  H     -7.456000   -6.037000    0.584000
  H     -5.287000   -0.344000    0.100000
  H     -3.780000   -3.601000    1.947000
  H      3.587000   -6.868000   -1.843000
  H     -2.276000   -4.774000   -0.050000
  H      3.714000   -3.724000    1.926000
  H      5.092000   -5.795000    1.871000
  H      6.205000   -7.329000   -0.439000
  H      5.393000   -7.917000    1.042000
  H      4.759000   -8.373000   -0.564000
  H      0.329000   -5.290000   -0.008000
  H      2.146000   -4.842000   -1.940000
  H      5.808000    4.986000   -1.956000
  H      4.788000   -2.281000   -0.185000
  H      4.860000    2.114000    1.912000
  H      6.901000    3.531000    1.772000
  H      7.383000    6.109000    0.356000
  H      8.414000    4.652000    0.435000
  H      7.921000    5.310000   -1.150000
  H      5.283000    0.336000   -0.179000
  H      3.720000    3.632000   -1.967000

 Total Charge           Charge          ....    0
 Multiplicity           Mult            ....    1
 Number of Electrons    NEL             ....  358
 Basis Dimension        Dim             ....  918

ORBITAL ENERGIES
----------------

  NO   OCC          E(Eh)            E(eV)
   0   2.0000     -15.674739      -426.5313
   1   2.0000     -15.634561      -425.4380
   2   2.0000     -15.631021      -425.3417
   3   2.0000     -15.590686      -424.2441
   4   2.0000     -15.524770      -422.4505
   5   2.0000     -15.516147      -422.2158
   6   2.0000     -15.452790      -420.4918
   7   2.0000     -15.440999      -420.1709
   8   2.0000     -11.325359      -308.1787
   9   2.0000     -11.324816      -308.1639
  10   2.0000     -11.323984      -308.1413
  11   2.0000     -11.299692      -307.4803
  12   2.0000     -11.297835      -307.4297
  13   2.0000     -11.293250      -307.3049
  14   2.0000     -11.290196      -307.2218
  15   2.0000     -11.287316      -307.1435
  16   2.0000     -11.286164      -307.1121
  17   2.0000     -11.277319      -306.8715
  18   2.0000     -11.272559      -306.7419
  19   2.0000     -11.259854      -306.3962
  20   2.0000     -11.258887      -306.3699
  21   2.0000     -11.254768      -306.2578
  22   2.0000     -11.254501      -306.2505
  23   2.0000     -11.238232      -305.8078
  24   2.0000     -11.235811      -305.7420
  25   2.0000     -11.231624      -305.6280
  26   2.0000     -11.230819      -305.6061
  27   2.0000     -11.229153      -305.5608
  28   2.0000     -11.229047      -305.5579
  29   2.0000     -11.210047      -305.0409
  30   2.0000     -11.208766      -305.0060
  31   2.0000     -11.199064      -304.7420
  32   2.0000     -11.190726      -304.5151
  33   2.0000     -11.190437      -304.5073
  34   2.0000     -11.189372      -304.4783
  35   2.0000     -11.189091      -304.4706
  36   2.0000     -11.187467      -304.4264
  37   2.0000     -11.186401      -304.3975
  38   2.0000     -11.185224      -304.3654
  39   2.0000     -11.173005      -304.0329
  40   2.0000     -11.172526      -304.0199
  41   2.0000     -11.170255      -303.9581
  42   2.0000     -11.167528      -303.8839
  43   2.0000     -11.160960      -303.7052
  44   2.0000     -11.159676      -303.6702
  45   2.0000     -11.158539      -303.6393
  46   2.0000     -11.156818      -303.5924
  47   2.0000     -11.154844      -303.5387
  48   2.0000     -11.147927      -303.3505
  49   2.0000     -11.138911      -303.1052
  50   2.0000     -11.131703      -302.9090
  51   2.0000     -11.121280      -302.6254
  52   2.0000      -1.356090       -36.9011
  53   2.0000      -1.321728       -35.9660
  54   2.0000      -1.318913       -35.8894
  55   2.0000      -1.284473       -34.9523
  56   2.0000      -1.225448       -33.3461
  57   2.0000      -1.210598       -32.9421
  58   2.0000      -1.171899       -31.8890
  59   2.0000      -1.151757       -31.3409
  60   2.0000      -1.140072       -31.0229
  61   2.0000      -1.110597       -30.2209
  62   2.0000      -1.108426       -30.1618
  63   2.0000      -1.080358       -29.3980
  64   2.0000      -1.078100       -29.3366
  65   2.0000      -1.045882       -28.4599
  66   2.0000      -1.043627       -28.3985
  67   2.0000      -1.038738       -28.2655
  68   2.0000      -1.014564       -27.6077
  69   2.0000      -1.013784       -27.5865
  70   2.0000      -1.009617       -27.4731
  71   2.0000      -0.992867       -27.0173
  72   2.0000      -0.986753       -26.8509
  73   2.0000      -0.980165       -26.6717
  74   2.0000      -0.972437       -26.4614
  75   2.0000      -0.961042       -26.1513
  76   2.0000      -0.953432       -25.9442
  77   2.0000      -0.946333       -25.7510
  78   2.0000      -0.935141       -25.4465
  79   2.0000      -0.918941       -25.0057
  80   2.0000      -0.906956       -24.6795
  81   2.0000      -0.894236       -24.3334
  82   2.0000      -0.874795       -23.8044
  83   2.0000      -0.872062       -23.7300
  84   2.0000      -0.869116       -23.6498
  85   2.0000      -0.857143       -23.3241
  86   2.0000      -0.841467       -22.8975
  87   2.0000      -0.835948       -22.7473
  88   2.0000      -0.824511       -22.4361
  89   2.0000      -0.797692       -21.7063
  90   2.0000      -0.791346       -21.5336
  91   2.0000      -0.751065       -20.4375
  92   2.0000      -0.744289       -20.2531
  93   2.0000      -0.732940       -19.9443
  94   2.0000      -0.724498       -19.7146
  95   2.0000      -0.721992       -19.6464
  96   2.0000      -0.716181       -19.4883
  97   2.0000      -0.712121       -19.3778
  98   2.0000      -0.707691       -19.2572
  99   2.0000      -0.696913       -18.9640
 100   2.0000      -0.696221       -18.9451
 101   2.0000      -0.685078       -18.6419
 102   2.0000      -0.681132       -18.5345
 103   2.0000      -0.680628       -18.5208
 104   2.0000      -0.678431       -18.4610
 105   2.0000      -0.673397       -18.3241
 106   2.0000      -0.669870       -18.2281
 107   2.0000      -0.660765       -17.9803
 108   2.0000      -0.656382       -17.8611
 109   2.0000      -0.653470       -17.7818
 110   2.0000      -0.650875       -17.7112
 111   2.0000      -0.643574       -17.5125
 112   2.0000      -0.642473       -17.4826
 113   2.0000      -0.639731       -17.4080
 114   2.0000      -0.637690       -17.3524
 115   2.0000      -0.627757       -17.0821
 116   2.0000      -0.624183       -16.9849
 117   2.0000      -0.619642       -16.8613
 118   2.0000      -0.612949       -16.6792
 119   2.0000      -0.612499       -16.6670
 120   2.0000      -0.610866       -16.6225
 121   2.0000      -0.608160       -16.5489
 122   2.0000      -0.600467       -16.3395
 123   2.0000      -0.586673       -15.9642
 124   2.0000      -0.582073       -15.8390
 125   2.0000      -0.580354       -15.7922
 126   2.0000      -0.579637       -15.7727
 127   2.0000      -0.574142       -15.6232
 128   2.0000      -0.567727       -15.4486
 129   2.0000      -0.559255       -15.2181
 130   2.0000      -0.551490       -15.0068
 131   2.0000      -0.547540       -14.8993
 132   2.0000      -0.542388       -14.7591
 133   2.0000      -0.541173       -14.7261
 134   2.0000      -0.538422       -14.6512
 135   2.0000      -0.535600       -14.5744
 136   2.0000      -0.528811       -14.3897
 137   2.0000      -0.522552       -14.2194
 138   2.0000      -0.516934       -14.0665
 139   2.0000      -0.513931       -13.9848
 140   2.0000      -0.512113       -13.9353
 141   2.0000      -0.511167       -13.9095
 142   2.0000      -0.509288       -13.8584
 143   2.0000      -0.503731       -13.7072
 144   2.0000      -0.502067       -13.6620
 145   2.0000      -0.496996       -13.5239
 146   2.0000      -0.492388       -13.3986
 147   2.0000      -0.483476       -13.1561
 148   2.0000      -0.479466       -13.0469
 149   2.0000      -0.466704       -12.6997
 150   2.0000      -0.466275       -12.6880
 151   2.0000      -0.457166       -12.4401
 152   2.0000      -0.450658       -12.2630
 153   2.0000      -0.445108       -12.1120
 154   2.0000      -0.441216       -12.0061
 155   2.0000      -0.429160       -11.6780
 156   2.0000      -0.427343       -11.6286
 157   2.0000      -0.411532       -11.1984
 158   2.0000      -0.404579       -11.0092
 159   2.0000      -0.388503       -10.5717
 160   2.0000      -0.384361       -10.4590
 161   2.0000      -0.378349       -10.2954
 162   2.0000      -0.370183       -10.0732
 163   2.0000      -0.357021        -9.7150
 164   2.0000      -0.355322        -9.6688
 165   2.0000      -0.340745        -9.2722
 166   2.0000      -0.337553        -9.1853
 167   2.0000      -0.325857        -8.8670
 168   2.0000      -0.324122        -8.8198
 169   2.0000      -0.304366        -8.2822
 170   2.0000      -0.299659        -8.1541
 171   2.0000      -0.285860        -7.7786
 172   2.0000      -0.281378        -7.6567
 173   2.0000      -0.262915        -7.1543
 174   2.0000      -0.242494        -6.5986
 175   2.0000      -0.189912        -5.1678
 176   2.0000      -0.180360        -4.9078
 177   2.0000      -0.076438        -2.0800
 178   2.0000      -0.058623        -1.5952
 179   0.0000       0.028443         0.7740
 180   0.0000       0.066132         1.7995
 181   0.0000       0.091068         2.4781
 182   0.0000       0.109470         2.9788
 183   0.0000       0.110880         3.0172

MULLIKEN ATOMIC CHARGES
-----------------------
   0 C :    0.209185
   1 N :   -0.455111
   2 C :   -0.067312
   3 N :   -0.337790
   4 C :   -0.048843
   5 N :   -0.564949
   6 C :   -0.116763
   7 N :   -0.340313
   8 C :    0.208225
   9 N :   -0.562342
  10 C :    0.118963
  11 N :   -0.438320
  12 C :   -0.079944
  13 N :   -0.430597
  14 C :    0.230948
  15 N :   -0.441091
  16 C :    0.228627
  17 C :   -0.114098
  18 C :   -0.192523
  19 C :    0.224314
  20 C :    0.213047
  21 C :   -0.089814
  22 C :   -0.090997
  23 C :   -0.040256
  24 C :    0.194730
  25 C :    0.114531
  26 C :   -0.083116
  27 C :    0.213399
  28 C :   -0.060936
  29 C :   -0.180465
  30 C :    0.245142
  31 C :    0.228283
  32 C :   -0.062041
  33 C :   -0.062650
  34 C :   -0.050854
  35 C :    0.225568
  36 C :    0.108884
  37 C :   -0.064540
  38 C :    0.231926
  39 C :   -0.058191
  40 C :   -0.182021
  41 C :    0.225354
  42 C :    0.197765
  43 C :   -0.072415
  44 C :   -0.089666
  45 C :   -0.060521
  46 C :    0.210601
  47 C :    0.115432
  48 C :   -0.067656
  49 C :    0.237782
  50 C :   -0.047158
  51 C :   -0.192090
  52 H :    0.039524
  53 H :   -0.016774
  54 H :    0.048794
  55 H :    0.037481
  56 H :    0.049513
  57 H :    0.047536
  58 H :    0.048028
  59 H :    0.000774
  60 H :    0.051362
  61 H :    0.171263
  62 H :    0.175259
  63 H :    0.055361
  64 H :   -0.009881
  65 H :    0.047409
  66 H :    0.055938
  67 H :    0.062410
  68 H :    0.057363
  69 H :    0.056570
  70 H :   -0.029627
  71 H :    0.044946
  72 H :    0.069794
  73 H :   -0.008454
  74 H :    0.058991
  75 H :    0.069161
  76 H :    0.073581
  77 H :    0.066970
  78 H :    0.066249
  79 H :   -0.016234
  80 H :    0.059836
  81 H :    0.054036
  82 H :   -0.024717
  83 H :    0.041982
  84 H :    0.054028
  85 H :    0.060662
  86 H :    0.055560
  87 H :    0.057029
  88 H :   -0.015025
  89 H :    0.045978
Sum of atomic charges:   -0.0000000

LOEWDIN ATOMIC CHARGES
----------------------
   0 C :   -0.020710
   1 N :    0.117995
   2 C :   -0.101588
   3 N :    0.183394
   4 C :   -0.008535
   5 N :   -0.133093
   6 C :   -0.042158
   7 N :    0.175646
   8 C :   -0.021898
   9 N :   -0.140428
  10 C :    0.023638
  11 N :    0.142176
  12 C :   -0.115957
  13 N :    0.163583
  14 C :   -0.026777
  15 N :    0.138524
  16 C :   -0.058825
  17 C :   -0.040102
  18 C :   -0.104186
  19 C :   -0.080497
  20 C :    0.004261
  21 C :   -0.122283
  22 C :    0.037052
  23 C :   -0.014877
  24 C :   -0.011566
  25 C :    0.029868
  26 C :   -0.108005
  27 C :   -0.115059
  28 C :   -0.027093
  29 C :   -0.100308
  30 C :   -0.031286
  31 C :    0.022041
  32 C :   -0.094754
  33 C :    0.077364
  34 C :   -0.015488
  35 C :    0.019952
  36 C :    0.034647
  37 C :   -0.094827
  38 C :   -0.050917
  39 C :   -0.018442
  40 C :   -0.108289
  41 C :   -0.091739
  42 C :   -0.010196
  43 C :   -0.099716
  44 C :    0.033000
  45 C :   -0.027581
  46 C :    0.001018
  47 C :    0.029442
  48 C :   -0.095709
  49 C :   -0.071261
  50 C :   -0.019467
  51 C :   -0.108780
  52 H :    0.023806
  53 H :    0.003005
  54 H :    0.038145
  55 H :    0.023041
  56 H :    0.021816
  57 H :    0.026218
  58 H :    0.027436
  59 H :    0.011324
  60 H :    0.037965
  61 H :    0.060104
  62 H :    0.061742
  63 H :    0.030739
  64 H :    0.005468
  65 H :    0.045972
  66 H :    0.029408
  67 H :    0.028223
  68 H :    0.031685
  69 H :    0.030381
  70 H :   -0.004448
  71 H :    0.043562
  72 H :    0.037004
  73 H :    0.006907
  74 H :    0.050096
  75 H :    0.036611
  76 H :    0.034105
  77 H :    0.035701
  78 H :    0.035379
  79 H :    0.003135
  80 H :    0.050091
  81 H :    0.028950
  82 H :   -0.002651
  83 H :    0.042583
  84 H :    0.029784
  85 H :    0.027277
  86 H :    0.030182
  87 H :    0.031319
  88 H :    0.002127
  89 H :    0.044603

  Mayer bond orders larger than 0.100000
B(  0-C ,  1-N ) :   1.0914 B(  0-C , 17-C ) :   1.7076 B(  0-C , 52-H ) :   0.9661
B(  1-N ,  8-C ) :   1.0912 B(  1-N , 10-C ) :   0.9774 B(  2-C , 12-C ) :   1.5044
B(  2-C , 16-C ) :   1.3582 B(  2-C , 53-H ) :   0.9748 B(  3-N , 14-C ) :   1.2189
B(  3-N , 16-C ) :   1.1886 B(  3-N , 61-H ) :   0.8990 B(  4-C ,  6-C ) :   1.2140
B(  4-C , 17-C ) :   1.2121 B(  4-C , 18-C ) :   1.4401 B(  5-N , 19-C ) :   1.4524
B(  5-N , 27-C ) :   1.3782 B(  6-C ,  8-C ) :   1.7042 B(  6-C , 54-H ) :   0.9513
B(  7-N , 30-C ) :   1.1956 B(  7-N , 38-C ) :   1.1911 B(  7-N , 62-H ) :   0.8969
B(  8-C , 55-H ) :   0.9670 B(  9-N , 41-C ) :   1.3949 B(  9-N , 49-C ) :   1.4250
B( 10-C , 56-H ) :   0.9771 B( 10-C , 57-H ) :   0.9822 B( 10-C , 58-H ) :   0.9843
B( 11-N , 20-C ) :   1.1305 B( 11-N , 24-C ) :   1.1082 B( 11-N , 25-C ) :   0.9600
B( 12-C , 14-C ) :   1.3560 B( 12-C , 59-H ) :   0.9707 B( 13-N , 31-C ) :   1.1574
B( 13-N , 35-C ) :   1.1550 B( 13-N , 36-C ) :   0.9433 B( 14-C , 18-C ) :   1.1294
B( 15-N , 42-C ) :   1.1081 B( 15-N , 46-C ) :   1.1228 B( 15-N , 47-C ) :   0.9615
B( 16-C , 51-C ) :   1.1714 B( 17-C , 60-H ) :   0.9462 B( 18-C , 19-C ) :   1.1333
B( 19-C , 21-C ) :   1.2463 B( 20-C , 28-C ) :   1.6281 B( 20-C , 63-H ) :   0.9703
B( 21-C , 26-C ) :   1.6029 B( 21-C , 64-H ) :   0.9627 B( 22-C , 23-C ) :   1.2891
B( 22-C , 28-C ) :   1.2648 B( 22-C , 29-C ) :   1.2239 B( 23-C , 24-C ) :   1.6199
B( 23-C , 65-H ) :   0.9703 B( 24-C , 66-H ) :   0.9695 B( 25-C , 67-H ) :   0.9760
B( 25-C , 68-H ) :   0.9828 B( 25-C , 69-H ) :   0.9823 B( 26-C , 27-C ) :   1.2445
B( 26-C , 70-H ) :   0.9703 B( 27-C , 29-C ) :   1.2122 B( 28-C , 71-H ) :   0.9719
B( 29-C , 30-C ) :   1.2416 B( 30-C , 32-C ) :   1.2831 B( 31-C , 39-C ) :   1.5926
B( 31-C , 72-H ) :   0.9683 B( 32-C , 37-C ) :   1.5757 B( 32-C , 73-H ) :   0.9785
B( 33-C , 34-C ) :   1.3039 B( 33-C , 39-C ) :   1.2999 B( 33-C , 40-C ) :   1.1837
B( 34-C , 35-C ) :   1.5899 B( 34-C , 74-H ) :   0.9697 B( 35-C , 75-H ) :   0.9683
B( 36-C , 76-H ) :   0.9767 B( 36-C , 77-H ) :   0.9816 B( 36-C , 78-H ) :   0.9824
B( 37-C , 38-C ) :   1.2881 B( 37-C , 79-H ) :   0.9766 B( 38-C , 40-C ) :   1.2308
B( 39-C , 80-H ) :   0.9706 B( 40-C , 41-C ) :   1.2477 B( 41-C , 43-C ) :   1.1874
B( 42-C , 50-C ) :   1.6336 B( 42-C , 81-H ) :   0.9697 B( 43-C , 48-C ) :   1.6651
B( 43-C , 82-H ) :   0.9723 B( 44-C , 45-C ) :   1.2639 B( 44-C , 50-C ) :   1.2714
B( 44-C , 51-C ) :   1.2609 B( 45-C , 46-C ) :   1.6350 B( 45-C , 83-H ) :   0.9718
B( 46-C , 84-H ) :   0.9700 B( 47-C , 85-H ) :   0.9762 B( 47-C , 86-H ) :   0.9829
B( 47-C , 87-H ) :   0.9825 B( 48-C , 49-C ) :   1.1908 B( 48-C , 88-H ) :   0.9748
B( 49-C , 51-C ) :   1.2407 B( 50-C , 89-H ) :   0.9710

MP2 TOTAL ENERGY:    -2130.871640392 Eh
FINAL SINGLE POINT ENERGY     -2130.871640392245

DIPOLE MOMENT
-------------
                                X             Y             Z
Electronic contribution:      2.38220      -4.00719      -0.16890
Nuclear contribution   :      0.07711       0.23912       0.16775
                        -----------------------------------------
Total Dipole Moment    :      2.45930      -3.76807      -0.00115
                        -----------------------------------------
Magnitude (a.u.)       :      4.49962
Magnitude (Debye)      :     11.43712

Rotational constants in cm-1:     0.001501     0.001478     0.000760
Rotational constants in MHz :    44.985389    44.322001    22.797351

                             ****ORCA TERMINATED NORMALLY****
TOTAL RUN TIME: 0 days 1 hours 19 minutes 54 seconds 254 msec
