                         Program Version 5.0.4 -  RELEASE  -
|  1> ! PAL2
|  2> ! mp2 cc-pvdz TightSCF  NoKeepInts
|  3>
|  4> %scf
|  5>   MaxCore 2000
|  6> end
|  7> %mp2
|  8>   MaxCore 2000
|  9> end
| 10> * xyz 0 1
| 11>    C       -3.39500         6.23000         1.00200
| 12>    C        1.47400         4.04100         0.05700
| 13>    C       -2.80200         4.09300         0.04900
| 14>    C       -3.84000         4.27600        -0.87700
| 15>    C       -4.61300         5.41900        -0.83700
| 16>    C       -5.20800         7.60600         0.08800
| 17>    C        0.13200         4.30700         0.06100
| 18>    C       -0.56900         3.05600         0.04700
| 19>    C        1.64900         2.61800         0.02300
| 20>    C       -2.59100         5.10600         0.99700
| 21>    N       -4.38800         6.37500         0.09500
| 22>    N        0.38800         2.06700         0.02500
| 23>    N       -2.01000         0.39500        -0.07500
| 24>    N       -0.38800        -2.07400        -0.02700
| 25>    N        2.01000        -0.40100         0.06500
| 26>    C       -1.96000         2.86100         0.02400
| 27>    C       -2.62300         1.61500        -0.01800
| 28>    C       -5.57300        -4.32900         1.06600
| 29>    C       -4.07300         1.47100         0.05600
| 30>    C       -4.10600        -2.75600        -0.02600
| 31>    C       -4.99500        -2.75700        -1.11100
| 32>    C       -6.13200        -3.54200        -1.07600
| 33>    C       -7.65100        -5.11300         0.04000
| 34>    C       -4.32400         0.14100         0.03700
| 35>    C       -3.02500        -0.52000        -0.04800
| 36>    C       -4.42200        -3.56600         1.07500
| 37>    N       -6.40700        -4.31300         0.00100
| 38>    C       -2.86700        -1.92200        -0.04000
| 39>    C       -1.65000        -2.62400        -0.02700
| 40>    C        3.56800        -6.14200        -1.04000
| 41>    C       -1.47600        -4.04900        -0.03400
| 42>    C        2.80300        -4.09900        -0.00800
| 43>    C        3.65700        -4.38400         1.06900
| 44>    C        4.42700        -5.53000         1.05900
| 45>    C        5.24500        -7.58800         0.01400
| 46>    C       -0.13400        -4.31500        -0.02200
| 47>    C        0.56800        -3.06400        -0.02700
| 48>    C        2.77500        -5.01200        -1.07400
| 49>    N        4.37600        -6.39100         0.01700
| 50>    C        1.95900        -2.86900        -0.00900
| 51>    C        2.62100        -1.62200         0.00900
| 52>    C        5.54300         4.33900        -1.13000
| 53>    C        4.07000        -1.47900        -0.09400
| 54>    C        4.10400         2.75100        -0.02100
| 55>    C        5.02700         2.72900         1.03600
| 56>    C        6.16600         3.50900         0.97800
| 57>    C        7.61900         5.15300        -0.11500
| 58>    C        4.32100        -0.14800        -0.09200
| 59>    C        3.02500         0.51400         0.01500
| 60>    C        4.38700         3.58200        -1.11500
| 61>    C        2.86600         1.91600         0.01300
| 62>    N        6.41300         4.29600        -0.09500
| 63>    H       -3.27600         7.03000         1.72200
| 64>    H        2.27400         4.76600         0.08100
| 65>    H       -4.04600         3.53400        -1.64000
| 66>    H       -5.41800         5.60800        -1.53500
| 67>    H       -4.76600         8.32500        -0.60500
| 68>    H       -6.21900         7.35200        -0.23000
| 69>    H       -5.22700         8.02000         1.09600
| 70>    H       -0.33200         5.28200         0.06900
| 71>    H       -1.81400         5.01700         1.74800
| 72>    H        0.18200         1.07200         0.00500
| 73>    H       -0.18300        -1.08000        -0.02100
| 74>    H       -5.86400        -4.96200         1.89500
| 75>    H       -4.79400         2.27200         0.13900
| 76>    H       -4.80000        -2.16000        -1.99400
| 77>    H       -6.84100        -3.58200        -1.89300
| 78>    H       -8.42800        -4.53600         0.54600
| 79>    H       -7.95600        -5.33700        -0.98100
| 80>    H       -7.45600        -6.03700         0.58400
| 81>    H       -5.28700        -0.34400         0.10000
| 82>    H       -3.78000        -3.60100         1.94700
| 83>    H        3.58700        -6.86800        -1.84300
| 84>    H       -2.27600        -4.77400        -0.05000
| 85>    H        3.71400        -3.72400         1.92600
| 86>    H        5.09200        -5.79500         1.87100
| 87>    H        6.20500        -7.32900        -0.43900
| 88>    H        5.39300        -7.91700         1.04200
| 89>    H        4.75900        -8.37300        -0.56400
| 90>    H        0.32900        -5.29000        -0.00800
| 91>    H        2.14600        -4.84200        -1.94000
| 92>    H        5.80800         4.98600        -1.95600
| 93>    H        4.78800        -2.28100        -0.18500
| 94>    H        4.86000         2.11400         1.91200
| 95>    H        6.90100         3.53100         1.77200
| 96>    H        7.38300         6.10900         0.35600
| 97>    H        8.41400         4.65200         0.43500
| 98>    H        7.92100         5.31000        -1.15000
| 99>    H        5.28300         0.33600        -0.17900
|100>    H        3.72000         3.63200        -1.96700
|101> *
|102>
|103>                          ****END OF INPUT****

CARTESIAN COORDINATES (ANGSTROEM)
---------------------------------
  C     -3.395000    6.230000    1.002000
  C      1.474000    4.041000    0.057000
  C     -2.802000    4.093000    0.049000
  C     -3.840000    4.276000   -0.877000
  C     -4.613000    5.419000   -0.837000
  C     -5.208000    7.606000    0.088000
  C      0.132000    4.307000    0.061000
  C     -0.569000    3.056000    0.047000
  C      1.649000    2.618000    0.023000
  C     -2.591000    5.106000    0.997000
  N     -4.388000    6.375000    0.095000
  N      0.388000    2.067000    0.025000
  N     -2.010000    0.395000   -0.075000
  N     -0.388000   -2.074000   -0.027000
  N      2.010000   -0.401000    0.065000
  C     -1.960000    2.861000    0.024000
  C     -2.623000    1.615000   -0.018000
  C     -5.573000   -4.329000    1.066000
  C     -4.073000    1.471000    0.056000
  C     -4.106000   -2.756000   -0.026000
  C     -4.995000   -2.757000   -1.111000
  C     -6.132000   -3.542000   -1.076000
  C     -7.651000   -5.113000    0.040000
  C     -4.324000    0.141000    0.037000
  C     -3.025000   -0.520000   -0.048000
  C     -4.422000   -3.566000    1.075000
  N     -6.407000   -4.313000    0.001000
  C     -2.867000   -1.922000   -0.040000
  C     -1.650000   -2.624000   -0.027000
  C      3.568000   -6.142000   -1.040000
  C     -1.476000   -4.049000   -0.034000
  C      2.803000   -4.099000   -0.008000
  C      3.657000   -4.384000    1.069000
  C      4.427000   -5.530000    1.059000
  C      5.245000   -7.588000    0.014000
  C     -0.134000   -4.315000   -0.022000
  C      0.568000   -3.064000   -0.027000
  C      2.775000   -5.012000   -1.074000
  N      4.376000   -6.391000    0.017000
  C      1.959000   -2.869000   -0.009000
  C      2.621000   -1.622000    0.009000
  C      5.543000    4.339000   -1.130000
  C      4.070000   -1.479000   -0.094000
  C      4.104000    2.751000   -0.021000
  C      5.027000    2.729000    1.036000
  C      6.166000    3.509000    0.978000
  C      7.619000    5.153000   -0.115000
  C      4.321000   -0.148000   -0.092000
  C      3.025000    0.514000    0.015000
  C      4.387000    3.582000   -1.115000
  C      2.866000    1.916000    0.013000
  N      6.413000    4.296000   -0.095000
  H     -3.276000    7.030000    1.722000
  H      2.274000    4.766000    0.081000
  H     -4.046000    3.534000   -1.640000
  H     -5.418000    5.608000   -1.535000
  H     -4.766000    8.325000   -0.605000
  H     -6.219000    7.352000   -0.230000
  H     -5.227000    8.020000    1.096000
  H     -0.332000    5.282000    0.069000
  H     -1.814000    5.017000    1.748000
  H      0.182000    1.072000    0.005000
  H     -0.183000   -1.080000   -0.021000
  H     -5.864000   -4.962000    1.895000
  H     -4.794000    2.272000    0.139000
  H     -4.800000   -2.160000   -1.994000
  H     -6.841000   -3.582000   -1.893000
  H     -8.428000   -4.536000    0.546000
  H     -7.956000   -5.337000   -0.981000
  H     -7.456000   -6.037000    0.584000
  H     -5.287000   -0.344000    0.100000
  H     -3.780000   -3.601000    1.947000
  H      3.587000   -6.868000   -1.843000
  H     -2.276000   -4.774000   -0.050000
  H      3.714000   -3.724000    1.926000
  H      5.092000   -5.795000    1.871000
  H      6.205000   -7.329000   -0.439000
  H      5.393000   -7.917000    1.042000
  H      4.759000   -8.373000   -0.564000
  H      0.329000   -5.290000   -0.008000
  H      2.146000   -4.842000   -1.940000
  H      5.808000    4.986000   -1.956000
  H      4.788000   -2.281000   -0.185000
  H      4.860000    2.114000    1.912000
  H      6.901000    3.531000    1.772000
  H      7.383000    6.109000    0.356000
  H      8.414000    4.652000    0.435000
  H      7.921000    5.310000   -1.150000
  H      5.283000    0.336000   -0.179000
  H      3.720000    3.632000   -1.967000

 Total Charge           Charge          ....    0
 Multiplicity           Mult            ....    1
 Number of Electrons    NEL             ....  358
 Basis Dimension        Dim             ....  918

ORBITAL ENERGIES
----------------

  NO   OCC          E(Eh)            E(eV)
   0   2.0000     -15.653850      -425.9629
   1   2.0000     -15.639161      -425.5632
   2   2.0000     -15.628664      -425.2776
   3   2.0000     -15.607748      -424.7084
   4   2.0000     -15.521843      -422.3708
   5   2.0000     -15.515604      -422.2011
   6   2.0000     -15.447387      -420.3448
   7   2.0000     -15.443781      -420.2466
   8   2.0000     -11.311853      -307.8112
   9   2.0000     -11.308308      -307.7147
  10   2.0000     -11.305814      -307.6468
  11   2.0000     -11.302490      -307.5564
  12   2.0000     -11.296100      -307.3825
  13   2.0000     -11.295717      -307.3721
  14   2.0000     -11.292739      -307.2911
  15   2.0000     -11.286856      -307.1310
  16   2.0000     -11.284786      -307.0746
  17   2.0000     -11.283827      -307.0485
  18   2.0000     -11.270775      -306.6934
  19   2.0000     -11.268955      -306.6438
  20   2.0000     -11.257551      -306.3335
  21   2.0000     -11.244981      -305.9915
  22   2.0000     -11.244082      -305.9670
  23   2.0000     -11.242619      -305.9272
  24   2.0000     -11.234693      -305.7115
  25   2.0000     -11.234107      -305.6956
  26   2.0000     -11.233194      -305.6707
  27   2.0000     -11.226891      -305.4992
  28   2.0000     -11.226709      -305.4943
  29   2.0000     -11.216508      -305.2167
  30   2.0000     -11.211493      -305.0802
  31   2.0000     -11.211162      -305.0712
  32   2.0000     -11.205140      -304.9074
  33   2.0000     -11.204257      -304.8833
  34   2.0000     -11.191767      -304.5435
  35   2.0000     -11.191413      -304.5338
  36   2.0000     -11.179356      -304.2057
  37   2.0000     -11.176854      -304.1376
  38   2.0000     -11.176522      -304.1286
  39   2.0000     -11.173530      -304.0472
  40   2.0000     -11.167390      -303.8801
  41   2.0000     -11.166679      -303.8608
  42   2.0000     -11.165918      -303.8401
  43   2.0000     -11.165678      -303.8335
  44   2.0000     -11.163575      -303.7763
  45   2.0000     -11.163108      -303.7636
  46   2.0000     -11.150390      -303.4176
  47   2.0000     -11.149352      -303.3893
  48   2.0000     -11.147243      -303.3319
  49   2.0000     -11.146135      -303.3017
  50   2.0000     -11.138726      -303.1001
  51   2.0000     -11.134496      -302.9850
  52   2.0000      -1.338258       -36.4158
  53   2.0000      -1.325646       -36.0727
  54   2.0000      -1.316664       -35.8282
  55   2.0000      -1.299532       -35.3620
  56   2.0000      -1.221413       -33.2363
  57   2.0000      -1.211377       -32.9633
  58   2.0000      -1.164623       -31.6910
  59   2.0000      -1.156080       -31.4585
  60   2.0000      -1.124882       -30.6096
  61   2.0000      -1.113731       -30.3062
  62   2.0000      -1.106030       -30.0966
  63   2.0000      -1.092503       -29.7285
  64   2.0000      -1.061483       -28.8844
  65   2.0000      -1.049542       -28.5595
  66   2.0000      -1.041322       -28.3358
  67   2.0000      -1.030087       -28.0301
  68   2.0000      -1.026046       -27.9201
  69   2.0000      -1.012448       -27.5501
  70   2.0000      -1.009355       -27.4659
  71   2.0000      -0.994609       -27.0647
  72   2.0000      -0.985792       -26.8248
  73   2.0000      -0.974299       -26.5120
  74   2.0000      -0.972848       -26.4725
  75   2.0000      -0.958783       -26.0898
  76   2.0000      -0.951406       -25.8891
  77   2.0000      -0.946125       -25.7454
  78   2.0000      -0.938174       -25.5290
  79   2.0000      -0.922546       -25.1038
  80   2.0000      -0.895784       -24.3755
  81   2.0000      -0.886055       -24.1108
  82   2.0000      -0.876360       -23.8470
  83   2.0000      -0.869055       -23.6482
  84   2.0000      -0.862642       -23.4737
  85   2.0000      -0.854987       -23.2654
  86   2.0000      -0.848139       -23.0790
  87   2.0000      -0.840664       -22.8756
  88   2.0000      -0.821833       -22.3632
  89   2.0000      -0.798759       -21.7353
  90   2.0000      -0.796496       -21.6738
  91   2.0000      -0.741272       -20.1710
  92   2.0000      -0.734341       -19.9824
  93   2.0000      -0.730648       -19.8820
  94   2.0000      -0.722334       -19.6557
  95   2.0000      -0.719488       -19.5783
  96   2.0000      -0.712796       -19.3962
  97   2.0000      -0.705704       -19.2032
  98   2.0000      -0.700338       -19.0572
  99   2.0000      -0.695045       -18.9131
 100   2.0000      -0.690034       -18.7768
 101   2.0000      -0.681353       -18.5405
 102   2.0000      -0.678792       -18.4709
 103   2.0000      -0.673685       -18.3319
 104   2.0000      -0.670233       -18.2380
 105   2.0000      -0.667320       -18.1587
 106   2.0000      -0.664314       -18.0769
 107   2.0000      -0.660292       -17.9675
 108   2.0000      -0.657475       -17.8908
 109   2.0000      -0.656568       -17.8661
 110   2.0000      -0.651363       -17.7245
 111   2.0000      -0.648769       -17.6539
 112   2.0000      -0.644623       -17.5411
 113   2.0000      -0.637119       -17.3369
 114   2.0000      -0.634762       -17.2728
 115   2.0000      -0.627195       -17.0668
 116   2.0000      -0.622810       -16.9475
 117   2.0000      -0.616308       -16.7706
 118   2.0000      -0.612491       -16.6667
 119   2.0000      -0.610765       -16.6198
 120   2.0000      -0.608552       -16.5595
 121   2.0000      -0.602552       -16.3963
 122   2.0000      -0.594752       -16.1840
 123   2.0000      -0.594002       -16.1636
 124   2.0000      -0.590892       -16.0790
 125   2.0000      -0.584922       -15.9165
 126   2.0000      -0.578375       -15.7384
 127   2.0000      -0.575149       -15.6506
 128   2.0000      -0.565586       -15.3904
 129   2.0000      -0.558979       -15.2106
 130   2.0000      -0.553867       -15.0715
 131   2.0000      -0.548802       -14.9336
 132   2.0000      -0.541920       -14.7464
 133   2.0000      -0.537166       -14.6170
 134   2.0000      -0.534165       -14.5354
 135   2.0000      -0.529642       -14.4123
 136   2.0000      -0.525657       -14.3038
 137   2.0000      -0.522806       -14.2263
 138   2.0000      -0.518631       -14.1127
 139   2.0000      -0.517343       -14.0776
 140   2.0000      -0.509697       -13.8696
 141   2.0000      -0.507499       -13.8097
 142   2.0000      -0.506937       -13.7945
 143   2.0000      -0.501377       -13.6432
 144   2.0000      -0.500072       -13.6077
 145   2.0000      -0.498003       -13.5514
 146   2.0000      -0.494113       -13.4455
 147   2.0000      -0.490378       -13.3439
 148   2.0000      -0.488612       -13.2958
 149   2.0000      -0.469255       -12.7691
 150   2.0000      -0.462061       -12.5733
 151   2.0000      -0.453729       -12.3466
 152   2.0000      -0.448307       -12.1991
 153   2.0000      -0.446577       -12.1520
 154   2.0000      -0.446220       -12.1423
 155   2.0000      -0.439404       -11.9568
 156   2.0000      -0.434979       -11.8364
 157   2.0000      -0.430361       -11.7107
 158   2.0000      -0.395593       -10.7646
 159   2.0000      -0.384052       -10.4506
 160   2.0000      -0.379347       -10.3225
 161   2.0000      -0.371502       -10.1091
 162   2.0000      -0.370030       -10.0690
 163   2.0000      -0.359954        -9.7948
 164   2.0000      -0.353102        -9.6084
 165   2.0000      -0.339226        -9.2308
 166   2.0000      -0.337278        -9.1778
 167   2.0000      -0.334836        -9.1114
 168   2.0000      -0.329017        -8.9530
 169   2.0000      -0.300144        -8.1673
 170   2.0000      -0.299403        -8.1472
 171   2.0000      -0.287858        -7.8330
 172   2.0000      -0.286078        -7.7846
 173   2.0000      -0.257136        -6.9970
 174   2.0000      -0.247099        -6.7239
 175   2.0000      -0.188828        -5.1383
 176   2.0000      -0.178873        -4.8674
 177   2.0000      -0.069175        -1.8823
 178   2.0000      -0.056020        -1.5244
 179   0.0000       0.029875         0.8129
 180   0.0000       0.069420         1.8890
 181   0.0000       0.092761         2.5242
 182   0.0000       0.101076         2.7504
 183   0.0000       0.123800         3.3688

MULLIKEN ATOMIC CHARGES
-----------------------
   0 C :    0.205210
   1 N :   -0.449130
   2 C :   -0.064367
   3 N :   -0.336571
   4 C :   -0.062025
   5 N :   -0.560966
   6 C :   -0.083355
   7 N :   -0.339112
   8 C :    0.202004
   9 N :   -0.562770
  10 C :    0.117224
  11 N :   -0.437361
  12 C :   -0.074456
  13 N :   -0.435499
  14 C :    0.234634
  15 N :   -0.441084
  16 C :    0.231501
  17 C :   -0.090383
  18 C :   -0.191253
  19 C :    0.222163
  20 C :    0.211566
  21 C :   -0.083805
  22 C :   -0.087059
  23 C :   -0.044889
  24 C :    0.201637
  25 C :    0.113847
  26 C :   -0.073441
  27 C :    0.216739
  28 C :   -0.055988
  29 C :   -0.182467
  30 C :    0.239887
  31 C :    0.219736
  32 C :   -0.063356
  33 C :   -0.072750
  34 C :   -0.049629
  35 C :    0.213481
  36 C :    0.111662
  37 C :   -0.065581
  38 C :    0.235290
  39 C :   -0.060526
  40 C :   -0.185171
  41 C :    0.221892
  42 C :    0.200121
  43 C :   -0.073316
  44 C :   -0.090014
  45 C :   -0.056759
  46 C :    0.206355
  47 C :    0.115664
  48 C :   -0.071829
  49 C :    0.231195
  50 C :   -0.049937
  51 C :   -0.191380
  52 H :    0.047374
  53 H :   -0.015194
  54 H :    0.046086
  55 H :    0.045443
  56 H :    0.053289
  57 H :    0.052113
  58 H :    0.051492
  59 H :   -0.006607
  60 H :    0.046542
  61 H :    0.171806
  62 H :    0.174175
  63 H :    0.057041
  64 H :   -0.012667
  65 H :    0.046829
  66 H :    0.057409
  67 H :    0.063485
  68 H :    0.058168
  69 H :    0.058357
  70 H :   -0.026319
  71 H :    0.047555
  72 H :    0.062726
  73 H :   -0.011458
  74 H :    0.052523
  75 H :    0.061838
  76 H :    0.067448
  77 H :    0.062272
  78 H :    0.061432
  79 H :   -0.014589
  80 H :    0.052929
  81 H :    0.053630
  82 H :   -0.024494
  83 H :    0.041975
  84 H :    0.053090
  85 H :    0.059414
  86 H :    0.055653
  87 H :    0.056707
  88 H :   -0.018798
  89 H :    0.045745
Sum of atomic charges:   -0.0000000

LOEWDIN ATOMIC CHARGES
----------------------
   0 C :   -0.013262
   1 N :    0.124451
   2 C :   -0.100787
   3 N :    0.180647
   4 C :    0.013087
   5 N :   -0.133901
   6 C :   -0.028530
   7 N :    0.176651
   8 C :   -0.016151
   9 N :   -0.139485
  10 C :    0.025922
  11 N :    0.144801
  12 C :   -0.103641
  13 N :    0.152001
  14 C :   -0.039629
  15 N :    0.137999
  16 C :   -0.052411
  17 C :   -0.033679
  18 C :   -0.103772
  19 C :   -0.086753
  20 C :    0.003741
  21 C :   -0.107684
  22 C :    0.042308
  23 C :   -0.017694
  24 C :   -0.004906
  25 C :    0.030475
  26 C :   -0.105643
  27 C :   -0.105137
  28 C :   -0.023212
  29 C :   -0.103000
  30 C :   -0.039669
  31 C :    0.011692
  32 C :   -0.096362
  33 C :    0.057791
  34 C :   -0.017214
  35 C :    0.006398
  36 C :    0.032017
  37 C :   -0.097939
  38 C :   -0.044791
  39 C :   -0.022397
  40 C :   -0.108219
  41 C :   -0.094343
  42 C :   -0.008244
  43 C :   -0.102826
  44 C :    0.032540
  45 C :   -0.025297
  46 C :   -0.002886
  47 C :    0.029222
  48 C :   -0.101284
  49 C :   -0.080795
  50 C :   -0.021231
  51 C :   -0.109287
  52 H :    0.026428
  53 H :    0.003775
  54 H :    0.041831
  55 H :    0.026140
  56 H :    0.023579
  57 H :    0.028319
  58 H :    0.029028
  59 H :    0.006389
  60 H :    0.041321
  61 H :    0.060174
  62 H :    0.061171
  63 H :    0.031391
  64 H :    0.001645
  65 H :    0.045538
  66 H :    0.030289
  67 H :    0.028805
  68 H :    0.032055
  69 H :    0.031186
  70 H :   -0.003031
  71 H :    0.044959
  72 H :    0.033711
  73 H :    0.005451
  74 H :    0.047422
  75 H :    0.033052
  76 H :    0.030918
  77 H :    0.033490
  78 H :    0.033127
  79 H :    0.003964
  80 H :    0.047027
  81 H :    0.028873
  82 H :   -0.002440
  83 H :    0.042798
  84 H :    0.029221
  85 H :    0.026699
  86 H :    0.030185
  87 H :    0.031163
  88 H :    0.000332
  89 H :    0.044334

  Mayer bond orders larger than 0.100000
B(  0-C ,  1-N ) :   1.1019 B(  0-C , 17-C ) :   1.6718 B(  0-C , 52-H ) :   0.9687
B(  1-N ,  8-C ) :   1.0948 B(  1-N , 10-C ) :   0.9711 B(  2-C , 12-C ) :   1.5259
B(  2-C , 16-C ) :   1.3361 B(  2-C , 53-H ) :   0.9773 B(  3-N , 14-C ) :   1.2108
B(  3-N , 16-C ) :   1.1937 B(  3-N , 61-H ) :   0.8991 B(  4-C ,  6-C ) :   1.2355
B(  4-C , 17-C ) :   1.2336 B(  4-C , 18-C ) :   1.3495 B(  5-N , 19-C ) :   1.4364
B(  5-N , 27-C ) :   1.3926 B(  6-C ,  8-C ) :   1.6735 B(  6-C , 54-H ) :   0.9686
B(  7-N , 30-C ) :   1.1933 B(  7-N , 38-C ) :   1.1975 B(  7-N , 62-H ) :   0.8975
B(  8-C , 55-H ) :   0.9701 B(  9-N , 41-C ) :   1.3999 B(  9-N , 49-C ) :   1.4227
B( 10-C , 56-H ) :   0.9764 B( 10-C , 57-H ) :   0.9828 B( 10-C , 58-H ) :   0.9833
B( 11-N , 20-C ) :   1.1293 B( 11-N , 24-C ) :   1.1179 B( 11-N , 25-C ) :   0.9580
B( 12-C , 14-C ) :   1.3392 B( 12-C , 59-H ) :   0.9756 B( 13-N , 31-C ) :   1.1403
B( 13-N , 35-C ) :   1.1335 B( 13-N , 36-C ) :   0.9521 B( 14-C , 18-C ) :   1.1678
B( 15-N , 42-C ) :   1.1111 B( 15-N , 46-C ) :   1.1178 B( 15-N , 47-C ) :   0.9623
B( 16-C , 51-C ) :   1.1880 B( 17-C , 60-H ) :   0.9691 B( 18-C , 19-C ) :   1.1764
B( 19-C , 21-C ) :   1.2265 B( 20-C , 28-C ) :   1.6233 B( 20-C , 63-H ) :   0.9702
B( 21-C , 26-C ) :   1.6312 B( 21-C , 64-H ) :   0.9721 B( 22-C , 23-C ) :   1.2882
B( 22-C , 28-C ) :   1.2721 B( 22-C , 29-C ) :   1.2226 B( 23-C , 24-C ) :   1.6165
B( 23-C , 65-H ) :   0.9707 B( 24-C , 66-H ) :   0.9693 B( 25-C , 67-H ) :   0.9761
B( 25-C , 68-H ) :   0.9828 B( 25-C , 69-H ) :   0.9822 B( 26-C , 27-C ) :   1.2217
B( 26-C , 70-H ) :   0.9723 B( 27-C , 29-C ) :   1.2230 B( 28-C , 71-H ) :   0.9716
B( 29-C , 30-C ) :   1.2268 B( 30-C , 32-C ) :   1.2969 B( 31-C , 39-C ) :   1.6128
B( 31-C , 72-H ) :   0.9690 B( 32-C , 37-C ) :   1.5618 B( 32-C , 73-H ) :   0.9781
B( 33-C , 34-C ) :   1.2896 B( 33-C , 39-C ) :   1.2824 B( 33-C , 40-C ) :   1.2168
B( 34-C , 35-C ) :   1.6095 B( 34-C , 74-H ) :   0.9701 B( 35-C , 75-H ) :   0.9691
B( 36-C , 76-H ) :   0.9765 B( 36-C , 77-H ) :   0.9819 B( 36-C , 78-H ) :   0.9828
B( 37-C , 38-C ) :   1.2996 B( 37-C , 79-H ) :   0.9773 B( 38-C , 40-C ) :   1.2202
B( 39-C , 80-H ) :   0.9712 B( 40-C , 41-C ) :   1.2318 B( 41-C , 43-C ) :   1.2034
B( 42-C , 50-C ) :   1.6346 B( 42-C , 81-H ) :   0.9696 B( 43-C , 48-C ) :   1.6481
B( 43-C , 82-H ) :   0.9730 B( 44-C , 45-C ) :   1.2662 B( 44-C , 50-C ) :   1.2683
B( 44-C , 51-C ) :   1.2605 B( 45-C , 46-C ) :   1.6349 B( 45-C , 83-H ) :   0.9715
B( 46-C , 84-H ) :   0.9702 B( 47-C , 85-H ) :   0.9762 B( 47-C , 86-H ) :   0.9829
B( 47-C , 87-H ) :   0.9825 B( 48-C , 49-C ) :   1.2051 B( 48-C , 88-H ) :   0.9743
B( 49-C , 51-C ) :   1.2253 B( 50-C , 89-H ) :   0.9711

MP2 TOTAL ENERGY:    -2130.915885082 Eh
FINAL SINGLE POINT ENERGY     -2130.915885081755

DIPOLE MOMENT
-------------
                                X             Y             Z
Electronic contribution:      0.88691      -2.44661      -0.05908
Nuclear contribution   :      0.01537       0.19757       0.07046
                        -----------------------------------------
Total Dipole Moment    :      0.90228      -2.24904       0.01138
                        -----------------------------------------
Magnitude (a.u.)       :      2.42331
Magnitude (Debye)      :      6.15956

Rotational constants in cm-1:     0.001500     0.001474     0.000762
Rotational constants in MHz :    44.977936    44.191593    22.833722

                             ****ORCA TERMINATED NORMALLY****
TOTAL RUN TIME: 0 days 1 hours 8 minutes 3 seconds 1 msec
