                         Program Version 5.0.4 -  RELEASE  -
|  1> ! PAL2
|  2> ! mp2 cc-pvdz TightSCF  NoKeepInts
|  3>
|  4> %scf
|  5>   MaxCore 2000
|  6> end
|  7> %mp2
|  8>   MaxCore 2000
|  9> end
| 10> * xyz 0 1
| 11>    C       -4.69700         5.34200         0.86900
| 12>    C        1.47400         4.04100         0.05700
| 13>    C       -2.80200         4.09300         0.04900
| 14>    C       -2.49200         5.19500        -0.76300
| 15>    C       -3.28500         6.32500        -0.73100
| 16>    C       -5.17800         7.62600         0.11300
| 17>    C        0.13200         4.30700         0.06100
| 18>    C       -0.56900         3.05600         0.04700
| 19>    C        1.64900         2.61800         0.02300
| 20>    C       -3.93100         4.19300         0.87700
| 21>    N       -4.37100         6.38600         0.07400
| 22>    N        0.38800         2.06700         0.02500
| 23>    N       -2.01000         0.39500        -0.07500
| 24>    N       -0.38800        -2.07400        -0.02700
| 25>    N        2.01000        -0.40100         0.06500
| 26>    C       -1.96000         2.86100         0.02400
| 27>    C       -2.62300         1.61500        -0.01800
| 28>    C       -5.57300        -4.32900         1.06600
| 29>    C       -4.07300         1.47100         0.05600
| 30>    C       -4.10600        -2.75600        -0.02600
| 31>    C       -4.99500        -2.75700        -1.11100
| 32>    C       -6.13200        -3.54200        -1.07600
| 33>    C       -7.65100        -5.11300         0.04000
| 34>    C       -4.32400         0.14100         0.03700
| 35>    C       -3.02500        -0.52000        -0.04800
| 36>    C       -4.42200        -3.56600         1.07500
| 37>    N       -6.40700        -4.31300         0.00100
| 38>    C       -2.86700        -1.92200        -0.04000
| 39>    C       -1.65000        -2.62400        -0.02700
| 40>    C        3.56800        -6.14200        -1.04000
| 41>    C       -1.47600        -4.04900        -0.03400
| 42>    C        2.80300        -4.09900        -0.00800
| 43>    C        3.65700        -4.38400         1.06900
| 44>    C        4.42700        -5.53000         1.05900
| 45>    C        5.24500        -7.58800         0.01400
| 46>    C       -0.13400        -4.31500        -0.02200
| 47>    C        0.56800        -3.06400        -0.02700
| 48>    C        2.77500        -5.01200        -1.07400
| 49>    N        4.37600        -6.39100         0.01700
| 50>    C        1.95900        -2.86900        -0.00900
| 51>    C        2.62100        -1.62200         0.00900
| 52>    C        5.54300         4.33900        -1.13000
| 53>    C        4.07000        -1.47900        -0.09400
| 54>    C        4.10400         2.75100        -0.02100
| 55>    C        5.02700         2.72900         1.03600
| 56>    C        6.16600         3.50900         0.97800
| 57>    C        7.61900         5.15300        -0.11500
| 58>    C        4.32100        -0.14800        -0.09200
| 59>    C        3.02500         0.51400         0.01500
| 60>    C        4.38700         3.58200        -1.11500
| 61>    C        2.86600         1.91600         0.01300
| 62>    N        6.41300         4.29600        -0.09500
| 63>    H       -5.58300         5.45800         1.48200
| 64>    H        2.27400         4.76600         0.08100
| 65>    H       -1.62800         5.18200        -1.41600
| 66>    H       -3.08100         7.20200        -1.33200
| 67>    H       -4.73500         8.31700         0.83400
| 68>    H       -5.18400         8.07300        -0.88100
| 69>    H       -6.19400         7.37300         0.41400
| 70>    H       -0.33200         5.28200         0.06900
| 71>    H       -4.23100         3.37000         1.51600
| 72>    H        0.18200         1.07200         0.00500
| 73>    H       -0.18300        -1.08000        -0.02100
| 74>    H       -5.86400        -4.96200         1.89500
| 75>    H       -4.79400         2.27200         0.13900
| 76>    H       -4.80000        -2.16000        -1.99400
| 77>    H       -6.84100        -3.58200        -1.89300
| 78>    H       -8.42800        -4.53600         0.54600
| 79>    H       -7.95600        -5.33700        -0.98100
| 80>    H       -7.45600        -6.03700         0.58400
| 81>    H       -5.28700        -0.34400         0.10000
| 82>    H       -3.78000        -3.60100         1.94700
| 83>    H        3.58700        -6.86800        -1.84300
| 84>    H       -2.27600        -4.77400        -0.05000
| 85>    H        3.71400        -3.72400         1.92600
| 86>    H        5.09200        -5.79500         1.87100
| 87>    H        6.20500        -7.32900        -0.43900
| 88>    H        5.39300        -7.91700         1.04200
| 89>    H        4.75900        -8.37300        -0.56400
| 90>    H        0.32900        -5.29000        -0.00800
| 91>    H        2.14600        -4.84200        -1.94000
| 92>    H        5.80800         4.98600        -1.95600
| 93>    H        4.78800        -2.28100        -0.18500
| 94>    H        4.86000         2.11400         1.91200
| 95>    H        6.90100         3.53100         1.77200
| 96>    H        7.38300         6.10900         0.35600
| 97>    H        8.41400         4.65200         0.43500
| 98>    H        7.92100         5.31000        -1.15000
| 99>    H        5.28300         0.33600        -0.17900
|100>    H        3.72000         3.63200        -1.96700
|101> *
|102>
|103>                          ****END OF INPUT****

CARTESIAN COORDINATES (ANGSTROEM)
---------------------------------
  C     -4.697000    5.342000    0.869000
  C      1.474000    4.041000    0.057000
  C     -2.802000    4.093000    0.049000
  C     -2.492000    5.195000   -0.763000
  C     -3.285000    6.325000   -0.731000
  C     -5.178000    7.626000    0.113000
  C      0.132000    4.307000    0.061000
  C     -0.569000    3.056000    0.047000
  C      1.649000    2.618000    0.023000
  C     -3.931000    4.193000    0.877000
  N     -4.371000    6.386000    0.074000
  N      0.388000    2.067000    0.025000
  N     -2.010000    0.395000   -0.075000
  N     -0.388000   -2.074000   -0.027000
  N      2.010000   -0.401000    0.065000
  C     -1.960000    2.861000    0.024000
  C     -2.623000    1.615000   -0.018000
  C     -5.573000   -4.329000    1.066000
  C     -4.073000    1.471000    0.056000
  C     -4.106000   -2.756000   -0.026000
  C     -4.995000   -2.757000   -1.111000
  C     -6.132000   -3.542000   -1.076000
  C     -7.651000   -5.113000    0.040000
  C     -4.324000    0.141000    0.037000
  C     -3.025000   -0.520000   -0.048000
  C     -4.422000   -3.566000    1.075000
  N     -6.407000   -4.313000    0.001000
  C     -2.867000   -1.922000   -0.040000
  C     -1.650000   -2.624000   -0.027000
  C      3.568000   -6.142000   -1.040000
  C     -1.476000   -4.049000   -0.034000
  C      2.803000   -4.099000   -0.008000
  C      3.657000   -4.384000    1.069000
  C      4.427000   -5.530000    1.059000
  C      5.245000   -7.588000    0.014000
  C     -0.134000   -4.315000   -0.022000
  C      0.568000   -3.064000   -0.027000
  C      2.775000   -5.012000   -1.074000
  N      4.376000   -6.391000    0.017000
  C      1.959000   -2.869000   -0.009000
  C      2.621000   -1.622000    0.009000
  C      5.543000    4.339000   -1.130000
  C      4.070000   -1.479000   -0.094000
  C      4.104000    2.751000   -0.021000
  C      5.027000    2.729000    1.036000
  C      6.166000    3.509000    0.978000
  C      7.619000    5.153000   -0.115000
  C      4.321000   -0.148000   -0.092000
  C      3.025000    0.514000    0.015000
  C      4.387000    3.582000   -1.115000
  C      2.866000    1.916000    0.013000
  N      6.413000    4.296000   -0.095000
  H     -5.583000    5.458000    1.482000
  H      2.274000    4.766000    0.081000
  H     -1.628000    5.182000   -1.416000
  H     -3.081000    7.202000   -1.332000
  H     -4.735000    8.317000    0.834000
  H     -5.184000    8.073000   -0.881000
  H     -6.194000    7.373000    0.414000
  H     -0.332000    5.282000    0.069000
  H     -4.231000    3.370000    1.516000
  H      0.182000    1.072000    0.005000
  H     -0.183000   -1.080000   -0.021000
  H     -5.864000   -4.962000    1.895000
  H     -4.794000    2.272000    0.139000
  H     -4.800000   -2.160000   -1.994000
  H     -6.841000   -3.582000   -1.893000
  H     -8.428000   -4.536000    0.546000
  H     -7.956000   -5.337000   -0.981000
  H     -7.456000   -6.037000    0.584000
  H     -5.287000   -0.344000    0.100000
  H     -3.780000   -3.601000    1.947000
  H      3.587000   -6.868000   -1.843000
  H     -2.276000   -4.774000   -0.050000
  H      3.714000   -3.724000    1.926000
  H      5.092000   -5.795000    1.871000
  H      6.205000   -7.329000   -0.439000
  H      5.393000   -7.917000    1.042000
  H      4.759000   -8.373000   -0.564000
  H      0.329000   -5.290000   -0.008000
  H      2.146000   -4.842000   -1.940000
  H      5.808000    4.986000   -1.956000
  H      4.788000   -2.281000   -0.185000
  H      4.860000    2.114000    1.912000
  H      6.901000    3.531000    1.772000
  H      7.383000    6.109000    0.356000
  H      8.414000    4.652000    0.435000
  H      7.921000    5.310000   -1.150000
  H      5.283000    0.336000   -0.179000
  H      3.720000    3.632000   -1.967000

 Total Charge           Charge          ....    0
 Multiplicity           Mult            ....    1
 Number of Electrons    NEL             ....  358
 Basis Dimension        Dim             ....  918

ORBITAL ENERGIES
----------------

  NO   OCC          E(Eh)            E(eV)
   0   2.0000     -15.660151      -426.1344
   1   2.0000     -15.636835      -425.4999
   2   2.0000     -15.629818      -425.3090
   3   2.0000     -15.602592      -424.5681
   4   2.0000     -15.522726      -422.3949
   5   2.0000     -15.516360      -422.2216
   6   2.0000     -15.449298      -420.3968
   7   2.0000     -15.442820      -420.2205
   8   2.0000     -11.315779      -307.9180
   9   2.0000     -11.313385      -307.8529
  10   2.0000     -11.311427      -307.7996
  11   2.0000     -11.301075      -307.5179
  12   2.0000     -11.296937      -307.4053
  13   2.0000     -11.294288      -307.3332
  14   2.0000     -11.290110      -307.2195
  15   2.0000     -11.288224      -307.1682
  16   2.0000     -11.285704      -307.0996
  17   2.0000     -11.280675      -306.9628
  18   2.0000     -11.265942      -306.5619
  19   2.0000     -11.265279      -306.5438
  20   2.0000     -11.263552      -306.4968
  21   2.0000     -11.249493      -306.1143
  22   2.0000     -11.248574      -306.0893
  23   2.0000     -11.240292      -305.8639
  24   2.0000     -11.234483      -305.7058
  25   2.0000     -11.233133      -305.6691
  26   2.0000     -11.232348      -305.6477
  27   2.0000     -11.228046      -305.5307
  28   2.0000     -11.227926      -305.5274
  29   2.0000     -11.211737      -305.0869
  30   2.0000     -11.207014      -304.9584
  31   2.0000     -11.206273      -304.9382
  32   2.0000     -11.205369      -304.9136
  33   2.0000     -11.205137      -304.9073
  34   2.0000     -11.191625      -304.5396
  35   2.0000     -11.191036      -304.5236
  36   2.0000     -11.182432      -304.2894
  37   2.0000     -11.180341      -304.2325
  38   2.0000     -11.179674      -304.2144
  39   2.0000     -11.172760      -304.0263
  40   2.0000     -11.168872      -303.9205
  41   2.0000     -11.167451      -303.8818
  42   2.0000     -11.165141      -303.8189
  43   2.0000     -11.164274      -303.7953
  44   2.0000     -11.163522      -303.7749
  45   2.0000     -11.161734      -303.7262
  46   2.0000     -11.153024      -303.4892
  47   2.0000     -11.150154      -303.4111
  48   2.0000     -11.149471      -303.3925
  49   2.0000     -11.145511      -303.2848
  50   2.0000     -11.137075      -303.0552
  51   2.0000     -11.131003      -302.8900
  52   2.0000      -1.343654       -36.5627
  53   2.0000      -1.323652       -36.0184
  54   2.0000      -1.317757       -35.8580
  55   2.0000      -1.295313       -35.2473
  56   2.0000      -1.222436       -33.2642
  57   2.0000      -1.211536       -32.9676
  58   2.0000      -1.167158       -31.7600
  59   2.0000      -1.154858       -31.4253
  60   2.0000      -1.129493       -30.7351
  61   2.0000      -1.112087       -30.2614
  62   2.0000      -1.107233       -30.1293
  63   2.0000      -1.089081       -29.6354
  64   2.0000      -1.066520       -29.0215
  65   2.0000      -1.047659       -28.5082
  66   2.0000      -1.042463       -28.3669
  67   2.0000      -1.032290       -28.0900
  68   2.0000      -1.022481       -27.8231
  69   2.0000      -1.013010       -27.5654
  70   2.0000      -1.009731       -27.4762
  71   2.0000      -0.993429       -27.0326
  72   2.0000      -0.986645       -26.8480
  73   2.0000      -0.975579       -26.5469
  74   2.0000      -0.973286       -26.4845
  75   2.0000      -0.959456       -26.1081
  76   2.0000      -0.950775       -25.8719
  77   2.0000      -0.948110       -25.7994
  78   2.0000      -0.937050       -25.4984
  79   2.0000      -0.922000       -25.0889
  80   2.0000      -0.898315       -24.4444
  81   2.0000      -0.889294       -24.1989
  82   2.0000      -0.874946       -23.8085
  83   2.0000      -0.870201       -23.6794
  84   2.0000      -0.864384       -23.5211
  85   2.0000      -0.855585       -23.2817
  86   2.0000      -0.846447       -23.0330
  87   2.0000      -0.839002       -22.8304
  88   2.0000      -0.822456       -22.3802
  89   2.0000      -0.798696       -21.7336
  90   2.0000      -0.795484       -21.6462
  91   2.0000      -0.743439       -20.2300
  92   2.0000      -0.736728       -20.0474
  93   2.0000      -0.731104       -19.8944
  94   2.0000      -0.722412       -19.6578
  95   2.0000      -0.720579       -19.6080
  96   2.0000      -0.713538       -19.4164
  97   2.0000      -0.706456       -19.2237
  98   2.0000      -0.701962       -19.1014
  99   2.0000      -0.695518       -18.9260
 100   2.0000      -0.692743       -18.8505
 101   2.0000      -0.681615       -18.5477
 102   2.0000      -0.678769       -18.4703
 103   2.0000      -0.675279       -18.3753
 104   2.0000      -0.671703       -18.2780
 105   2.0000      -0.671187       -18.2639
 106   2.0000      -0.663683       -18.0597
 107   2.0000      -0.662949       -18.0398
 108   2.0000      -0.655686       -17.8421
 109   2.0000      -0.654319       -17.8049
 110   2.0000      -0.650806       -17.7093
 111   2.0000      -0.648067       -17.6348
 112   2.0000      -0.643661       -17.5149
 113   2.0000      -0.637271       -17.3410
 114   2.0000      -0.632527       -17.2119
 115   2.0000      -0.631815       -17.1925
 116   2.0000      -0.624916       -17.0048
 117   2.0000      -0.615071       -16.7369
 118   2.0000      -0.614312       -16.7163
 119   2.0000      -0.611103       -16.6290
 120   2.0000      -0.609682       -16.5903
 121   2.0000      -0.602002       -16.3813
 122   2.0000      -0.598698       -16.2914
 123   2.0000      -0.590600       -16.0710
 124   2.0000      -0.587801       -15.9949
 125   2.0000      -0.583165       -15.8687
 126   2.0000      -0.579252       -15.7622
 127   2.0000      -0.576206       -15.6794
 128   2.0000      -0.563824       -15.3424
 129   2.0000      -0.558567       -15.1994
 130   2.0000      -0.554450       -15.0874
 131   2.0000      -0.549313       -14.9476
 132   2.0000      -0.541379       -14.7317
 133   2.0000      -0.537688       -14.6312
 134   2.0000      -0.534920       -14.5559
 135   2.0000      -0.532814       -14.4986
 136   2.0000      -0.526290       -14.3211
 137   2.0000      -0.524198       -14.2642
 138   2.0000      -0.517071       -14.0702
 139   2.0000      -0.516582       -14.0569
 140   2.0000      -0.510879       -13.9017
 141   2.0000      -0.509097       -13.8532
 142   2.0000      -0.507774       -13.8172
 143   2.0000      -0.502004       -13.6602
 144   2.0000      -0.501246       -13.6396
 145   2.0000      -0.498144       -13.5552
 146   2.0000      -0.494320       -13.4511
 147   2.0000      -0.487468       -13.2647
 148   2.0000      -0.486421       -13.2362
 149   2.0000      -0.469098       -12.7648
 150   2.0000      -0.463245       -12.6055
 151   2.0000      -0.455362       -12.3910
 152   2.0000      -0.448218       -12.1966
 153   2.0000      -0.446683       -12.1549
 154   2.0000      -0.445686       -12.1277
 155   2.0000      -0.440634       -11.9903
 156   2.0000      -0.432968       -11.7817
 157   2.0000      -0.427730       -11.6391
 158   2.0000      -0.398412       -10.8413
 159   2.0000      -0.386992       -10.5306
 160   2.0000      -0.378206       -10.2915
 161   2.0000      -0.374342       -10.1864
 162   2.0000      -0.370707       -10.0874
 163   2.0000      -0.358412        -9.7529
 164   2.0000      -0.354194        -9.6381
 165   2.0000      -0.337564        -9.1856
 166   2.0000      -0.336518        -9.1571
 167   2.0000      -0.334667        -9.1067
 168   2.0000      -0.327934        -8.9235
 169   2.0000      -0.300825        -8.1859
 170   2.0000      -0.299845        -8.1592
 171   2.0000      -0.287589        -7.8257
 172   2.0000      -0.285271        -7.7626
 173   2.0000      -0.259382        -7.0581
 174   2.0000      -0.246072        -6.6960
 175   2.0000      -0.189274        -5.1504
 176   2.0000      -0.179427        -4.8825
 177   2.0000      -0.071177        -1.9368
 178   2.0000      -0.056538        -1.5385
 179   0.0000       0.029433         0.8009
 180   0.0000       0.068690         1.8692
 181   0.0000       0.092303         2.5117
 182   0.0000       0.103570         2.8183
 183   0.0000       0.119399         3.2490

MULLIKEN ATOMIC CHARGES
-----------------------
   0 C :    0.208186
   1 N :   -0.450757
   2 C :   -0.062692
   3 N :   -0.335977
   4 C :   -0.051190
   5 N :   -0.562823
   6 C :   -0.098455
   7 N :   -0.339198
   8 C :    0.203248
   9 N :   -0.562764
  10 C :    0.117566
  11 N :   -0.437797
  12 C :   -0.082096
  13 N :   -0.434081
  14 C :    0.242425
  15 N :   -0.441061
  16 C :    0.228767
  17 C :   -0.101982
  18 C :   -0.210780
  19 C :    0.236669
  20 C :    0.211603
  21 C :   -0.094502
  22 C :   -0.089612
  23 C :   -0.043109
  24 C :    0.198677
  25 C :    0.114200
  26 C :   -0.073556
  27 C :    0.215327
  28 C :   -0.057980
  29 C :   -0.181210
  30 C :    0.241468
  31 C :    0.222023
  32 C :   -0.063241
  33 C :   -0.069655
  34 C :   -0.050390
  35 C :    0.217462
  36 C :    0.110820
  37 C :   -0.065522
  38 C :    0.233985
  39 C :   -0.059461
  40 C :   -0.184694
  41 C :    0.223735
  42 C :    0.199489
  43 C :   -0.072789
  44 C :   -0.089681
  45 C :   -0.057630
  46 C :    0.207851
  47 C :    0.115543
  48 C :   -0.070111
  49 C :    0.233540
  50 C :   -0.049241
  51 C :   -0.190304
  52 H :    0.045559
  53 H :   -0.015352
  54 H :    0.047959
  55 H :    0.043416
  56 H :    0.052418
  57 H :    0.050840
  58 H :    0.050416
  59 H :   -0.002424
  60 H :    0.051405
  61 H :    0.171768
  62 H :    0.174390
  63 H :    0.056062
  64 H :   -0.010158
  65 H :    0.047636
  66 H :    0.056853
  67 H :    0.062691
  68 H :    0.057853
  69 H :    0.057548
  70 H :   -0.027205
  71 H :    0.046168
  72 H :    0.064873
  73 H :   -0.010550
  74 H :    0.054452
  75 H :    0.064090
  76 H :    0.069269
  77 H :    0.063691
  78 H :    0.062931
  79 H :   -0.015299
  80 H :    0.055100
  81 H :    0.053595
  82 H :   -0.024229
  83 H :    0.042326
  84 H :    0.053639
  85 H :    0.059989
  86 H :    0.055759
  87 H :    0.056759
  88 H :   -0.017384
  89 H :    0.044902
Sum of atomic charges:   -0.0000000

LOEWDIN ATOMIC CHARGES
----------------------
   0 C :   -0.015462
   1 N :    0.122071
   2 C :   -0.100880
   3 N :    0.182139
   4 C :    0.007547
   5 N :   -0.134329
   6 C :   -0.033906
   7 N :    0.176671
   8 C :   -0.018728
   9 N :   -0.140010
  10 C :    0.025580
  11 N :    0.143483
  12 C :   -0.107413
  13 N :    0.155439
  14 C :   -0.035795
  15 N :    0.138303
  16 C :   -0.054631
  17 C :   -0.035771
  18 C :   -0.103724
  19 C :   -0.083901
  20 C :    0.003359
  21 C :   -0.113540
  22 C :    0.039275
  23 C :   -0.016472
  24 C :   -0.007716
  25 C :    0.030159
  26 C :   -0.104858
  27 C :   -0.108355
  28 C :   -0.024884
  29 C :   -0.102587
  30 C :   -0.036756
  31 C :    0.014580
  32 C :   -0.096450
  33 C :    0.063632
  34 C :   -0.016941
  35 C :    0.010798
  36 C :    0.032808
  37 C :   -0.097382
  38 C :   -0.047247
  39 C :   -0.020978
  40 C :   -0.108436
  41 C :   -0.092521
  42 C :   -0.008878
  43 C :   -0.101444
  44 C :    0.032826
  45 C :   -0.025724
  46 C :   -0.001441
  47 C :    0.029333
  48 C :   -0.098773
  49 C :   -0.077863
  50 C :   -0.020999
  51 C :   -0.108587
  52 H :    0.026131
  53 H :    0.003681
  54 H :    0.040733
  55 H :    0.025191
  56 H :    0.023164
  57 H :    0.027773
  58 H :    0.028414
  59 H :    0.007671
  60 H :    0.042687
  61 H :    0.060222
  62 H :    0.061304
  63 H :    0.030974
  64 H :    0.002793
  65 H :    0.045908
  66 H :    0.029943
  67 H :    0.028400
  68 H :    0.031906
  69 H :    0.030812
  70 H :   -0.003307
  71 H :    0.044243
  72 H :    0.034699
  73 H :    0.005888
  74 H :    0.048194
  75 H :    0.034155
  76 H :    0.031866
  77 H :    0.034157
  78 H :    0.033825
  79 H :    0.003603
  80 H :    0.048006
  81 H :    0.028828
  82 H :   -0.002351
  83 H :    0.042895
  84 H :    0.029513
  85 H :    0.026963
  86 H :    0.030249
  87 H :    0.031190
  88 H :    0.001003
  89 H :    0.044057

  Mayer bond orders larger than 0.100000
B(  0-C ,  1-N ) :   1.0981 B(  0-C , 17-C ) :   1.6823 B(  0-C , 52-H ) :   0.9684
B(  1-N ,  8-C ) :   1.0942 B(  1-N , 10-C ) :   0.9728 B(  2-C , 12-C ) :   1.5198
B(  2-C , 16-C ) :   1.3440 B(  2-C , 53-H ) :   0.9765 B(  3-N , 14-C ) :   1.2136
B(  3-N , 16-C ) :   1.1931 B(  3-N , 61-H ) :   0.8989 B(  4-C ,  6-C ) :   1.2278
B(  4-C , 17-C ) :   1.2270 B(  4-C , 18-C ) :   1.3797 B(  5-N , 19-C ) :   1.4422
B(  5-N , 27-C ) :   1.3870 B(  6-C ,  8-C ) :   1.6813 B(  6-C , 54-H ) :   0.9667
B(  7-N , 30-C ) :   1.1950 B(  7-N , 38-C ) :   1.1954 B(  7-N , 62-H ) :   0.8974
B(  8-C , 55-H ) :   0.9692 B(  9-N , 41-C ) :   1.3993 B(  9-N , 49-C ) :   1.4220
B( 10-C , 56-H ) :   0.9766 B( 10-C , 57-H ) :   0.9820 B( 10-C , 58-H ) :   0.9841
B( 11-N , 20-C ) :   1.1292 B( 11-N , 24-C ) :   1.1137 B( 11-N , 25-C ) :   0.9591
B( 12-C , 14-C ) :   1.3452 B( 12-C , 59-H ) :   0.9744 B( 13-N , 31-C ) :   1.1449
B( 13-N , 35-C ) :   1.1403 B( 13-N , 36-C ) :   0.9494 B( 14-C , 18-C ) :   1.1533
B( 15-N , 42-C ) :   1.1104 B( 15-N , 46-C ) :   1.1193 B( 15-N , 47-C ) :   0.9620
B( 16-C , 51-C ) :   1.1813 B( 17-C , 60-H ) :   0.9662 B( 18-C , 19-C ) :   1.1625
B( 19-C , 21-C ) :   1.2304 B( 20-C , 28-C ) :   1.6256 B( 20-C , 63-H ) :   0.9702
B( 21-C , 26-C ) :   1.6265 B( 21-C , 64-H ) :   0.9700 B( 22-C , 23-C ) :   1.2884
B( 22-C , 28-C ) :   1.2687 B( 22-C , 29-C ) :   1.2228 B( 23-C , 24-C ) :   1.6182
B( 23-C , 65-H ) :   0.9705 B( 24-C , 66-H ) :   0.9693 B( 25-C , 67-H ) :   0.9761
B( 25-C , 68-H ) :   0.9828 B( 25-C , 69-H ) :   0.9822 B( 26-C , 27-C ) :   1.2270
B( 26-C , 70-H ) :   0.9720 B( 27-C , 29-C ) :   1.2233 B( 28-C , 71-H ) :   0.9717
B( 29-C , 30-C ) :   1.2283 B( 30-C , 32-C ) :   1.2951 B( 31-C , 39-C ) :   1.6069
B( 31-C , 72-H ) :   0.9688 B( 32-C , 37-C ) :   1.5636 B( 32-C , 73-H ) :   0.9783
B( 33-C , 34-C ) :   1.2935 B( 33-C , 39-C ) :   1.2878 B( 33-C , 40-C ) :   1.2075
B( 34-C , 35-C ) :   1.6037 B( 34-C , 74-H ) :   0.9700 B( 35-C , 75-H ) :   0.9688
B( 36-C , 76-H ) :   0.9766 B( 36-C , 77-H ) :   0.9818 B( 36-C , 78-H ) :   0.9827
B( 37-C , 38-C ) :   1.2983 B( 37-C , 79-H ) :   0.9771 B( 38-C , 40-C ) :   1.2214
B( 39-C , 80-H ) :   0.9710 B( 40-C , 41-C ) :   1.2375 B( 41-C , 43-C ) :   1.1970
B( 42-C , 50-C ) :   1.6339 B( 42-C , 81-H ) :   0.9697 B( 43-C , 48-C ) :   1.6551
B( 43-C , 82-H ) :   0.9728 B( 44-C , 45-C ) :   1.2660 B( 44-C , 50-C ) :   1.2696
B( 44-C , 51-C ) :   1.2594 B( 45-C , 46-C ) :   1.6346 B( 45-C , 83-H ) :   0.9716
B( 46-C , 84-H ) :   0.9701 B( 47-C , 85-H ) :   0.9761 B( 47-C , 86-H ) :   0.9829
B( 47-C , 87-H ) :   0.9825 B( 48-C , 49-C ) :   1.1992 B( 48-C , 88-H ) :   0.9745
B( 49-C , 51-C ) :   1.2324 B( 50-C , 89-H ) :   0.9711

MP2 TOTAL ENERGY:    -2130.908804810 Eh
FINAL SINGLE POINT ENERGY     -2130.908804810350

DIPOLE MOMENT
-------------
                                X             Y             Z
Electronic contribution:      1.35750      -2.89383      -0.13929
Nuclear contribution   :      0.07760       0.24052       0.14486
                        -----------------------------------------
Total Dipole Moment    :      1.43510      -2.65331       0.00557
                        -----------------------------------------
Magnitude (a.u.)       :      3.01655
Magnitude (Debye)      :      7.66747

Rotational constants in cm-1:     0.001499     0.001477     0.000761
Rotational constants in MHz :    44.952118    44.266729    22.820673

                             ****ORCA TERMINATED NORMALLY****
TOTAL RUN TIME: 0 days 1 hours 23 minutes 14 seconds 150 msec
