                         Program Version 5.0.4 -  RELEASE  -
|  1> ! PAL2
|  2> ! mp2 cc-pvdz TightSCF  NoKeepInts
|  3>
|  4> %scf
|  5>   MaxCore 2000
|  6> end
|  7> %mp2
|  8>   MaxCore 2000
|  9> end
| 10> * xyz 0 1
| 11>    C       -4.68200         5.38500        -0.73800
| 12>    C        1.47400         4.04100         0.05700
| 13>    C       -2.80200         4.09300         0.04900
| 14>    C       -2.48800         5.16400         0.90000
| 15>    C       -3.27500         6.29800         0.90700
| 16>    C       -5.19700         7.61200         0.15200
| 17>    C        0.13200         4.30700         0.06100
| 18>    C       -0.56900         3.05600         0.04700
| 19>    C        1.64900         2.61800         0.02300
| 20>    C       -3.92900         4.22800        -0.77700
| 21>    N       -4.35200         6.39900         0.09300
| 22>    N        0.38800         2.06700         0.02500
| 23>    N       -2.01000         0.39500        -0.07500
| 24>    N       -0.38800        -2.07400        -0.02700
| 25>    N        2.01000        -0.40100         0.06500
| 26>    C       -1.96000         2.86100         0.02400
| 27>    C       -2.62300         1.61500        -0.01800
| 28>    C       -5.57300        -4.32900         1.06600
| 29>    C       -4.07300         1.47100         0.05600
| 30>    C       -4.10600        -2.75600        -0.02600
| 31>    C       -4.99500        -2.75700        -1.11100
| 32>    C       -6.13200        -3.54200        -1.07600
| 33>    C       -7.65100        -5.11300         0.04000
| 34>    C       -4.32400         0.14100         0.03700
| 35>    C       -3.02500        -0.52000        -0.04800
| 36>    C       -4.42200        -3.56600         1.07500
| 37>    N       -6.40700        -4.31300         0.00100
| 38>    C       -2.86700        -1.92200        -0.04000
| 39>    C       -1.65000        -2.62400        -0.02700
| 40>    C        3.56800        -6.14200        -1.04000
| 41>    C       -1.47600        -4.04900        -0.03400
| 42>    C        2.80300        -4.09900        -0.00800
| 43>    C        3.65700        -4.38400         1.06900
| 44>    C        4.42700        -5.53000         1.05900
| 45>    C        5.24500        -7.58800         0.01400
| 46>    C       -0.13400        -4.31500        -0.02200
| 47>    C        0.56800        -3.06400        -0.02700
| 48>    C        2.77500        -5.01200        -1.07400
| 49>    N        4.37600        -6.39100         0.01700
| 50>    C        1.95900        -2.86900        -0.00900
| 51>    C        2.62100        -1.62200         0.00900
| 52>    C        5.54300         4.33900        -1.13000
| 53>    C        4.07000        -1.47900        -0.09400
| 54>    C        4.10400         2.75100        -0.02100
| 55>    C        5.02700         2.72900         1.03600
| 56>    C        6.16600         3.50900         0.97800
| 57>    C        7.61900         5.15300        -0.11500
| 58>    C        4.32100        -0.14800        -0.09200
| 59>    C        3.02500         0.51400         0.01500
| 60>    C        4.38700         3.58200        -1.11500
| 61>    C        2.86600         1.91600         0.01300
| 62>    N        6.41300         4.29600        -0.09500
| 63>    H       -5.55200         5.53700        -1.36600
| 64>    H        2.27400         4.76600         0.08100
| 65>    H       -1.63600         5.11600         1.56800
| 66>    H       -3.07800         7.14500         1.55100
| 67>    H       -5.93800         7.49200         0.94500
| 68>    H       -4.56100         8.47300         0.36000
| 69>    H       -5.69500         7.73900        -0.81000
| 70>    H       -0.33200         5.28200         0.06900
| 71>    H       -4.21500         3.44200        -1.46600
| 72>    H        0.18200         1.07200         0.00500
| 73>    H       -0.18300        -1.08000        -0.02100
| 74>    H       -5.86400        -4.96200         1.89500
| 75>    H       -4.79400         2.27200         0.13900
| 76>    H       -4.80000        -2.16000        -1.99400
| 77>    H       -6.84100        -3.58200        -1.89300
| 78>    H       -8.42800        -4.53600         0.54600
| 79>    H       -7.95600        -5.33700        -0.98100
| 80>    H       -7.45600        -6.03700         0.58400
| 81>    H       -5.28700        -0.34400         0.10000
| 82>    H       -3.78000        -3.60100         1.94700
| 83>    H        3.58700        -6.86800        -1.84300
| 84>    H       -2.27600        -4.77400        -0.05000
| 85>    H        3.71400        -3.72400         1.92600
| 86>    H        5.09200        -5.79500         1.87100
| 87>    H        6.20500        -7.32900        -0.43900
| 88>    H        5.39300        -7.91700         1.04200
| 89>    H        4.75900        -8.37300        -0.56400
| 90>    H        0.32900        -5.29000        -0.00800
| 91>    H        2.14600        -4.84200        -1.94000
| 92>    H        5.80800         4.98600        -1.95600
| 93>    H        4.78800        -2.28100        -0.18500
| 94>    H        4.86000         2.11400         1.91200
| 95>    H        6.90100         3.53100         1.77200
| 96>    H        7.38300         6.10900         0.35600
| 97>    H        8.41400         4.65200         0.43500
| 98>    H        7.92100         5.31000        -1.15000
| 99>    H        5.28300         0.33600        -0.17900
|100>    H        3.72000         3.63200        -1.96700
|101> *
|102>
|103>                          ****END OF INPUT****

CARTESIAN COORDINATES (ANGSTROEM)
---------------------------------
  C     -4.682000    5.385000   -0.738000
  C      1.474000    4.041000    0.057000
  C     -2.802000    4.093000    0.049000
  C     -2.488000    5.164000    0.900000
  C     -3.275000    6.298000    0.907000
  C     -5.197000    7.612000    0.152000
  C      0.132000    4.307000    0.061000
  C     -0.569000    3.056000    0.047000
  C      1.649000    2.618000    0.023000
  C     -3.929000    4.228000   -0.777000
  N     -4.352000    6.399000    0.093000
  N      0.388000    2.067000    0.025000
  N     -2.010000    0.395000   -0.075000
  N     -0.388000   -2.074000   -0.027000
  N      2.010000   -0.401000    0.065000
  C     -1.960000    2.861000    0.024000
  C     -2.623000    1.615000   -0.018000
  C     -5.573000   -4.329000    1.066000
  C     -4.073000    1.471000    0.056000
  C     -4.106000   -2.756000   -0.026000
  C     -4.995000   -2.757000   -1.111000
  C     -6.132000   -3.542000   -1.076000
  C     -7.651000   -5.113000    0.040000
  C     -4.324000    0.141000    0.037000
  C     -3.025000   -0.520000   -0.048000
  C     -4.422000   -3.566000    1.075000
  N     -6.407000   -4.313000    0.001000
  C     -2.867000   -1.922000   -0.040000
  C     -1.650000   -2.624000   -0.027000
  C      3.568000   -6.142000   -1.040000
  C     -1.476000   -4.049000   -0.034000
  C      2.803000   -4.099000   -0.008000
  C      3.657000   -4.384000    1.069000
  C      4.427000   -5.530000    1.059000
  C      5.245000   -7.588000    0.014000
  C     -0.134000   -4.315000   -0.022000
  C      0.568000   -3.064000   -0.027000
  C      2.775000   -5.012000   -1.074000
  N      4.376000   -6.391000    0.017000
  C      1.959000   -2.869000   -0.009000
  C      2.621000   -1.622000    0.009000
  C      5.543000    4.339000   -1.130000
  C      4.070000   -1.479000   -0.094000
  C      4.104000    2.751000   -0.021000
  C      5.027000    2.729000    1.036000
  C      6.166000    3.509000    0.978000
  C      7.619000    5.153000   -0.115000
  C      4.321000   -0.148000   -0.092000
  C      3.025000    0.514000    0.015000
  C      4.387000    3.582000   -1.115000
  C      2.866000    1.916000    0.013000
  N      6.413000    4.296000   -0.095000
  H     -5.552000    5.537000   -1.366000
  H      2.274000    4.766000    0.081000
  H     -1.636000    5.116000    1.568000
  H     -3.078000    7.145000    1.551000
  H     -5.938000    7.492000    0.945000
  H     -4.561000    8.473000    0.360000
  H     -5.695000    7.739000   -0.810000
  H     -0.332000    5.282000    0.069000
  H     -4.215000    3.442000   -1.466000
  H      0.182000    1.072000    0.005000
  H     -0.183000   -1.080000   -0.021000
  H     -5.864000   -4.962000    1.895000
  H     -4.794000    2.272000    0.139000
  H     -4.800000   -2.160000   -1.994000
  H     -6.841000   -3.582000   -1.893000
  H     -8.428000   -4.536000    0.546000
  H     -7.956000   -5.337000   -0.981000
  H     -7.456000   -6.037000    0.584000
  H     -5.287000   -0.344000    0.100000
  H     -3.780000   -3.601000    1.947000
  H      3.587000   -6.868000   -1.843000
  H     -2.276000   -4.774000   -0.050000
  H      3.714000   -3.724000    1.926000
  H      5.092000   -5.795000    1.871000
  H      6.205000   -7.329000   -0.439000
  H      5.393000   -7.917000    1.042000
  H      4.759000   -8.373000   -0.564000
  H      0.329000   -5.290000   -0.008000
  H      2.146000   -4.842000   -1.940000
  H      5.808000    4.986000   -1.956000
  H      4.788000   -2.281000   -0.185000
  H      4.860000    2.114000    1.912000
  H      6.901000    3.531000    1.772000
  H      7.383000    6.109000    0.356000
  H      8.414000    4.652000    0.435000
  H      7.921000    5.310000   -1.150000
  H      5.283000    0.336000   -0.179000
  H      3.720000    3.632000   -1.967000

 Total Charge           Charge          ....    0
 Multiplicity           Mult            ....    1
 Number of Electrons    NEL             ....  358
 Basis Dimension        Dim             ....  918

ORBITAL ENERGIES
----------------

  NO   OCC          E(Eh)            E(eV)
   0   2.0000     -15.662369      -426.1947
   1   2.0000     -15.638671      -425.5499
   2   2.0000     -15.628431      -425.2712
   3   2.0000     -15.599020      -424.4709
   4   2.0000     -15.523506      -422.4161
   5   2.0000     -15.515830      -422.2072
   6   2.0000     -15.449382      -420.3991
   7   2.0000     -15.443533      -420.2399
   8   2.0000     -11.317150      -307.9553
   9   2.0000     -11.315440      -307.9088
  10   2.0000     -11.313064      -307.8441
  11   2.0000     -11.302210      -307.5488
  12   2.0000     -11.296067      -307.3816
  13   2.0000     -11.295892      -307.3768
  14   2.0000     -11.291768      -307.2646
  15   2.0000     -11.287249      -307.1417
  16   2.0000     -11.284298      -307.0614
  17   2.0000     -11.278735      -306.9100
  18   2.0000     -11.265644      -306.5538
  19   2.0000     -11.262885      -306.4787
  20   2.0000     -11.262805      -306.4765
  21   2.0000     -11.251086      -306.1576
  22   2.0000     -11.250171      -306.1327
  23   2.0000     -11.242208      -305.9160
  24   2.0000     -11.234524      -305.7069
  25   2.0000     -11.233948      -305.6913
  26   2.0000     -11.233111      -305.6685
  27   2.0000     -11.226963      -305.5012
  28   2.0000     -11.226722      -305.4946
  29   2.0000     -11.209021      -305.0130
  30   2.0000     -11.207797      -304.9797
  31   2.0000     -11.206622      -304.9477
  32   2.0000     -11.204294      -304.8843
  33   2.0000     -11.203487      -304.8624
  34   2.0000     -11.190597      -304.5116
  35   2.0000     -11.190197      -304.5007
  36   2.0000     -11.183531      -304.3194
  37   2.0000     -11.180252      -304.2301
  38   2.0000     -11.179598      -304.2123
  39   2.0000     -11.174255      -304.0669
  40   2.0000     -11.169112      -303.9270
  41   2.0000     -11.167882      -303.8935
  42   2.0000     -11.166032      -303.8432
  43   2.0000     -11.164483      -303.8010
  44   2.0000     -11.163520      -303.7748
  45   2.0000     -11.161266      -303.7135
  46   2.0000     -11.153109      -303.4915
  47   2.0000     -11.149125      -303.3831
  48   2.0000     -11.149080      -303.3819
  49   2.0000     -11.144556      -303.2588
  50   2.0000     -11.136761      -303.0467
  51   2.0000     -11.131162      -302.8943
  52   2.0000      -1.345538       -36.6139
  53   2.0000      -1.325253       -36.0620
  54   2.0000      -1.316562       -35.8255
  55   2.0000      -1.292444       -35.1692
  56   2.0000      -1.223565       -33.2949
  57   2.0000      -1.210848       -32.9489
  58   2.0000      -1.167178       -31.7605
  59   2.0000      -1.154929       -31.4272
  60   2.0000      -1.131072       -30.7780
  61   2.0000      -1.113512       -30.3002
  62   2.0000      -1.106176       -30.1006
  63   2.0000      -1.086875       -29.5754
  64   2.0000      -1.068279       -29.0693
  65   2.0000      -1.049220       -28.5507
  66   2.0000      -1.041297       -28.3351
  67   2.0000      -1.033289       -28.1172
  68   2.0000      -1.019765       -27.7492
  69   2.0000      -1.013881       -27.5891
  70   2.0000      -1.009369       -27.4663
  71   2.0000      -0.992861       -27.0171
  72   2.0000      -0.987394       -26.8683
  73   2.0000      -0.976426       -26.5699
  74   2.0000      -0.972799       -26.4712
  75   2.0000      -0.958978       -26.0951
  76   2.0000      -0.950747       -25.8711
  77   2.0000      -0.947522       -25.7834
  78   2.0000      -0.936661       -25.4878
  79   2.0000      -0.921421       -25.0732
  80   2.0000      -0.899331       -24.4720
  81   2.0000      -0.890094       -24.2207
  82   2.0000      -0.876190       -23.8423
  83   2.0000      -0.869769       -23.6676
  84   2.0000      -0.864863       -23.5341
  85   2.0000      -0.854835       -23.2612
  86   2.0000      -0.844502       -22.9801
  87   2.0000      -0.838697       -22.8221
  88   2.0000      -0.822201       -22.3732
  89   2.0000      -0.798718       -21.7342
  90   2.0000      -0.794744       -21.6261
  91   2.0000      -0.744303       -20.2535
  92   2.0000      -0.737032       -20.0557
  93   2.0000      -0.731862       -19.9150
  94   2.0000      -0.723296       -19.6819
  95   2.0000      -0.719608       -19.5815
  96   2.0000      -0.713631       -19.4189
  97   2.0000      -0.705622       -19.2010
  98   2.0000      -0.701941       -19.1008
  99   2.0000      -0.696216       -18.9450
 100   2.0000      -0.693589       -18.8735
 101   2.0000      -0.681745       -18.5512
 102   2.0000      -0.679113       -18.4796
 103   2.0000      -0.674405       -18.3515
 104   2.0000      -0.672876       -18.3099
 105   2.0000      -0.670737       -18.2517
 106   2.0000      -0.664337       -18.0775
 107   2.0000      -0.662844       -18.0369
 108   2.0000      -0.656689       -17.8694
 109   2.0000      -0.653826       -17.7915
 110   2.0000      -0.649796       -17.6819
 111   2.0000      -0.646530       -17.5930
 112   2.0000      -0.642986       -17.4966
 113   2.0000      -0.636656       -17.3243
 114   2.0000      -0.633426       -17.2364
 115   2.0000      -0.630272       -17.1506
 116   2.0000      -0.623491       -16.9660
 117   2.0000      -0.616027       -16.7630
 118   2.0000      -0.614045       -16.7090
 119   2.0000      -0.612088       -16.6558
 120   2.0000      -0.608639       -16.5619
 121   2.0000      -0.601518       -16.3681
 122   2.0000      -0.599890       -16.3238
 123   2.0000      -0.588858       -16.0236
 124   2.0000      -0.587669       -15.9913
 125   2.0000      -0.584309       -15.8999
 126   2.0000      -0.578397       -15.7390
 127   2.0000      -0.577155       -15.7052
 128   2.0000      -0.562954       -15.3188
 129   2.0000      -0.558344       -15.1933
 130   2.0000      -0.553988       -15.0748
 131   2.0000      -0.549364       -14.9490
 132   2.0000      -0.542404       -14.7596
 133   2.0000      -0.538770       -14.6607
 134   2.0000      -0.534551       -14.5459
 135   2.0000      -0.533798       -14.5254
 136   2.0000      -0.524971       -14.2852
 137   2.0000      -0.523992       -14.2585
 138   2.0000      -0.517813       -14.0904
 139   2.0000      -0.515568       -14.0293
 140   2.0000      -0.510037       -13.8788
 141   2.0000      -0.509751       -13.8710
 142   2.0000      -0.508855       -13.8466
 143   2.0000      -0.502279       -13.6677
 144   2.0000      -0.500595       -13.6219
 145   2.0000      -0.497204       -13.5296
 146   2.0000      -0.494066       -13.4442
 147   2.0000      -0.486583       -13.2406
 148   2.0000      -0.485002       -13.1976
 149   2.0000      -0.468934       -12.7603
 150   2.0000      -0.463655       -12.6167
 151   2.0000      -0.455742       -12.4014
 152   2.0000      -0.448374       -12.2009
 153   2.0000      -0.446880       -12.1602
 154   2.0000      -0.445640       -12.1265
 155   2.0000      -0.440290       -11.9809
 156   2.0000      -0.432805       -11.7772
 157   2.0000      -0.428459       -11.6590
 158   2.0000      -0.399694       -10.8762
 159   2.0000      -0.385312       -10.4849
 160   2.0000      -0.379094       -10.3157
 161   2.0000      -0.375891       -10.2285
 162   2.0000      -0.370764       -10.0890
 163   2.0000      -0.359750        -9.7893
 164   2.0000      -0.353197        -9.6110
 165   2.0000      -0.337537        -9.1848
 166   2.0000      -0.336860        -9.1664
 167   2.0000      -0.332887        -9.0583
 168   2.0000      -0.328366        -8.9353
 169   2.0000      -0.302095        -8.2204
 170   2.0000      -0.299774        -8.1573
 171   2.0000      -0.287141        -7.8135
 172   2.0000      -0.284665        -7.7461
 173   2.0000      -0.259202        -7.0532
 174   2.0000      -0.245796        -6.6885
 175   2.0000      -0.189370        -5.1530
 176   2.0000      -0.179543        -4.8856
 177   2.0000      -0.071665        -1.9501
 178   2.0000      -0.057000        -1.5510
 179   0.0000       0.029192         0.7944
 180   0.0000       0.068125         1.8538
 181   0.0000       0.092334         2.5125
 182   0.0000       0.104551         2.8450
 183   0.0000       0.117856         3.2070

MULLIKEN ATOMIC CHARGES
-----------------------
   0 C :    0.204516
   1 N :   -0.451945
   2 C :   -0.064000
   3 N :   -0.335959
   4 C :   -0.055752
   5 N :   -0.560721
   6 C :   -0.103136
   7 N :   -0.339611
   8 C :    0.204317
   9 N :   -0.562741
  10 C :    0.117554
  11 N :   -0.437480
  12 C :   -0.079611
  13 N :   -0.433525
  14 C :    0.231303
  15 N :   -0.441351
  16 C :    0.230069
  17 C :   -0.100266
  18 C :   -0.183040
  19 C :    0.218118
  20 C :    0.212902
  21 C :   -0.088538
  22 C :   -0.087843
  23 C :   -0.043051
  24 C :    0.199389
  25 C :    0.113944
  26 C :   -0.074021
  27 C :    0.214184
  28 C :   -0.057843
  29 C :   -0.181227
  30 C :    0.241831
  31 C :    0.223711
  32 C :   -0.062509
  33 C :   -0.068774
  34 C :   -0.049558
  35 C :    0.217816
  36 C :    0.110538
  37 C :   -0.065182
  38 C :    0.234471
  39 C :   -0.060045
  40 C :   -0.183521
  41 C :    0.222645
  42 C :    0.198655
  43 C :   -0.073132
  44 C :   -0.090755
  45 C :   -0.058519
  46 C :    0.207485
  47 C :    0.115729
  48 C :   -0.070317
  49 C :    0.233645
  50 C :   -0.048746
  51 C :   -0.192186
  52 H :    0.043931
  53 H :   -0.015716
  54 H :    0.049493
  55 H :    0.042482
  56 H :    0.051539
  57 H :    0.050222
  58 H :    0.049506
  59 H :   -0.001811
  60 H :    0.047598
  61 H :    0.171432
  62 H :    0.174744
  63 H :    0.056921
  64 H :   -0.008880
  65 H :    0.047008
  66 H :    0.057173
  67 H :    0.063543
  68 H :    0.058074
  69 H :    0.057954
  70 H :   -0.027117
  71 H :    0.047070
  72 H :    0.065643
  73 H :   -0.010178
  74 H :    0.055201
  75 H :    0.064799
  76 H :    0.069981
  77 H :    0.064189
  78 H :    0.063338
  79 H :   -0.015005
  80 H :    0.055675
  81 H :    0.053533
  82 H :   -0.024823
  83 H :    0.041434
  84 H :    0.052984
  85 H :    0.059515
  86 H :    0.055316
  87 H :    0.056640
  88 H :   -0.017253
  89 H :    0.045927
Sum of atomic charges:   -0.0000000

LOEWDIN ATOMIC CHARGES
----------------------
   0 C :   -0.019143
   1 N :    0.119509
   2 C :   -0.101176
   3 N :    0.182128
   4 C :    0.003672
   5 N :   -0.132125
   6 C :   -0.035389
   7 N :    0.176267
   8 C :   -0.018657
   9 N :   -0.139866
  10 C :    0.024798
  11 N :    0.144458
  12 C :   -0.106024
  13 N :    0.156692
  14 C :   -0.036954
  15 N :    0.137548
  16 C :   -0.054951
  17 C :   -0.035178
  18 C :   -0.101863
  19 C :   -0.085983
  20 C :    0.004796
  21 C :   -0.110196
  22 C :    0.041189
  23 C :   -0.016497
  24 C :   -0.006983
  25 C :    0.030405
  26 C :   -0.106458
  27 C :   -0.109845
  28 C :   -0.024416
  29 C :   -0.101073
  30 C :   -0.036869
  31 C :    0.016346
  32 C :   -0.095129
  33 C :    0.065710
  34 C :   -0.016147
  35 C :    0.011397
  36 C :    0.033084
  37 C :   -0.096705
  38 C :   -0.046331
  39 C :   -0.021072
  40 C :   -0.108111
  41 C :   -0.094297
  42 C :   -0.009590
  43 C :   -0.101840
  44 C :    0.031469
  45 C :   -0.026573
  46 C :   -0.002015
  47 C :    0.029160
  48 C :   -0.099419
  49 C :   -0.076817
  50 C :   -0.020563
  51 C :   -0.109541
  52 H :    0.025171
  53 H :    0.003527
  54 H :    0.041142
  55 H :    0.025007
  56 H :    0.022596
  57 H :    0.027457
  58 H :    0.028167
  59 H :    0.008071
  60 H :    0.040981
  61 H :    0.060076
  62 H :    0.061464
  63 H :    0.031393
  64 H :    0.003195
  65 H :    0.045702
  66 H :    0.030100
  67 H :    0.028811
  68 H :    0.032014
  69 H :    0.031015
  70 H :   -0.003408
  71 H :    0.044643
  72 H :    0.035086
  73 H :    0.006067
  74 H :    0.048561
  75 H :    0.034465
  76 H :    0.032228
  77 H :    0.034391
  78 H :    0.034021
  79 H :    0.003742
  80 H :    0.048219
  81 H :    0.028779
  82 H :   -0.002642
  83 H :    0.042466
  84 H :    0.029223
  85 H :    0.026731
  86 H :    0.030042
  87 H :    0.031134
  88 H :    0.001069
  89 H :    0.044466

  Mayer bond orders larger than 0.100000
B(  0-C ,  1-N ) :   1.0937 B(  0-C , 17-C ) :   1.6888 B(  0-C , 52-H ) :   0.9683
B(  1-N ,  8-C ) :   1.0921 B(  1-N , 10-C ) :   0.9745 B(  2-C , 12-C ) :   1.5200
B(  2-C , 16-C ) :   1.3436 B(  2-C , 53-H ) :   0.9768 B(  3-N , 14-C ) :   1.2145
B(  3-N , 16-C ) :   1.1931 B(  3-N , 61-H ) :   0.8993 B(  4-C ,  6-C ) :   1.2219
B(  4-C , 17-C ) :   1.2221 B(  4-C , 18-C ) :   1.3862 B(  5-N , 19-C ) :   1.4439
B(  5-N , 27-C ) :   1.3869 B(  6-C ,  8-C ) :   1.6889 B(  6-C , 54-H ) :   0.9665
B(  7-N , 30-C ) :   1.1935 B(  7-N , 38-C ) :   1.1955 B(  7-N , 62-H ) :   0.8972
B(  8-C , 55-H ) :   0.9693 B(  9-N , 41-C ) :   1.3967 B(  9-N , 49-C ) :   1.4251
B( 10-C , 56-H ) :   0.9765 B( 10-C , 57-H ) :   0.9830 B( 10-C , 58-H ) :   0.9833
B( 11-N , 20-C ) :   1.1308 B( 11-N , 24-C ) :   1.1150 B( 11-N , 25-C ) :   0.9583
B( 12-C , 14-C ) :   1.3459 B( 12-C , 59-H ) :   0.9750 B( 13-N , 31-C ) :   1.1478
B( 13-N , 35-C ) :   1.1414 B( 13-N , 36-C ) :   0.9485 B( 14-C , 18-C ) :   1.1519
B( 15-N , 42-C ) :   1.1089 B( 15-N , 46-C ) :   1.1189 B( 15-N , 47-C ) :   0.9625
B( 16-C , 51-C ) :   1.1812 B( 17-C , 60-H ) :   0.9664 B( 18-C , 19-C ) :   1.1592
B( 19-C , 21-C ) :   1.2329 B( 20-C , 28-C ) :   1.6240 B( 20-C , 63-H ) :   0.9701
B( 21-C , 26-C ) :   1.6261 B( 21-C , 64-H ) :   0.9712 B( 22-C , 23-C ) :   1.2898
B( 22-C , 28-C ) :   1.2702 B( 22-C , 29-C ) :   1.2206 B( 23-C , 24-C ) :   1.6164
B( 23-C , 65-H ) :   0.9706 B( 24-C , 66-H ) :   0.9693 B( 25-C , 67-H ) :   0.9761
B( 25-C , 68-H ) :   0.9828 B( 25-C , 69-H ) :   0.9822 B( 26-C , 27-C ) :   1.2273
B( 26-C , 70-H ) :   0.9717 B( 27-C , 29-C ) :   1.2201 B( 28-C , 71-H ) :   0.9717
B( 29-C , 30-C ) :   1.2333 B( 30-C , 32-C ) :   1.2905 B( 31-C , 39-C ) :   1.6047
B( 31-C , 72-H ) :   0.9687 B( 32-C , 37-C ) :   1.5685 B( 32-C , 73-H ) :   0.9782
B( 33-C , 34-C ) :   1.2961 B( 33-C , 39-C ) :   1.2890 B( 33-C , 40-C ) :   1.2025
B( 34-C , 35-C ) :   1.6012 B( 34-C , 74-H ) :   0.9699 B( 35-C , 75-H ) :   0.9688
B( 36-C , 76-H ) :   0.9766 B( 36-C , 77-H ) :   0.9817 B( 36-C , 78-H ) :   0.9826
B( 37-C , 38-C ) :   1.2937 B( 37-C , 79-H ) :   0.9771 B( 38-C , 40-C ) :   1.2253
B( 39-C , 80-H ) :   0.9710 B( 40-C , 41-C ) :   1.2381 B( 41-C , 43-C ) :   1.1980
B( 42-C , 50-C ) :   1.6355 B( 42-C , 81-H ) :   0.9697 B( 43-C , 48-C ) :   1.6537
B( 43-C , 82-H ) :   0.9727 B( 44-C , 45-C ) :   1.2641 B( 44-C , 50-C ) :   1.2685
B( 44-C , 51-C ) :   1.2632 B( 45-C , 46-C ) :   1.6362 B( 45-C , 83-H ) :   0.9716
B( 46-C , 84-H ) :   0.9702 B( 47-C , 85-H ) :   0.9762 B( 47-C , 86-H ) :   0.9829
B( 47-C , 87-H ) :   0.9825 B( 48-C , 49-C ) :   1.2005 B( 48-C , 88-H ) :   0.9746
B( 49-C , 51-C ) :   1.2296 B( 50-C , 89-H ) :   0.9711

MP2 TOTAL ENERGY:    -2130.912883503 Eh
FINAL SINGLE POINT ENERGY     -2130.912883502946

DIPOLE MOMENT
-------------
                                X             Y             Z
Electronic contribution:      1.43464      -3.16841      -0.21984
Nuclear contribution   :      0.02161       0.19979       0.22713
                        -----------------------------------------
Total Dipole Moment    :      1.45624      -2.96862       0.00728
                        -----------------------------------------
Magnitude (a.u.)       :      3.30657
Magnitude (Debye)      :      8.40464

Rotational constants in cm-1:     0.001499     0.001477     0.000761
Rotational constants in MHz :    44.944425    44.264750    22.823472

                             ****ORCA TERMINATED NORMALLY****
TOTAL RUN TIME: 0 days 1 hours 7 minutes 47 seconds 573 msec
