                         Program Version 5.0.4 -  RELEASE  -
|  1> ! PAL2
|  2> ! mp2 cc-pvdz TightSCF  NoKeepInts
|  3>
|  4> %scf
|  5>   MaxCore 2000
|  6> end
|  7> %mp2
|  8>   MaxCore 2000
|  9> end
| 10> * xyz 0 1
| 11>    C       -3.59600         6.13200        -0.96900
| 12>    C        1.47400         4.04100         0.05700
| 13>    C       -2.80200         4.09300         0.04900
| 14>    C       -3.60900         4.39200         1.15700
| 15>    C       -4.37800         5.53900         1.16600
| 16>    C       -5.22600         7.59300         0.13900
| 17>    C        0.13200         4.30700         0.06100
| 18>    C       -0.56900         3.05600         0.04700
| 19>    C        1.64900         2.61800         0.02300
| 20>    C       -2.81400         4.99500        -1.02600
| 21>    N       -4.36200         6.39200         0.11500
| 22>    N        0.38800         2.06700         0.02500
| 23>    N       -2.01000         0.39500        -0.07500
| 24>    N       -0.38800        -2.07400        -0.02700
| 25>    N        2.01000        -0.40100         0.06500
| 26>    C       -1.96000         2.86100         0.02400
| 27>    C       -2.62300         1.61500        -0.01800
| 28>    C       -5.57300        -4.32900         1.06600
| 29>    C       -4.07300         1.47100         0.05600
| 30>    C       -4.10600        -2.75600        -0.02600
| 31>    C       -4.99500        -2.75700        -1.11100
| 32>    C       -6.13200        -3.54200        -1.07600
| 33>    C       -7.65100        -5.11300         0.04000
| 34>    C       -4.32400         0.14100         0.03700
| 35>    C       -3.02500        -0.52000        -0.04800
| 36>    C       -4.42200        -3.56600         1.07500
| 37>    N       -6.40700        -4.31300         0.00100
| 38>    C       -2.86700        -1.92200        -0.04000
| 39>    C       -1.65000        -2.62400        -0.02700
| 40>    C        3.56800        -6.14200        -1.04000
| 41>    C       -1.47600        -4.04900        -0.03400
| 42>    C        2.80300        -4.09900        -0.00800
| 43>    C        3.65700        -4.38400         1.06900
| 44>    C        4.42700        -5.53000         1.05900
| 45>    C        5.24500        -7.58800         0.01400
| 46>    C       -0.13400        -4.31500        -0.02200
| 47>    C        0.56800        -3.06400        -0.02700
| 48>    C        2.77500        -5.01200        -1.07400
| 49>    N        4.37600        -6.39100         0.01700
| 50>    C        1.95900        -2.86900        -0.00900
| 51>    C        2.62100        -1.62200         0.00900
| 52>    C        5.54300         4.33900        -1.13000
| 53>    C        4.07000        -1.47900        -0.09400
| 54>    C        4.10400         2.75100        -0.02100
| 55>    C        5.02700         2.72900         1.03600
| 56>    C        6.16600         3.50900         0.97800
| 57>    C        7.61900         5.15300        -0.11500
| 58>    C        4.32100        -0.14800        -0.09200
| 59>    C        3.02500         0.51400         0.01500
| 60>    C        4.38700         3.58200        -1.11500
| 61>    C        2.86600         1.91600         0.01300
| 62>    N        6.41300         4.29600        -0.09500
| 63>    H       -3.62600         6.86200        -1.76900
| 64>    H        2.27400         4.76600         0.08100
| 65>    H       -3.65000         3.73000         2.01400
| 66>    H       -5.02200         5.80700         1.99300
| 67>    H       -6.21900         7.32400        -0.22900
| 68>    H       -5.29100         7.95800         1.16400
| 69>    H       -4.78400         8.35500        -0.50200
| 70>    H       -0.33200         5.28200         0.06900
| 71>    H       -2.20100         4.82700        -1.90500
| 72>    H        0.18200         1.07200         0.00500
| 73>    H       -0.18300        -1.08000        -0.02100
| 74>    H       -5.86400        -4.96200         1.89500
| 75>    H       -4.79400         2.27200         0.13900
| 76>    H       -4.80000        -2.16000        -1.99400
| 77>    H       -6.84100        -3.58200        -1.89300
| 78>    H       -8.42800        -4.53600         0.54600
| 79>    H       -7.95600        -5.33700        -0.98100
| 80>    H       -7.45600        -6.03700         0.58400
| 81>    H       -5.28700        -0.34400         0.10000
| 82>    H       -3.78000        -3.60100         1.94700
| 83>    H        3.58700        -6.86800        -1.84300
| 84>    H       -2.27600        -4.77400        -0.05000
| 85>    H        3.71400        -3.72400         1.92600
| 86>    H        5.09200        -5.79500         1.87100
| 87>    H        6.20500        -7.32900        -0.43900
| 88>    H        5.39300        -7.91700         1.04200
| 89>    H        4.75900        -8.37300        -0.56400
| 90>    H        0.32900        -5.29000        -0.00800
| 91>    H        2.14600        -4.84200        -1.94000
| 92>    H        5.80800         4.98600        -1.95600
| 93>    H        4.78800        -2.28100        -0.18500
| 94>    H        4.86000         2.11400         1.91200
| 95>    H        6.90100         3.53100         1.77200
| 96>    H        7.38300         6.10900         0.35600
| 97>    H        8.41400         4.65200         0.43500
| 98>    H        7.92100         5.31000        -1.15000
| 99>    H        5.28300         0.33600        -0.17900
|100>    H        3.72000         3.63200        -1.96700
|101> *
|102>
|103>                          ****END OF INPUT****

CARTESIAN COORDINATES (ANGSTROEM)
---------------------------------
  C     -3.596000    6.132000   -0.969000
  C      1.474000    4.041000    0.057000
  C     -2.802000    4.093000    0.049000
  C     -3.609000    4.392000    1.157000
  C     -4.378000    5.539000    1.166000
  C     -5.226000    7.593000    0.139000
  C      0.132000    4.307000    0.061000
  C     -0.569000    3.056000    0.047000
  C      1.649000    2.618000    0.023000
  C     -2.814000    4.995000   -1.026000
  N     -4.362000    6.392000    0.115000
  N      0.388000    2.067000    0.025000
  N     -2.010000    0.395000   -0.075000
  N     -0.388000   -2.074000   -0.027000
  N      2.010000   -0.401000    0.065000
  C     -1.960000    2.861000    0.024000
  C     -2.623000    1.615000   -0.018000
  C     -5.573000   -4.329000    1.066000
  C     -4.073000    1.471000    0.056000
  C     -4.106000   -2.756000   -0.026000
  C     -4.995000   -2.757000   -1.111000
  C     -6.132000   -3.542000   -1.076000
  C     -7.651000   -5.113000    0.040000
  C     -4.324000    0.141000    0.037000
  C     -3.025000   -0.520000   -0.048000
  C     -4.422000   -3.566000    1.075000
  N     -6.407000   -4.313000    0.001000
  C     -2.867000   -1.922000   -0.040000
  C     -1.650000   -2.624000   -0.027000
  C      3.568000   -6.142000   -1.040000
  C     -1.476000   -4.049000   -0.034000
  C      2.803000   -4.099000   -0.008000
  C      3.657000   -4.384000    1.069000
  C      4.427000   -5.530000    1.059000
  C      5.245000   -7.588000    0.014000
  C     -0.134000   -4.315000   -0.022000
  C      0.568000   -3.064000   -0.027000
  C      2.775000   -5.012000   -1.074000
  N      4.376000   -6.391000    0.017000
  C      1.959000   -2.869000   -0.009000
  C      2.621000   -1.622000    0.009000
  C      5.543000    4.339000   -1.130000
  C      4.070000   -1.479000   -0.094000
  C      4.104000    2.751000   -0.021000
  C      5.027000    2.729000    1.036000
  C      6.166000    3.509000    0.978000
  C      7.619000    5.153000   -0.115000
  C      4.321000   -0.148000   -0.092000
  C      3.025000    0.514000    0.015000
  C      4.387000    3.582000   -1.115000
  C      2.866000    1.916000    0.013000
  N      6.413000    4.296000   -0.095000
  H     -3.626000    6.862000   -1.769000
  H      2.274000    4.766000    0.081000
  H     -3.650000    3.730000    2.014000
  H     -5.022000    5.807000    1.993000
  H     -6.219000    7.324000   -0.229000
  H     -5.291000    7.958000    1.164000
  H     -4.784000    8.355000   -0.502000
  H     -0.332000    5.282000    0.069000
  H     -2.201000    4.827000   -1.905000
  H      0.182000    1.072000    0.005000
  H     -0.183000   -1.080000   -0.021000
  H     -5.864000   -4.962000    1.895000
  H     -4.794000    2.272000    0.139000
  H     -4.800000   -2.160000   -1.994000
  H     -6.841000   -3.582000   -1.893000
  H     -8.428000   -4.536000    0.546000
  H     -7.956000   -5.337000   -0.981000
  H     -7.456000   -6.037000    0.584000
  H     -5.287000   -0.344000    0.100000
  H     -3.780000   -3.601000    1.947000
  H      3.587000   -6.868000   -1.843000
  H     -2.276000   -4.774000   -0.050000
  H      3.714000   -3.724000    1.926000
  H      5.092000   -5.795000    1.871000
  H      6.205000   -7.329000   -0.439000
  H      5.393000   -7.917000    1.042000
  H      4.759000   -8.373000   -0.564000
  H      0.329000   -5.290000   -0.008000
  H      2.146000   -4.842000   -1.940000
  H      5.808000    4.986000   -1.956000
  H      4.788000   -2.281000   -0.185000
  H      4.860000    2.114000    1.912000
  H      6.901000    3.531000    1.772000
  H      7.383000    6.109000    0.356000
  H      8.414000    4.652000    0.435000
  H      7.921000    5.310000   -1.150000
  H      5.283000    0.336000   -0.179000
  H      3.720000    3.632000   -1.967000

 Total Charge           Charge          ....    0
 Multiplicity           Mult            ....    1
 Number of Electrons    NEL             ....  358
 Basis Dimension        Dim             ....  918

ORBITAL ENERGIES
----------------

  NO   OCC          E(Eh)            E(eV)
   0   2.0000     -15.651503      -425.8991
   1   2.0000     -15.637821      -425.5268
   2   2.0000     -15.627978      -425.2589
   3   2.0000     -15.617693      -424.9790
   4   2.0000     -15.517494      -422.2525
   5   2.0000     -15.513933      -422.1556
   6   2.0000     -15.445678      -420.2983
   7   2.0000     -15.438700      -420.1084
   8   2.0000     -11.310141      -307.7646
   9   2.0000     -11.305161      -307.6291
  10   2.0000     -11.303827      -307.5928
  11   2.0000     -11.301690      -307.5346
  12   2.0000     -11.295439      -307.3645
  13   2.0000     -11.294269      -307.3327
  14   2.0000     -11.291918      -307.2687
  15   2.0000     -11.289249      -307.1961
  16   2.0000     -11.286303      -307.1159
  17   2.0000     -11.283263      -307.0332
  18   2.0000     -11.277689      -306.8815
  19   2.0000     -11.275149      -306.8124
  20   2.0000     -11.253907      -306.2344
  21   2.0000     -11.242879      -305.9343
  22   2.0000     -11.242366      -305.9203
  23   2.0000     -11.241062      -305.8848
  24   2.0000     -11.233115      -305.6686
  25   2.0000     -11.232284      -305.6460
  26   2.0000     -11.232186      -305.6433
  27   2.0000     -11.225971      -305.4742
  28   2.0000     -11.225744      -305.4680
  29   2.0000     -11.223087      -305.3957
  30   2.0000     -11.218672      -305.2756
  31   2.0000     -11.217833      -305.2528
  32   2.0000     -11.199191      -304.7455
  33   2.0000     -11.198827      -304.7356
  34   2.0000     -11.193067      -304.5788
  35   2.0000     -11.192799      -304.5715
  36   2.0000     -11.177579      -304.1574
  37   2.0000     -11.177054      -304.1431
  38   2.0000     -11.174864      -304.0835
  39   2.0000     -11.168924      -303.9219
  40   2.0000     -11.165880      -303.8390
  41   2.0000     -11.163407      -303.7717
  42   2.0000     -11.163294      -303.7687
  43   2.0000     -11.160245      -303.6857
  44   2.0000     -11.159694      -303.6707
  45   2.0000     -11.156358      -303.5799
  46   2.0000     -11.152543      -303.4761
  47   2.0000     -11.149536      -303.3943
  48   2.0000     -11.149064      -303.3815
  49   2.0000     -11.147719      -303.3448
  50   2.0000     -11.134855      -302.9948
  51   2.0000     -11.132937      -302.9426
  52   2.0000      -1.335827       -36.3497
  53   2.0000      -1.324461       -36.0404
  54   2.0000      -1.315810       -35.8050
  55   2.0000      -1.307282       -35.5730
  56   2.0000      -1.216544       -33.1039
  57   2.0000      -1.211051       -32.9544
  58   2.0000      -1.164240       -31.6806
  59   2.0000      -1.152234       -31.3539
  60   2.0000      -1.122499       -30.5448
  61   2.0000      -1.111945       -30.2576
  62   2.0000      -1.105267       -30.0758
  63   2.0000      -1.096864       -29.8472
  64   2.0000      -1.059144       -28.8208
  65   2.0000      -1.048254       -28.5244
  66   2.0000      -1.040359       -28.3096
  67   2.0000      -1.032478       -28.0951
  68   2.0000      -1.027750       -27.9665
  69   2.0000      -1.011771       -27.5317
  70   2.0000      -1.007156       -27.4061
  71   2.0000      -0.996125       -27.1060
  72   2.0000      -0.980706       -26.6864
  73   2.0000      -0.974817       -26.5261
  74   2.0000      -0.969823       -26.3902
  75   2.0000      -0.960972       -26.1494
  76   2.0000      -0.950141       -25.8546
  77   2.0000      -0.946918       -25.7669
  78   2.0000      -0.934818       -25.4377
  79   2.0000      -0.922466       -25.1016
  80   2.0000      -0.892641       -24.2900
  81   2.0000      -0.883946       -24.0534
  82   2.0000      -0.875162       -23.8144
  83   2.0000      -0.867461       -23.6048
  84   2.0000      -0.861047       -23.4303
  85   2.0000      -0.857881       -23.3441
  86   2.0000      -0.851618       -23.1737
  87   2.0000      -0.839113       -22.8334
  88   2.0000      -0.822153       -22.3719
  89   2.0000      -0.797434       -21.6993
  90   2.0000      -0.796811       -21.6823
  91   2.0000      -0.739816       -20.1314
  92   2.0000      -0.731275       -19.8990
  93   2.0000      -0.727091       -19.7852
  94   2.0000      -0.722492       -19.6600
  95   2.0000      -0.717022       -19.5111
  96   2.0000      -0.710663       -19.3381
  97   2.0000      -0.708131       -19.2692
  98   2.0000      -0.698082       -18.9958
  99   2.0000      -0.691356       -18.8128
 100   2.0000      -0.688267       -18.7287
 101   2.0000      -0.682002       -18.5582
 102   2.0000      -0.679181       -18.4815
 103   2.0000      -0.671949       -18.2847
 104   2.0000      -0.669389       -18.2150
 105   2.0000      -0.665717       -18.1151
 106   2.0000      -0.664087       -18.0707
 107   2.0000      -0.660345       -17.9689
 108   2.0000      -0.659155       -17.9365
 109   2.0000      -0.655747       -17.8438
 110   2.0000      -0.650995       -17.7145
 111   2.0000      -0.648721       -17.6526
 112   2.0000      -0.646524       -17.5928
 113   2.0000      -0.641572       -17.4581
 114   2.0000      -0.633477       -17.2378
 115   2.0000      -0.625087       -17.0095
 116   2.0000      -0.623364       -16.9626
 117   2.0000      -0.615355       -16.7447
 118   2.0000      -0.611812       -16.6482
 119   2.0000      -0.608311       -16.5530
 120   2.0000      -0.607512       -16.5312
 121   2.0000      -0.601428       -16.3657
 122   2.0000      -0.599809       -16.3216
 123   2.0000      -0.593796       -16.1580
 124   2.0000      -0.592602       -16.1255
 125   2.0000      -0.583969       -15.8906
 126   2.0000      -0.577728       -15.7208
 127   2.0000      -0.571259       -15.5448
 128   2.0000      -0.569846       -15.5063
 129   2.0000      -0.563206       -15.3256
 130   2.0000      -0.553614       -15.0646
 131   2.0000      -0.546926       -14.8826
 132   2.0000      -0.539993       -14.6940
 133   2.0000      -0.534951       -14.5568
 134   2.0000      -0.532102       -14.4792
 135   2.0000      -0.528157       -14.3719
 136   2.0000      -0.525482       -14.2991
 137   2.0000      -0.522885       -14.2284
 138   2.0000      -0.519448       -14.1349
 139   2.0000      -0.514897       -14.0111
 140   2.0000      -0.509319       -13.8593
 141   2.0000      -0.504676       -13.7329
 142   2.0000      -0.503631       -13.7045
 143   2.0000      -0.501865       -13.6564
 144   2.0000      -0.498497       -13.5648
 145   2.0000      -0.496304       -13.5051
 146   2.0000      -0.494949       -13.4682
 147   2.0000      -0.493446       -13.4274
 148   2.0000      -0.488653       -13.2969
 149   2.0000      -0.467271       -12.7151
 150   2.0000      -0.460473       -12.5301
 151   2.0000      -0.452088       -12.3019
 152   2.0000      -0.446836       -12.1590
 153   2.0000      -0.445173       -12.1138
 154   2.0000      -0.443083       -12.0569
 155   2.0000      -0.439786       -11.9672
 156   2.0000      -0.433830       -11.8051
 157   2.0000      -0.427740       -11.6394
 158   2.0000      -0.393101       -10.6968
 159   2.0000      -0.381063       -10.3693
 160   2.0000      -0.375775       -10.2254
 161   2.0000      -0.370509       -10.0821
 162   2.0000      -0.367707       -10.0058
 163   2.0000      -0.358753        -9.7622
 164   2.0000      -0.352070        -9.5803
 165   2.0000      -0.345504        -9.4016
 166   2.0000      -0.337960        -9.1964
 167   2.0000      -0.333678        -9.0798
 168   2.0000      -0.324891        -8.8407
 169   2.0000      -0.300036        -8.1644
 170   2.0000      -0.293947        -7.9987
 171   2.0000      -0.288170        -7.8415
 172   2.0000      -0.286600        -7.7988
 173   2.0000      -0.257385        -7.0038
 174   2.0000      -0.244250        -6.6464
 175   2.0000      -0.186706        -5.0805
 176   2.0000      -0.176491        -4.8026
 177   2.0000      -0.063915        -1.7392
 178   2.0000      -0.052595        -1.4312
 179   0.0000       0.032603         0.8872
 180   0.0000       0.068607         1.8669
 181   0.0000       0.092273         2.5109
 182   0.0000       0.095467         2.5978
 183   0.0000       0.125836         3.4242

MULLIKEN ATOMIC CHARGES
-----------------------
   0 C :    0.214772
   1 N :   -0.434981
   2 C :   -0.065269
   3 N :   -0.339088
   4 C :   -0.071406
   5 N :   -0.564563
   6 C :   -0.050342
   7 N :   -0.337305
   8 C :    0.212984
   9 N :   -0.564159
  10 C :    0.111672
  11 N :   -0.437703
  12 C :   -0.066303
  13 N :   -0.443543
  14 C :    0.237033
  15 N :   -0.440538
  16 C :    0.240325
  17 C :   -0.055393
  18 C :   -0.205350
  19 C :    0.239229
  20 C :    0.202971
  21 C :   -0.078589
  22 C :   -0.086435
  23 C :   -0.054157
  24 C :    0.210349
  25 C :    0.113910
  26 C :   -0.070783
  27 C :    0.231162
  28 C :   -0.048292
  29 C :   -0.190010
  30 C :    0.231090
  31 C :    0.202645
  32 C :   -0.066457
  33 C :   -0.088510
  34 C :   -0.050966
  35 C :    0.196350
  36 C :    0.116375
  37 C :   -0.067976
  38 C :    0.238557
  39 C :   -0.062060
  40 C :   -0.194501
  41 C :    0.220457
  42 C :    0.207018
  43 C :   -0.074257
  44 C :   -0.088707
  45 C :   -0.047838
  46 C :    0.198420
  47 C :    0.115676
  48 C :   -0.076592
  49 C :    0.220716
  50 C :   -0.057144
  51 C :   -0.188581
  52 H :    0.062257
  53 H :   -0.012247
  54 H :    0.053166
  55 H :    0.060817
  56 H :    0.066438
  57 H :    0.062535
  58 H :    0.060808
  59 H :   -0.017514
  60 H :    0.050890
  61 H :    0.174289
  62 H :    0.171154
  63 H :    0.056012
  64 H :   -0.023884
  65 H :    0.046055
  66 H :    0.057534
  67 H :    0.061870
  68 H :    0.057949
  69 H :    0.059298
  70 H :   -0.021765
  71 H :    0.048019
  72 H :    0.050143
  73 H :   -0.016677
  74 H :    0.040927
  75 H :    0.049155
  76 H :    0.056706
  77 H :    0.054133
  78 H :    0.053415
  79 H :   -0.013411
  80 H :    0.041226
  81 H :    0.053095
  82 H :   -0.022791
  83 H :    0.043818
  84 H :    0.052778
  85 H :    0.058236
  86 H :    0.056811
  87 H :    0.056347
  88 H :   -0.024549
  89 H :    0.043048
Sum of atomic charges:    0.0000000

LOEWDIN ATOMIC CHARGES
----------------------
   0 C :    0.007632
   1 N :    0.151721
   2 C :   -0.100509
   3 N :    0.176649
   4 C :    0.056281
   5 N :   -0.141963
   6 C :   -0.017398
   7 N :    0.177885
   8 C :    0.006797
   9 N :   -0.139114
  10 C :    0.031876
  11 N :    0.144115
  12 C :   -0.101007
  13 N :    0.132412
  14 C :   -0.049149
  15 N :    0.138509
  16 C :   -0.037854
  17 C :   -0.020898
  18 C :   -0.111594
  19 C :   -0.087621
  20 C :   -0.003982
  21 C :   -0.103550
  22 C :    0.042691
  23 C :   -0.023822
  24 C :    0.002782
  25 C :    0.030297
  26 C :   -0.100141
  27 C :   -0.082278
  28 C :   -0.018879
  29 C :   -0.112343
  30 C :   -0.051584
  31 C :   -0.008375
  32 C :   -0.101621
  33 C :    0.024980
  34 C :   -0.022539
  35 C :   -0.013838
  36 C :    0.027525
  37 C :   -0.104164
  38 C :   -0.038842
  39 C :   -0.027871
  40 C :   -0.110589
  41 C :   -0.092011
  42 C :   -0.002453
  43 C :   -0.106881
  44 C :    0.034105
  45 C :   -0.019355
  46 C :   -0.009765
  47 C :    0.029198
  48 C :   -0.106966
  49 C :   -0.098378
  50 C :   -0.026101
  51 C :   -0.107931
  52 H :    0.033115
  53 H :    0.005177
  54 H :    0.047621
  55 H :    0.032660
  56 H :    0.030344
  57 H :    0.033278
  58 H :    0.033137
  59 H :    0.002807
  60 H :    0.046838
  61 H :    0.061304
  62 H :    0.059584
  63 H :    0.030617
  64 H :   -0.002351
  65 H :    0.044682
  66 H :    0.030704
  67 H :    0.028106
  68 H :    0.031940
  69 H :    0.031531
  70 H :   -0.000803
  71 H :    0.045596
  72 H :    0.027817
  73 H :    0.002957
  74 H :    0.042477
  75 H :    0.027096
  76 H :    0.025394
  77 H :    0.029674
  78 H :    0.029371
  79 H :    0.004631
  80 H :    0.042016
  81 H :    0.028909
  82 H :   -0.001445
  83 H :    0.044083
  84 H :    0.028773
  85 H :    0.026183
  86 H :    0.030652
  87 H :    0.030983
  88 H :   -0.002413
  89 H :    0.042867

  Mayer bond orders larger than 0.100000
B(  0-C ,  1-N ) :   1.1372 B(  0-C , 17-C ) :   1.6069 B(  0-C , 52-H ) :   0.9690
B(  1-N ,  8-C ) :   1.1329 B(  1-N , 10-C ) :   0.9528 B(  2-C , 12-C ) :   1.5460
B(  2-C , 16-C ) :   1.3122 B(  2-C , 53-H ) :   0.9782 B(  3-N , 14-C ) :   1.1947
B(  3-N , 16-C ) :   1.1984 B(  3-N , 61-H ) :   0.8973 B(  4-C ,  6-C ) :   1.2892
B(  4-C , 17-C ) :   1.2905 B(  4-C , 18-C ) :   1.2101 B(  5-N , 19-C ) :   1.4022
B(  5-N , 27-C ) :   1.4185 B(  6-C ,  8-C ) :   1.6076 B(  6-C , 54-H ) :   0.9709
B(  7-N , 30-C ) :   1.1920 B(  7-N , 38-C ) :   1.2053 B(  7-N , 62-H ) :   0.8993
B(  8-C , 55-H ) :   0.9694 B(  9-N , 41-C ) :   1.4180 B(  9-N , 49-C ) :   1.4067
B( 10-C , 56-H ) :   0.9763 B( 10-C , 57-H ) :   0.9815 B( 10-C , 58-H ) :   0.9831
B( 11-N , 20-C ) :   1.1186 B( 11-N , 24-C ) :   1.1283 B( 11-N , 25-C ) :   0.9585
B( 12-C , 14-C ) :   1.3122 B( 12-C , 59-H ) :   0.9773 B( 13-N , 31-C ) :   1.1096
B( 13-N , 35-C ) :   1.1029 B( 13-N , 36-C ) :   0.9669 B( 14-C , 18-C ) :   1.2121
B( 15-N , 42-C ) :   1.1207 B( 15-N , 46-C ) :   1.1086 B( 15-N , 47-C ) :   0.9626
B( 16-C , 51-C ) :   1.2101 B( 17-C , 60-H ) :   0.9715 B( 18-C , 19-C ) :   1.2417
B( 19-C , 21-C ) :   1.1964 B( 20-C , 28-C ) :   1.6231 B( 20-C , 63-H ) :   0.9704
B( 21-C , 26-C ) :   1.6537 B( 21-C , 64-H ) :   0.9722 B( 22-C , 23-C ) :   1.2770
B( 22-C , 28-C ) :   1.2774 B( 22-C , 29-C ) :   1.2372 B( 23-C , 24-C ) :   1.6213
B( 23-C , 65-H ) :   0.9713 B( 24-C , 66-H ) :   0.9690 B( 25-C , 67-H ) :   0.9762
B( 25-C , 68-H ) :   0.9830 B( 25-C , 69-H ) :   0.9820 B( 26-C , 27-C ) :   1.1991
B( 26-C , 70-H ) :   0.9739 B( 27-C , 29-C ) :   1.2345 B( 28-C , 71-H ) :   0.9712
B( 29-C , 30-C ) :   1.1974 B( 30-C , 32-C ) :   1.3270 B( 31-C , 39-C ) :   1.6474
B( 31-C , 72-H ) :   0.9701 B( 32-C , 37-C ) :   1.5311 B( 32-C , 73-H ) :   0.9775
B( 33-C , 34-C ) :   1.2612 B( 33-C , 39-C ) :   1.2549 B( 33-C , 40-C ) :   1.2826
B( 34-C , 35-C ) :   1.6450 B( 34-C , 74-H ) :   0.9707 B( 35-C , 75-H ) :   0.9701
B( 36-C , 76-H ) :   0.9761 B( 36-C , 77-H ) :   0.9823 B( 36-C , 78-H ) :   0.9833
B( 37-C , 38-C ) :   1.3269 B( 37-C , 79-H ) :   0.9782 B( 38-C , 40-C ) :   1.1964
B( 39-C , 80-H ) :   0.9717 B( 40-C , 41-C ) :   1.2043 B( 41-C , 43-C ) :   1.2245
B( 42-C , 50-C ) :   1.6340 B( 42-C , 81-H ) :   0.9696 B( 43-C , 48-C ) :   1.6271
B( 43-C , 82-H ) :   0.9744 B( 44-C , 45-C ) :   1.2757 B( 44-C , 50-C ) :   1.2633
B( 44-C , 51-C ) :   1.2501 B( 45-C , 46-C ) :   1.6305 B( 45-C , 83-H ) :   0.9708
B( 46-C , 84-H ) :   0.9703 B( 47-C , 85-H ) :   0.9761 B( 47-C , 86-H ) :   0.9827
B( 47-C , 87-H ) :   0.9827 B( 48-C , 49-C ) :   1.2222 B( 48-C , 88-H ) :   0.9734
B( 49-C , 51-C ) :   1.2149 B( 50-C , 89-H ) :   0.9716

MP2 TOTAL ENERGY:    -2130.907190648 Eh
FINAL SINGLE POINT ENERGY     -2130.907190648129

DIPOLE MOMENT
-------------
                                X             Y             Z
Electronic contribution:     -1.40240       1.01768      -0.14454
Nuclear contribution   :     -0.04269       0.15594       0.18236
                        -----------------------------------------
Total Dipole Moment    :     -1.44509       1.17362       0.03781
                        -----------------------------------------
Magnitude (a.u.)       :      1.86201
Magnitude (Debye)      :      4.73285

Rotational constants in cm-1:     0.001499     0.001473     0.000762
Rotational constants in MHz :    44.929663    44.167178    22.853219

                             ****ORCA TERMINATED NORMALLY****
TOTAL RUN TIME: 0 days 2 hours 4 minutes 9 seconds 153 msec
