                         Program Version 5.0.4 -  RELEASE  -
|  1> ! PAL2
|  2> ! mp2 cc-pvdz TightSCF  NoKeepInts
|  3>
|  4> %scf
|  5>   MaxCore 2000
|  6> end
|  7> %mp2
|  8>   MaxCore 2000
|  9> end
| 10> * xyz 0 1
| 11>    C       -3.50000         6.15600         1.08900
| 12>    C        1.47400         4.04100         0.05700
| 13>    C       -2.80200         4.09300         0.04900
| 14>    C       -3.73200         4.35200        -0.97000
| 15>    C       -4.50600         5.49400        -0.92800
| 16>    C       -5.20500         7.60800         0.08800
| 17>    C        0.13200         4.30700         0.06100
| 18>    C       -0.56900         3.05600         0.04700
| 19>    C        1.64900         2.61800         0.02300
| 20>    C       -2.69900         5.03000         1.08900
| 21>    N       -4.38700         6.37500         0.09200
| 22>    N        0.38800         2.06700         0.02500
| 23>    N       -2.01000         0.39500        -0.07500
| 24>    N       -0.38800        -2.07400        -0.02700
| 25>    N        2.01000        -0.40100         0.06500
| 26>    C       -1.96000         2.86100         0.02400
| 27>    C       -2.62300         1.61500        -0.01800
| 28>    C       -5.57300        -4.32900         1.06600
| 29>    C       -4.07300         1.47100         0.05600
| 30>    C       -4.10600        -2.75600        -0.02600
| 31>    C       -4.99500        -2.75700        -1.11100
| 32>    C       -6.13200        -3.54200        -1.07600
| 33>    C       -7.65100        -5.11300         0.04000
| 34>    C       -4.32400         0.14100         0.03700
| 35>    C       -3.02500        -0.52000        -0.04800
| 36>    C       -4.42200        -3.56600         1.07500
| 37>    N       -6.40700        -4.31300         0.00100
| 38>    C       -2.86700        -1.92200        -0.04000
| 39>    C       -1.65000        -2.62400        -0.02700
| 40>    C        3.56800        -6.14200        -1.04000
| 41>    C       -1.47600        -4.04900        -0.03400
| 42>    C        2.80300        -4.09900        -0.00800
| 43>    C        3.65700        -4.38400         1.06900
| 44>    C        4.42700        -5.53000         1.05900
| 45>    C        5.24500        -7.58800         0.01400
| 46>    C       -0.13400        -4.31500        -0.02200
| 47>    C        0.56800        -3.06400        -0.02700
| 48>    C        2.77500        -5.01200        -1.07400
| 49>    N        4.37600        -6.39100         0.01700
| 50>    C        1.95900        -2.86900        -0.00900
| 51>    C        2.62100        -1.62200         0.00900
| 52>    C        5.54300         4.33900        -1.13000
| 53>    C        4.07000        -1.47900        -0.09400
| 54>    C        4.10400         2.75100        -0.02100
| 55>    C        5.02700         2.72900         1.03600
| 56>    C        6.16600         3.50900         0.97800
| 57>    C        7.61900         5.15300        -0.11500
| 58>    C        4.32100        -0.14800        -0.09200
| 59>    C        3.02500         0.51400         0.01500
| 60>    C        4.38700         3.58200        -1.11500
| 61>    C        2.86600         1.91600         0.01300
| 62>    N        6.41300         4.29600        -0.09500
| 63>    H       -3.46400         6.89800         1.87700
| 64>    H        2.27400         4.76600         0.08100
| 65>    H       -3.85100         3.67100        -1.80400
| 66>    H       -5.23000         5.74000        -1.69500
| 67>    H       -4.69000         8.37400        -0.49600
| 68>    H       -6.17400         7.38500        -0.35800
| 69>    H       -5.33600         7.94500         1.11600
| 70>    H       -0.33200         5.28200         0.06900
| 71>    H       -2.01000         4.88000         1.91200
| 72>    H        0.18200         1.07200         0.00500
| 73>    H       -0.18300        -1.08000        -0.02100
| 74>    H       -5.86400        -4.96200         1.89500
| 75>    H       -4.79400         2.27200         0.13900
| 76>    H       -4.80000        -2.16000        -1.99400
| 77>    H       -6.84100        -3.58200        -1.89300
| 78>    H       -8.42800        -4.53600         0.54600
| 79>    H       -7.95600        -5.33700        -0.98100
| 80>    H       -7.45600        -6.03700         0.58400
| 81>    H       -5.28700        -0.34400         0.10000
| 82>    H       -3.78000        -3.60100         1.94700
| 83>    H        3.58700        -6.86800        -1.84300
| 84>    H       -2.27600        -4.77400        -0.05000
| 85>    H        3.71400        -3.72400         1.92600
| 86>    H        5.09200        -5.79500         1.87100
| 87>    H        6.20500        -7.32900        -0.43900
| 88>    H        5.39300        -7.91700         1.04200
| 89>    H        4.75900        -8.37300        -0.56400
| 90>    H        0.32900        -5.29000        -0.00800
| 91>    H        2.14600        -4.84200        -1.94000
| 92>    H        5.80800         4.98600        -1.95600
| 93>    H        4.78800        -2.28100        -0.18500
| 94>    H        4.86000         2.11400         1.91200
| 95>    H        6.90100         3.53100         1.77200
| 96>    H        7.38300         6.10900         0.35600
| 97>    H        8.41400         4.65200         0.43500
| 98>    H        7.92100         5.31000        -1.15000
| 99>    H        5.28300         0.33600        -0.17900
|100>    H        3.72000         3.63200        -1.96700
|101> *
|102>
|103>                          ****END OF INPUT****

CARTESIAN COORDINATES (ANGSTROEM)
---------------------------------
  C     -3.500000    6.156000    1.089000
  C      1.474000    4.041000    0.057000
  C     -2.802000    4.093000    0.049000
  C     -3.732000    4.352000   -0.970000
  C     -4.506000    5.494000   -0.928000
  C     -5.205000    7.608000    0.088000
  C      0.132000    4.307000    0.061000
  C     -0.569000    3.056000    0.047000
  C      1.649000    2.618000    0.023000
  C     -2.699000    5.030000    1.089000
  N     -4.387000    6.375000    0.092000
  N      0.388000    2.067000    0.025000
  N     -2.010000    0.395000   -0.075000
  N     -0.388000   -2.074000   -0.027000
  N      2.010000   -0.401000    0.065000
  C     -1.960000    2.861000    0.024000
  C     -2.623000    1.615000   -0.018000
  C     -5.573000   -4.329000    1.066000
  C     -4.073000    1.471000    0.056000
  C     -4.106000   -2.756000   -0.026000
  C     -4.995000   -2.757000   -1.111000
  C     -6.132000   -3.542000   -1.076000
  C     -7.651000   -5.113000    0.040000
  C     -4.324000    0.141000    0.037000
  C     -3.025000   -0.520000   -0.048000
  C     -4.422000   -3.566000    1.075000
  N     -6.407000   -4.313000    0.001000
  C     -2.867000   -1.922000   -0.040000
  C     -1.650000   -2.624000   -0.027000
  C      3.568000   -6.142000   -1.040000
  C     -1.476000   -4.049000   -0.034000
  C      2.803000   -4.099000   -0.008000
  C      3.657000   -4.384000    1.069000
  C      4.427000   -5.530000    1.059000
  C      5.245000   -7.588000    0.014000
  C     -0.134000   -4.315000   -0.022000
  C      0.568000   -3.064000   -0.027000
  C      2.775000   -5.012000   -1.074000
  N      4.376000   -6.391000    0.017000
  C      1.959000   -2.869000   -0.009000
  C      2.621000   -1.622000    0.009000
  C      5.543000    4.339000   -1.130000
  C      4.070000   -1.479000   -0.094000
  C      4.104000    2.751000   -0.021000
  C      5.027000    2.729000    1.036000
  C      6.166000    3.509000    0.978000
  C      7.619000    5.153000   -0.115000
  C      4.321000   -0.148000   -0.092000
  C      3.025000    0.514000    0.015000
  C      4.387000    3.582000   -1.115000
  C      2.866000    1.916000    0.013000
  N      6.413000    4.296000   -0.095000
  H     -3.464000    6.898000    1.877000
  H      2.274000    4.766000    0.081000
  H     -3.851000    3.671000   -1.804000
  H     -5.230000    5.740000   -1.695000
  H     -4.690000    8.374000   -0.496000
  H     -6.174000    7.385000   -0.358000
  H     -5.336000    7.945000    1.116000
  H     -0.332000    5.282000    0.069000
  H     -2.010000    4.880000    1.912000
  H      0.182000    1.072000    0.005000
  H     -0.183000   -1.080000   -0.021000
  H     -5.864000   -4.962000    1.895000
  H     -4.794000    2.272000    0.139000
  H     -4.800000   -2.160000   -1.994000
  H     -6.841000   -3.582000   -1.893000
  H     -8.428000   -4.536000    0.546000
  H     -7.956000   -5.337000   -0.981000
  H     -7.456000   -6.037000    0.584000
  H     -5.287000   -0.344000    0.100000
  H     -3.780000   -3.601000    1.947000
  H      3.587000   -6.868000   -1.843000
  H     -2.276000   -4.774000   -0.050000
  H      3.714000   -3.724000    1.926000
  H      5.092000   -5.795000    1.871000
  H      6.205000   -7.329000   -0.439000
  H      5.393000   -7.917000    1.042000
  H      4.759000   -8.373000   -0.564000
  H      0.329000   -5.290000   -0.008000
  H      2.146000   -4.842000   -1.940000
  H      5.808000    4.986000   -1.956000
  H      4.788000   -2.281000   -0.185000
  H      4.860000    2.114000    1.912000
  H      6.901000    3.531000    1.772000
  H      7.383000    6.109000    0.356000
  H      8.414000    4.652000    0.435000
  H      7.921000    5.310000   -1.150000
  H      5.283000    0.336000   -0.179000
  H      3.720000    3.632000   -1.967000

 Total Charge           Charge          ....    0
 Multiplicity           Mult            ....    1
 Number of Electrons    NEL             ....  358
 Basis Dimension        Dim             ....  918

ORBITAL ENERGIES
----------------

  NO   OCC          E(Eh)            E(eV)
   0   2.0000     -15.641211      -425.6190
   1   2.0000     -15.639608      -425.5754
   2   2.0000     -15.628674      -425.2778
   3   2.0000     -15.622035      -425.0972
   4   2.0000     -15.519210      -422.2992
   5   2.0000     -15.515510      -422.1985
   6   2.0000     -15.444265      -420.2598
   7   2.0000     -15.444137      -420.2563
   8   2.0000     -11.303969      -307.5966
   9   2.0000     -11.302739      -307.5632
  10   2.0000     -11.297693      -307.4259
  11   2.0000     -11.295974      -307.3791
  12   2.0000     -11.295164      -307.3570
  13   2.0000     -11.295025      -307.3533
  14   2.0000     -11.294019      -307.3259
  15   2.0000     -11.292475      -307.2839
  16   2.0000     -11.285919      -307.1055
  17   2.0000     -11.285325      -307.0893
  18   2.0000     -11.281699      -306.9906
  19   2.0000     -11.280324      -306.9532
  20   2.0000     -11.245502      -306.0057
  21   2.0000     -11.242970      -305.9368
  22   2.0000     -11.235845      -305.7429
  23   2.0000     -11.234968      -305.7190
  24   2.0000     -11.234756      -305.7133
  25   2.0000     -11.234127      -305.6961
  26   2.0000     -11.233021      -305.6660
  27   2.0000     -11.228484      -305.5426
  28   2.0000     -11.226577      -305.4907
  29   2.0000     -11.226459      -305.4875
  30   2.0000     -11.221974      -305.3654
  31   2.0000     -11.221589      -305.3550
  32   2.0000     -11.201138      -304.7985
  33   2.0000     -11.200611      -304.7841
  34   2.0000     -11.193823      -304.5994
  35   2.0000     -11.193404      -304.5880
  36   2.0000     -11.173012      -304.0331
  37   2.0000     -11.172432      -304.0173
  38   2.0000     -11.171755      -303.9989
  39   2.0000     -11.171588      -303.9944
  40   2.0000     -11.170001      -303.9512
  41   2.0000     -11.169489      -303.9372
  42   2.0000     -11.166514      -303.8563
  43   2.0000     -11.166086      -303.8446
  44   2.0000     -11.160865      -303.7026
  45   2.0000     -11.159514      -303.6658
  46   2.0000     -11.152392      -303.4720
  47   2.0000     -11.150790      -303.4284
  48   2.0000     -11.143650      -303.2341
  49   2.0000     -11.141681      -303.1806
  50   2.0000     -11.141531      -303.1765
  51   2.0000     -11.139120      -303.1109
  52   2.0000      -1.327437       -36.1214
  53   2.0000      -1.325996       -36.0822
  54   2.0000      -1.316543       -35.8250
  55   2.0000      -1.311599       -35.6904
  56   2.0000      -1.218167       -33.1480
  57   2.0000      -1.212366       -32.9901
  58   2.0000      -1.161558       -31.6076
  59   2.0000      -1.157004       -31.4837
  60   2.0000      -1.116271       -30.3753
  61   2.0000      -1.113402       -30.2972
  62   2.0000      -1.105581       -30.0844
  63   2.0000      -1.101287       -29.9675
  64   2.0000      -1.051363       -28.6090
  65   2.0000      -1.049801       -28.5665
  66   2.0000      -1.041111       -28.3301
  67   2.0000      -1.036747       -28.2113
  68   2.0000      -1.026807       -27.9408
  69   2.0000      -1.009877       -27.4802
  70   2.0000      -1.009365       -27.4662
  71   2.0000      -0.997838       -27.1525
  72   2.0000      -0.982421       -26.7330
  73   2.0000      -0.975575       -26.5467
  74   2.0000      -0.969133       -26.3715
  75   2.0000      -0.960087       -26.1253
  76   2.0000      -0.952491       -25.9186
  77   2.0000      -0.942438       -25.6450
  78   2.0000      -0.940504       -25.5924
  79   2.0000      -0.923361       -25.1259
  80   2.0000      -0.893000       -24.2998
  81   2.0000      -0.878409       -23.9027
  82   2.0000      -0.876113       -23.8403
  83   2.0000      -0.868545       -23.6343
  84   2.0000      -0.864593       -23.5268
  85   2.0000      -0.857022       -23.3207
  86   2.0000      -0.847483       -23.0612
  87   2.0000      -0.844479       -22.9794
  88   2.0000      -0.821703       -22.3597
  89   2.0000      -0.798484       -21.7279
  90   2.0000      -0.797712       -21.7068
  91   2.0000      -0.739302       -20.1174
  92   2.0000      -0.729352       -19.8467
  93   2.0000      -0.729032       -19.8380
  94   2.0000      -0.720677       -19.6106
  95   2.0000      -0.720087       -19.5946
  96   2.0000      -0.712060       -19.3761
  97   2.0000      -0.709325       -19.3017
  98   2.0000      -0.698539       -19.0082
  99   2.0000      -0.692598       -18.8466
 100   2.0000      -0.684084       -18.6149
 101   2.0000      -0.680226       -18.5099
 102   2.0000      -0.679588       -18.4925
 103   2.0000      -0.673354       -18.3229
 104   2.0000      -0.667857       -18.1733
 105   2.0000      -0.667041       -18.1511
 106   2.0000      -0.663071       -18.0431
 107   2.0000      -0.659296       -17.9404
 108   2.0000      -0.657881       -17.9018
 109   2.0000      -0.654611       -17.8129
 110   2.0000      -0.652555       -17.7569
 111   2.0000      -0.650673       -17.7057
 112   2.0000      -0.647544       -17.6206
 113   2.0000      -0.644505       -17.5379
 114   2.0000      -0.634807       -17.2740
 115   2.0000      -0.622896       -16.9498
 116   2.0000      -0.617924       -16.8146
 117   2.0000      -0.616561       -16.7775
 118   2.0000      -0.610452       -16.6112
 119   2.0000      -0.608669       -16.5627
 120   2.0000      -0.608215       -16.5504
 121   2.0000      -0.604597       -16.4519
 122   2.0000      -0.603007       -16.4086
 123   2.0000      -0.593679       -16.1548
 124   2.0000      -0.586592       -15.9620
 125   2.0000      -0.585216       -15.9245
 126   2.0000      -0.578281       -15.7358
 127   2.0000      -0.574315       -15.6279
 128   2.0000      -0.571179       -15.5426
 129   2.0000      -0.561456       -15.2780
 130   2.0000      -0.553789       -15.0694
 131   2.0000      -0.542951       -14.7745
 132   2.0000      -0.541199       -14.7268
 133   2.0000      -0.535229       -14.5643
 134   2.0000      -0.533788       -14.5251
 135   2.0000      -0.530839       -14.4449
 136   2.0000      -0.524031       -14.2596
 137   2.0000      -0.523281       -14.2392
 138   2.0000      -0.517347       -14.0777
 139   2.0000      -0.516879       -14.0650
 140   2.0000      -0.509336       -13.8597
 141   2.0000      -0.505406       -13.7528
 142   2.0000      -0.504180       -13.7194
 143   2.0000      -0.503760       -13.7080
 144   2.0000      -0.499178       -13.5833
 145   2.0000      -0.497925       -13.5492
 146   2.0000      -0.496350       -13.5064
 147   2.0000      -0.493151       -13.4193
 148   2.0000      -0.490906       -13.3582
 149   2.0000      -0.468824       -12.7574
 150   2.0000      -0.460278       -12.5248
 151   2.0000      -0.451134       -12.2760
 152   2.0000      -0.448266       -12.1980
 153   2.0000      -0.445987       -12.1359
 154   2.0000      -0.445112       -12.1121
 155   2.0000      -0.439502       -11.9595
 156   2.0000      -0.435039       -11.8380
 157   2.0000      -0.432029       -11.7561
 158   2.0000      -0.390894       -10.6368
 159   2.0000      -0.381339       -10.3768
 160   2.0000      -0.379978       -10.3397
 161   2.0000      -0.372931       -10.1480
 162   2.0000      -0.361557        -9.8385
 163   2.0000      -0.360089        -9.7985
 164   2.0000      -0.352778        -9.5996
 165   2.0000      -0.348874        -9.4933
 166   2.0000      -0.337253        -9.1771
 167   2.0000      -0.332199        -9.0396
 168   2.0000      -0.329400        -8.9634
 169   2.0000      -0.300199        -8.1688
 170   2.0000      -0.295749        -8.0477
 171   2.0000      -0.288891        -7.8611
 172   2.0000      -0.287311        -7.8181
 173   2.0000      -0.254770        -6.9326
 174   2.0000      -0.248032        -6.7493
 175   2.0000      -0.188036        -5.1167
 176   2.0000      -0.177881        -4.8404
 177   2.0000      -0.066447        -1.8081
 178   2.0000      -0.054748        -1.4898
 179   0.0000       0.030912         0.8411
 180   0.0000       0.070615         1.9215
 181   0.0000       0.093121         2.5339
 182   0.0000       0.097328         2.6484
 183   0.0000       0.132760         3.6126

MULLIKEN ATOMIC CHARGES
-----------------------
   0 C :    0.205695
   1 N :   -0.443651
   2 C :   -0.065035
   3 N :   -0.337784
   4 C :   -0.073911
   5 N :   -0.561932
   6 C :   -0.064811
   7 N :   -0.338488
   8 C :    0.203275
   9 N :   -0.562947
  10 C :    0.115395
  11 N :   -0.437252
  12 C :   -0.069489
  13 N :   -0.438350
  14 C :    0.234973
  15 N :   -0.440777
  16 C :    0.234455
  17 C :   -0.070602
  18 C :   -0.193901
  19 C :    0.224906
  20 C :    0.209235
  21 C :   -0.077475
  22 C :   -0.086046
  23 C :   -0.047887
  24 C :    0.205087
  25 C :    0.113735
  26 C :   -0.073240
  27 C :    0.221276
  28 C :   -0.053169
  29 C :   -0.184612
  30 C :    0.236857
  31 C :    0.213916
  32 C :   -0.064369
  33 C :   -0.078463
  34 C :   -0.049755
  35 C :    0.207132
  36 C :    0.113318
  37 C :   -0.066238
  38 C :    0.236651
  39 C :   -0.061289
  40 C :   -0.187909
  41 C :    0.220772
  42 C :    0.202354
  43 C :   -0.073722
  44 C :   -0.089174
  45 C :   -0.053955
  46 C :    0.204193
  47 C :    0.115619
  48 C :   -0.074010
  49 C :    0.227374
  50 C :   -0.051969
  51 C :   -0.190518
  52 H :    0.052275
  53 H :   -0.014456
  54 H :    0.044496
  55 H :    0.050797
  56 H :    0.057527
  57 H :    0.055403
  58 H :    0.054850
  59 H :   -0.011767
  60 H :    0.045769
  61 H :    0.172466
  62 H :    0.173287
  63 H :    0.057094
  64 H :   -0.018089
  65 H :    0.046567
  66 H :    0.057704
  67 H :    0.063308
  68 H :    0.058252
  69 H :    0.058901
  70 H :   -0.025089
  71 H :    0.048163
  72 H :    0.058373
  73 H :   -0.013295
  74 H :    0.048533
  75 H :    0.057417
  76 H :    0.063705
  77 H :    0.059432
  78 H :    0.058606
  79 H :   -0.014001
  80 H :    0.048837
  81 H :    0.053642
  82 H :   -0.024095
  83 H :    0.042665
  84 H :    0.053089
  85 H :    0.059102
  86 H :    0.056096
  87 H :    0.056717
  88 H :   -0.021106
  89 H :    0.045341
Sum of atomic charges:    0.0000000

LOEWDIN ATOMIC CHARGES
----------------------
   0 C :   -0.007094
   1 N :    0.133607
   2 C :   -0.100578
   3 N :    0.178645
   4 C :    0.027785
   5 N :   -0.136658
   6 C :   -0.024393
   7 N :    0.177075
   8 C :   -0.009223
   9 N :   -0.139019
  10 C :    0.028107
  11 N :    0.145150
  12 C :   -0.102252
  13 N :    0.145122
  14 C :   -0.043048
  15 N :    0.138432
  16 C :   -0.048046
  17 C :   -0.027998
  18 C :   -0.107197
  19 C :   -0.087366
  20 C :    0.001805
  21 C :   -0.105590
  22 C :    0.043678
  23 C :   -0.019650
  24 C :   -0.001745
  25 C :    0.030542
  26 C :   -0.104533
  27 C :   -0.097745
  28 C :   -0.021440
  29 C :   -0.105735
  30 C :   -0.043975
  31 C :    0.004837
  32 C :   -0.097915
  33 C :    0.046220
  34 C :   -0.018833
  35 C :   -0.000967
  36 C :    0.030443
  37 C :   -0.099821
  38 C :   -0.042339
  39 C :   -0.024417
  40 C :   -0.108658
  41 C :   -0.094392
  42 C :   -0.006262
  43 C :   -0.104445
  44 C :    0.033762
  45 C :   -0.023358
  46 C :   -0.004669
  47 C :    0.029259
  48 C :   -0.104020
  49 C :   -0.086911
  50 C :   -0.022453
  51 C :   -0.108983
  52 H :    0.028493
  53 H :    0.004129
  54 H :    0.042921
  55 H :    0.028495
  56 H :    0.025781
  57 H :    0.029805
  58 H :    0.030520
  59 H :    0.004827
  60 H :    0.042860
  61 H :    0.060421
  62 H :    0.060706
  63 H :    0.031323
  64 H :   -0.000016
  65 H :    0.045275
  66 H :    0.030552
  67 H :    0.028752
  68 H :    0.032091
  69 H :    0.031412
  70 H :   -0.002456
  71 H :    0.045383
  72 H :    0.031669
  73 H :    0.004574
  74 H :    0.045732
  75 H :    0.030953
  76 H :    0.028988
  77 H :    0.032156
  78 H :    0.031802
  79 H :    0.004283
  80 H :    0.045255
  81 H :    0.028961
  82 H :   -0.002181
  83 H :    0.043254
  84 H :    0.029132
  85 H :    0.026573
  86 H :    0.030367
  87 H :    0.031163
  88 H :   -0.000767
  89 H :    0.044066

  Mayer bond orders larger than 0.100000
B(  0-C ,  1-N ) :   1.1123 B(  0-C , 17-C ) :   1.6487 B(  0-C , 52-H ) :   0.9690
B(  1-N ,  8-C ) :   1.1072 B(  1-N , 10-C ) :   0.9650 B(  2-C , 12-C ) :   1.5331
B(  2-C , 16-C ) :   1.3266 B(  2-C , 53-H ) :   0.9777 B(  3-N , 14-C ) :   1.2053
B(  3-N , 16-C ) :   1.1944 B(  3-N , 61-H ) :   0.8986 B(  4-C ,  6-C ) :   1.2556
B(  4-C , 17-C ) :   1.2534 B(  4-C , 18-C ) :   1.2964 B(  5-N , 19-C ) :   1.4248
B(  5-N , 27-C ) :   1.4014 B(  6-C ,  8-C ) :   1.6495 B(  6-C , 54-H ) :   0.9703
B(  7-N , 30-C ) :   1.1925 B(  7-N , 38-C ) :   1.2005 B(  7-N , 62-H ) :   0.8980
B(  8-C , 55-H ) :   0.9703 B(  9-N , 41-C ) :   1.4052 B(  9-N , 49-C ) :   1.4186
B( 10-C , 56-H ) :   0.9763 B( 10-C , 57-H ) :   0.9825 B( 10-C , 58-H ) :   0.9831
B( 11-N , 20-C ) :   1.1265 B( 11-N , 24-C ) :   1.1224 B( 11-N , 25-C ) :   0.9578
B( 12-C , 14-C ) :   1.3290 B( 12-C , 59-H ) :   0.9768 B( 13-N , 31-C ) :   1.1295
B( 13-N , 35-C ) :   1.1222 B( 13-N , 36-C ) :   0.9573 B( 14-C , 18-C ) :   1.1876
B( 15-N , 42-C ) :   1.1144 B( 15-N , 46-C ) :   1.1156 B( 15-N , 47-C ) :   0.9623
B( 16-C , 51-C ) :   1.1975 B( 17-C , 60-H ) :   0.9708 B( 18-C , 19-C ) :   1.2003
B( 19-C , 21-C ) :   1.2178 B( 20-C , 28-C ) :   1.6223 B( 20-C , 63-H ) :   0.9702
B( 21-C , 26-C ) :   1.6373 B( 21-C , 64-H ) :   0.9733 B( 22-C , 23-C ) :   1.2853
B( 22-C , 28-C ) :   1.2747 B( 22-C , 29-C ) :   1.2262 B( 23-C , 24-C ) :   1.6170
B( 23-C , 65-H ) :   0.9709 B( 24-C , 66-H ) :   0.9692 B( 25-C , 67-H ) :   0.9762
B( 25-C , 68-H ) :   0.9829 B( 25-C , 69-H ) :   0.9821 B( 26-C , 27-C ) :   1.2143
B( 26-C , 70-H ) :   0.9729 B( 27-C , 29-C ) :   1.2262 B( 28-C , 71-H ) :   0.9715
B( 29-C , 30-C ) :   1.2180 B( 30-C , 32-C ) :   1.3060 B( 31-C , 39-C ) :   1.6248
B( 31-C , 72-H ) :   0.9694 B( 32-C , 37-C ) :   1.5524 B( 32-C , 73-H ) :   0.9779
B( 33-C , 34-C ) :   1.2800 B( 33-C , 39-C ) :   1.2726 B( 33-C , 40-C ) :   1.2385
B( 34-C , 35-C ) :   1.6217 B( 34-C , 74-H ) :   0.9703 B( 35-C , 75-H ) :   0.9694
B( 36-C , 76-H ) :   0.9763 B( 36-C , 77-H ) :   0.9820 B( 36-C , 78-H ) :   0.9830
B( 37-C , 38-C ) :   1.3079 B( 37-C , 79-H ) :   0.9776 B( 38-C , 40-C ) :   1.2129
B( 39-C , 80-H ) :   0.9714 B( 40-C , 41-C ) :   1.2218 B( 41-C , 43-C ) :   1.2119
B( 42-C , 50-C ) :   1.6338 B( 42-C , 81-H ) :   0.9696 B( 43-C , 48-C ) :   1.6395
B( 43-C , 82-H ) :   0.9734 B( 44-C , 45-C ) :   1.2693 B( 44-C , 50-C ) :   1.2674
B( 44-C , 51-C ) :   1.2572 B( 45-C , 46-C ) :   1.6332 B( 45-C , 83-H ) :   0.9713
B( 46-C , 84-H ) :   0.9702 B( 47-C , 85-H ) :   0.9761 B( 47-C , 86-H ) :   0.9828
B( 47-C , 87-H ) :   0.9826 B( 48-C , 49-C ) :   1.2122 B( 48-C , 88-H ) :   0.9740
B( 49-C , 51-C ) :   1.2194 B( 50-C , 89-H ) :   0.9712

MP2 TOTAL ENERGY:    -2130.915531147 Eh
FINAL SINGLE POINT ENERGY     -2130.915531146869

DIPOLE MOMENT
-------------
                                X             Y             Z
Electronic contribution:      0.05320      -1.32440      -0.05828
Nuclear contribution   :      0.02122       0.20187       0.07227
                        -----------------------------------------
Total Dipole Moment    :      0.07442      -1.12253       0.01398
                        -----------------------------------------
Magnitude (a.u.)       :      1.12508
Magnitude (Debye)      :      2.85972

Rotational constants in cm-1:     0.001500     0.001473     0.000762
Rotational constants in MHz :    44.959247    44.168897    22.845042

                             ****ORCA TERMINATED NORMALLY****
TOTAL RUN TIME: 0 days 1 hours 10 minutes 24 seconds 343 msec
