                         Program Version 5.0.4 -  RELEASE  -
|  1> ! PAL2
|  2> ! mp2 cc-pvdz TightSCF  NoKeepInts
|  3>
|  4> %scf
|  5>   MaxCore 2000
|  6> end
|  7> %mp2
|  8>   MaxCore 2000
|  9> end
| 10> * xyz 0 1
| 11>    C       -3.03400         6.49500         0.10300
| 12>    C        1.47400         4.04100         0.05700
| 13>    C       -2.80200         4.09300         0.04900
| 14>    C       -4.20300         4.00900         0.05900
| 15>    C       -4.96600         5.15900         0.08700
| 16>    C       -5.22700         7.59200         0.10400
| 17>    C        0.13200         4.30700         0.06100
| 18>    C       -0.56900         3.05600         0.04700
| 19>    C        1.64900         2.61800         0.02300
| 20>    C       -2.22800         5.37300         0.06900
| 21>    N       -4.38100         6.37900         0.11200
| 22>    N        0.38800         2.06700         0.02500
| 23>    N       -2.01000         0.39500        -0.07500
| 24>    N       -0.38800        -2.07400        -0.02700
| 25>    N        2.01000        -0.40100         0.06500
| 26>    C       -1.96000         2.86100         0.02400
| 27>    C       -2.62300         1.61500        -0.01800
| 28>    C       -5.57300        -4.32900         1.06600
| 29>    C       -4.07300         1.47100         0.05600
| 30>    C       -4.10600        -2.75600        -0.02600
| 31>    C       -4.99500        -2.75700        -1.11100
| 32>    C       -6.13200        -3.54200        -1.07600
| 33>    C       -7.65100        -5.11300         0.04000
| 34>    C       -4.32400         0.14100         0.03700
| 35>    C       -3.02500        -0.52000        -0.04800
| 36>    C       -4.42200        -3.56600         1.07500
| 37>    N       -6.40700        -4.31300         0.00100
| 38>    C       -2.86700        -1.92200        -0.04000
| 39>    C       -1.65000        -2.62400        -0.02700
| 40>    C        3.56800        -6.14200        -1.04000
| 41>    C       -1.47600        -4.04900        -0.03400
| 42>    C        2.80300        -4.09900        -0.00800
| 43>    C        3.65700        -4.38400         1.06900
| 44>    C        4.42700        -5.53000         1.05900
| 45>    C        5.24500        -7.58800         0.01400
| 46>    C       -0.13400        -4.31500        -0.02200
| 47>    C        0.56800        -3.06400        -0.02700
| 48>    C        2.77500        -5.01200        -1.07400
| 49>    N        4.37600        -6.39100         0.01700
| 50>    C        1.95900        -2.86900        -0.00900
| 51>    C        2.62100        -1.62200         0.00900
| 52>    C        5.54300         4.33900        -1.13000
| 53>    C        4.07000        -1.47900        -0.09400
| 54>    C        4.10400         2.75100        -0.02100
| 55>    C        5.02700         2.72900         1.03600
| 56>    C        6.16600         3.50900         0.97800
| 57>    C        7.61900         5.15300        -0.11500
| 58>    C        4.32100        -0.14800        -0.09200
| 59>    C        3.02500         0.51400         0.01500
| 60>    C        4.38700         3.58200        -1.11500
| 61>    C        2.86600         1.91600         0.01300
| 62>    N        6.41300         4.29600        -0.09500
| 63>    H       -2.63400         7.50100         0.13200
| 64>    H        2.27400         4.76600         0.08100
| 65>    H       -4.70500         3.05000         0.03500
| 66>    H       -6.04900         5.14400         0.08700
| 67>    H       -5.47400         7.84700        -0.92900
| 68>    H       -6.13800         7.38900         0.66700
| 69>    H       -4.67500         8.40800         0.56900
| 70>    H       -0.33200         5.28200         0.06900
| 71>    H       -1.15100         5.50400         0.07700
| 72>    H        0.18200         1.07200         0.00500
| 73>    H       -0.18300        -1.08000        -0.02100
| 74>    H       -5.86400        -4.96200         1.89500
| 75>    H       -4.79400         2.27200         0.13900
| 76>    H       -4.80000        -2.16000        -1.99400
| 77>    H       -6.84100        -3.58200        -1.89300
| 78>    H       -8.42800        -4.53600         0.54600
| 79>    H       -7.95600        -5.33700        -0.98100
| 80>    H       -7.45600        -6.03700         0.58400
| 81>    H       -5.28700        -0.34400         0.10000
| 82>    H       -3.78000        -3.60100         1.94700
| 83>    H        3.58700        -6.86800        -1.84300
| 84>    H       -2.27600        -4.77400        -0.05000
| 85>    H        3.71400        -3.72400         1.92600
| 86>    H        5.09200        -5.79500         1.87100
| 87>    H        6.20500        -7.32900        -0.43900
| 88>    H        5.39300        -7.91700         1.04200
| 89>    H        4.75900        -8.37300        -0.56400
| 90>    H        0.32900        -5.29000        -0.00800
| 91>    H        2.14600        -4.84200        -1.94000
| 92>    H        5.80800         4.98600        -1.95600
| 93>    H        4.78800        -2.28100        -0.18500
| 94>    H        4.86000         2.11400         1.91200
| 95>    H        6.90100         3.53100         1.77200
| 96>    H        7.38300         6.10900         0.35600
| 97>    H        8.41400         4.65200         0.43500
| 98>    H        7.92100         5.31000        -1.15000
| 99>    H        5.28300         0.33600        -0.17900
|100>    H        3.72000         3.63200        -1.96700
|101> *
|102>
|103>                          ****END OF INPUT****

CARTESIAN COORDINATES (ANGSTROEM)
---------------------------------
  C     -3.034000    6.495000    0.103000
  C      1.474000    4.041000    0.057000
  C     -2.802000    4.093000    0.049000
  C     -4.203000    4.009000    0.059000
  C     -4.966000    5.159000    0.087000
  C     -5.227000    7.592000    0.104000
  C      0.132000    4.307000    0.061000
  C     -0.569000    3.056000    0.047000
  C      1.649000    2.618000    0.023000
  C     -2.228000    5.373000    0.069000
  N     -4.381000    6.379000    0.112000
  N      0.388000    2.067000    0.025000
  N     -2.010000    0.395000   -0.075000
  N     -0.388000   -2.074000   -0.027000
  N      2.010000   -0.401000    0.065000
  C     -1.960000    2.861000    0.024000
  C     -2.623000    1.615000   -0.018000
  C     -5.573000   -4.329000    1.066000
  C     -4.073000    1.471000    0.056000
  C     -4.106000   -2.756000   -0.026000
  C     -4.995000   -2.757000   -1.111000
  C     -6.132000   -3.542000   -1.076000
  C     -7.651000   -5.113000    0.040000
  C     -4.324000    0.141000    0.037000
  C     -3.025000   -0.520000   -0.048000
  C     -4.422000   -3.566000    1.075000
  N     -6.407000   -4.313000    0.001000
  C     -2.867000   -1.922000   -0.040000
  C     -1.650000   -2.624000   -0.027000
  C      3.568000   -6.142000   -1.040000
  C     -1.476000   -4.049000   -0.034000
  C      2.803000   -4.099000   -0.008000
  C      3.657000   -4.384000    1.069000
  C      4.427000   -5.530000    1.059000
  C      5.245000   -7.588000    0.014000
  C     -0.134000   -4.315000   -0.022000
  C      0.568000   -3.064000   -0.027000
  C      2.775000   -5.012000   -1.074000
  N      4.376000   -6.391000    0.017000
  C      1.959000   -2.869000   -0.009000
  C      2.621000   -1.622000    0.009000
  C      5.543000    4.339000   -1.130000
  C      4.070000   -1.479000   -0.094000
  C      4.104000    2.751000   -0.021000
  C      5.027000    2.729000    1.036000
  C      6.166000    3.509000    0.978000
  C      7.619000    5.153000   -0.115000
  C      4.321000   -0.148000   -0.092000
  C      3.025000    0.514000    0.015000
  C      4.387000    3.582000   -1.115000
  C      2.866000    1.916000    0.013000
  N      6.413000    4.296000   -0.095000
  H     -2.634000    7.501000    0.132000
  H      2.274000    4.766000    0.081000
  H     -4.705000    3.050000    0.035000
  H     -6.049000    5.144000    0.087000
  H     -5.474000    7.847000   -0.929000
  H     -6.138000    7.389000    0.667000
  H     -4.675000    8.408000    0.569000
  H     -0.332000    5.282000    0.069000
  H     -1.151000    5.504000    0.077000
  H      0.182000    1.072000    0.005000
  H     -0.183000   -1.080000   -0.021000
  H     -5.864000   -4.962000    1.895000
  H     -4.794000    2.272000    0.139000
  H     -4.800000   -2.160000   -1.994000
  H     -6.841000   -3.582000   -1.893000
  H     -8.428000   -4.536000    0.546000
  H     -7.956000   -5.337000   -0.981000
  H     -7.456000   -6.037000    0.584000
  H     -5.287000   -0.344000    0.100000
  H     -3.780000   -3.601000    1.947000
  H      3.587000   -6.868000   -1.843000
  H     -2.276000   -4.774000   -0.050000
  H      3.714000   -3.724000    1.926000
  H      5.092000   -5.795000    1.871000
  H      6.205000   -7.329000   -0.439000
  H      5.393000   -7.917000    1.042000
  H      4.759000   -8.373000   -0.564000
  H      0.329000   -5.290000   -0.008000
  H      2.146000   -4.842000   -1.940000
  H      5.808000    4.986000   -1.956000
  H      4.788000   -2.281000   -0.185000
  H      4.860000    2.114000    1.912000
  H      6.901000    3.531000    1.772000
  H      7.383000    6.109000    0.356000
  H      8.414000    4.652000    0.435000
  H      7.921000    5.310000   -1.150000
  H      5.283000    0.336000   -0.179000
  H      3.720000    3.632000   -1.967000

 Total Charge           Charge          ....    0
 Multiplicity           Mult            ....    1
 Number of Electrons    NEL             ....  358
 Basis Dimension        Dim             ....  918

ORBITAL ENERGIES
----------------

  NO   OCC          E(Eh)            E(eV)
   0   2.0000     -15.679845      -426.6703
   1   2.0000     -15.633034      -425.3965
   2   2.0000     -15.632502      -425.3820
   3   2.0000     -15.588057      -424.1726
   4   2.0000     -15.524788      -422.4510
   5   2.0000     -15.515338      -422.1938
   6   2.0000     -15.453893      -420.5218
   7   2.0000     -15.439322      -420.1253
   8   2.0000     -11.329345      -308.2871
   9   2.0000     -11.328511      -308.2644
  10   2.0000     -11.327950      -308.2492
  11   2.0000     -11.298801      -307.4560
  12   2.0000     -11.298758      -307.4548
  13   2.0000     -11.292235      -307.2773
  14   2.0000     -11.291838      -307.2665
  15   2.0000     -11.287009      -307.1351
  16   2.0000     -11.285744      -307.1007
  17   2.0000     -11.282070      -307.0007
  18   2.0000     -11.269326      -306.6540
  19   2.0000     -11.263332      -306.4908
  20   2.0000     -11.262329      -306.4635
  21   2.0000     -11.251068      -306.1571
  22   2.0000     -11.247417      -306.0578
  23   2.0000     -11.237236      -305.7807
  24   2.0000     -11.236850      -305.7702
  25   2.0000     -11.230438      -305.5957
  26   2.0000     -11.230251      -305.5907
  27   2.0000     -11.230066      -305.5856
  28   2.0000     -11.229767      -305.5775
  29   2.0000     -11.210715      -305.0591
  30   2.0000     -11.209232      -305.0187
  31   2.0000     -11.193920      -304.6020
  32   2.0000     -11.192331      -304.5588
  33   2.0000     -11.191194      -304.5279
  34   2.0000     -11.188648      -304.4586
  35   2.0000     -11.187952      -304.4397
  36   2.0000     -11.187086      -304.4161
  37   2.0000     -11.174350      -304.0695
  38   2.0000     -11.171779      -303.9996
  39   2.0000     -11.171317      -303.9870
  40   2.0000     -11.170716      -303.9706
  41   2.0000     -11.167985      -303.8963
  42   2.0000     -11.165115      -303.8182
  43   2.0000     -11.161995      -303.7333
  44   2.0000     -11.161173      -303.7110
  45   2.0000     -11.156960      -303.5963
  46   2.0000     -11.156207      -303.5758
  47   2.0000     -11.150440      -303.4189
  48   2.0000     -11.147416      -303.3366
  49   2.0000     -11.135893      -303.0231
  50   2.0000     -11.129529      -302.8499
  51   2.0000     -11.117903      -302.5335
  52   2.0000      -1.360414       -37.0187
  53   2.0000      -1.320421       -35.9305
  54   2.0000      -1.320191       -35.9242
  55   2.0000      -1.280151       -34.8347
  56   2.0000      -1.225866       -33.3575
  57   2.0000      -1.210343       -32.9351
  58   2.0000      -1.173580       -31.9347
  59   2.0000      -1.150714       -31.3125
  60   2.0000      -1.143645       -31.1202
  61   2.0000      -1.110199       -30.2101
  62   2.0000      -1.108860       -30.1736
  63   2.0000      -1.082084       -29.4450
  64   2.0000      -1.077382       -29.3171
  65   2.0000      -1.044808       -28.4307
  66   2.0000      -1.044658       -28.4266
  67   2.0000      -1.041052       -28.3285
  68   2.0000      -1.015220       -27.6255
  69   2.0000      -1.014782       -27.6136
  70   2.0000      -1.009084       -27.4586
  71   2.0000      -0.993261       -27.0280
  72   2.0000      -0.985665       -26.8213
  73   2.0000      -0.981740       -26.7145
  74   2.0000      -0.974152       -26.5080
  75   2.0000      -0.962424       -26.1889
  76   2.0000      -0.955014       -25.9872
  77   2.0000      -0.947025       -25.7699
  78   2.0000      -0.940009       -25.5790
  79   2.0000      -0.916645       -24.9432
  80   2.0000      -0.910630       -24.7795
  81   2.0000      -0.898621       -24.4527
  82   2.0000      -0.877348       -23.8738
  83   2.0000      -0.871746       -23.7214
  84   2.0000      -0.871257       -23.7081
  85   2.0000      -0.861930       -23.4543
  86   2.0000      -0.846461       -23.0334
  87   2.0000      -0.838334       -22.8122
  88   2.0000      -0.829642       -22.5757
  89   2.0000      -0.796257       -21.6672
  90   2.0000      -0.789429       -21.4814
  91   2.0000      -0.776593       -21.1322
  92   2.0000      -0.753045       -20.4914
  93   2.0000      -0.734283       -19.9809
  94   2.0000      -0.729381       -19.8475
  95   2.0000      -0.727043       -19.7839
  96   2.0000      -0.720546       -19.6070
  97   2.0000      -0.718035       -19.5387
  98   2.0000      -0.714347       -19.4384
  99   2.0000      -0.700347       -19.0574
 100   2.0000      -0.698225       -18.9997
 101   2.0000      -0.694765       -18.9055
 102   2.0000      -0.685387       -18.6503
 103   2.0000      -0.684365       -18.6225
 104   2.0000      -0.678805       -18.4712
 105   2.0000      -0.674512       -18.3544
 106   2.0000      -0.672934       -18.3115
 107   2.0000      -0.661057       -17.9883
 108   2.0000      -0.658124       -17.9085
 109   2.0000      -0.652706       -17.7610
 110   2.0000      -0.652117       -17.7450
 111   2.0000      -0.646222       -17.5846
 112   2.0000      -0.645768       -17.5722
 113   2.0000      -0.638065       -17.3626
 114   2.0000      -0.635357       -17.2889
 115   2.0000      -0.628908       -17.1134
 116   2.0000      -0.623285       -16.9605
 117   2.0000      -0.620553       -16.8861
 118   2.0000      -0.612805       -16.6753
 119   2.0000      -0.612020       -16.6539
 120   2.0000      -0.611728       -16.6460
 121   2.0000      -0.611532       -16.6406
 122   2.0000      -0.601609       -16.3706
 123   2.0000      -0.589434       -16.0393
 124   2.0000      -0.581247       -15.8165
 125   2.0000      -0.580953       -15.8085
 126   2.0000      -0.580257       -15.7896
 127   2.0000      -0.571077       -15.5398
 128   2.0000      -0.566506       -15.4154
 129   2.0000      -0.560044       -15.2396
 130   2.0000      -0.555725       -15.1220
 131   2.0000      -0.547737       -14.9047
 132   2.0000      -0.542656       -14.7664
 133   2.0000      -0.540060       -14.6958
 134   2.0000      -0.538431       -14.6514
 135   2.0000      -0.536319       -14.5940
 136   2.0000      -0.531826       -14.4717
 137   2.0000      -0.517956       -14.0943
 138   2.0000      -0.516573       -14.0567
 139   2.0000      -0.514290       -13.9945
 140   2.0000      -0.512086       -13.9346
 141   2.0000      -0.509750       -13.8710
 142   2.0000      -0.507280       -13.8038
 143   2.0000      -0.505434       -13.7536
 144   2.0000      -0.502436       -13.6720
 145   2.0000      -0.495433       -13.4814
 146   2.0000      -0.488256       -13.2861
 147   2.0000      -0.480973       -13.0879
 148   2.0000      -0.476434       -12.9644
 149   2.0000      -0.467828       -12.7302
 150   2.0000      -0.466130       -12.6840
 151   2.0000      -0.456291       -12.4163
 152   2.0000      -0.451543       -12.2871
 153   2.0000      -0.445209       -12.1148
 154   2.0000      -0.437854       -11.9146
 155   2.0000      -0.427763       -11.6400
 156   2.0000      -0.409113       -11.1325
 157   2.0000      -0.390810       -10.6345
 158   2.0000      -0.387811       -10.5529
 159   2.0000      -0.384167       -10.4537
 160   2.0000      -0.378401       -10.2968
 161   2.0000      -0.372889       -10.1468
 162   2.0000      -0.356670        -9.7055
 163   2.0000      -0.356476        -9.7002
 164   2.0000      -0.355741        -9.6802
 165   2.0000      -0.341903        -9.3036
 166   2.0000      -0.337488        -9.1835
 167   2.0000      -0.324662        -8.8345
 168   2.0000      -0.321401        -8.7458
 169   2.0000      -0.305067        -8.3013
 170   2.0000      -0.299307        -8.1446
 171   2.0000      -0.286067        -7.7843
 172   2.0000      -0.278119        -7.5680
 173   2.0000      -0.263560        -7.1718
 174   2.0000      -0.242221        -6.5912
 175   2.0000      -0.189947        -5.1687
 176   2.0000      -0.181425        -4.9368
 177   2.0000      -0.080167        -2.1815
 178   2.0000      -0.059726        -1.6252
 179   0.0000       0.028509         0.7758
 180   0.0000       0.065438         1.7807
 181   0.0000       0.090251         2.4558
 182   0.0000       0.106259         2.8915
 183   0.0000       0.117245         3.1904

MULLIKEN ATOMIC CHARGES
-----------------------
   0 C :    0.231233
   1 N :   -0.454380
   2 C :   -0.063089
   3 N :   -0.340690
   4 C :   -0.139222
   5 N :   -0.569111
   6 C :   -0.088607
   7 N :   -0.341124
   8 C :    0.220572
   9 N :   -0.562291
  10 C :    0.119788
  11 N :   -0.438643
  12 C :   -0.062809
  13 N :   -0.429336
  14 C :    0.212209
  15 N :   -0.440746
  16 C :    0.234837
  17 C :   -0.105443
  18 C :   -0.176482
  19 C :    0.208949
  20 C :    0.213384
  21 C :   -0.052788
  22 C :   -0.090717
  23 C :   -0.039630
  24 C :    0.192820
  25 C :    0.114728
  26 C :   -0.083576
  27 C :    0.219130
  28 C :   -0.061916
  29 C :   -0.183816
  30 C :    0.245670
  31 C :    0.230080
  32 C :   -0.061423
  33 C :   -0.059873
  34 C :   -0.051545
  35 C :    0.229100
  36 C :    0.108187
  37 C :   -0.064611
  38 C :    0.230910
  39 C :   -0.057346
  40 C :   -0.182025
  41 C :    0.226409
  42 C :    0.197364
  43 C :   -0.072728
  44 C :   -0.089354
  45 C :   -0.061736
  46 C :    0.212218
  47 C :    0.115264
  48 C :   -0.066281
  49 C :    0.237612
  50 C :   -0.045911
  51 C :   -0.192317
  52 H :    0.031467
  53 H :   -0.019244
  54 H :    0.062789
  55 H :    0.030685
  56 H :    0.049141
  57 H :    0.047682
  58 H :    0.046052
  59 H :   -0.020634
  60 H :    0.069307
  61 H :    0.170844
  62 H :    0.175373
  63 H :    0.054946
  64 H :   -0.043872
  65 H :    0.046509
  66 H :    0.055151
  67 H :    0.062108
  68 H :    0.056977
  69 H :    0.056127
  70 H :   -0.030812
  71 H :    0.044509
  72 H :    0.071469
  73 H :   -0.007935
  74 H :    0.060546
  75 H :    0.070959
  76 H :    0.075100
  77 H :    0.068123
  78 H :    0.067460
  79 H :   -0.016892
  80 H :    0.061530
  81 H :    0.054658
  82 H :   -0.024909
  83 H :    0.042179
  84 H :    0.054500
  85 H :    0.061087
  86 H :    0.055722
  87 H :    0.057453
  88 H :   -0.014394
  89 H :    0.047340
Sum of atomic charges:   -0.0000000

LOEWDIN ATOMIC CHARGES
----------------------
   0 C :   -0.016484
   1 N :    0.123355
   2 C :   -0.099459
   3 N :    0.182203
   4 C :   -0.009998
   5 N :   -0.134905
   6 C :   -0.010656
   7 N :    0.174947
   8 C :   -0.022487
   9 N :   -0.140596
  10 C :    0.022466
  11 N :    0.141335
  12 C :   -0.090952
  13 N :    0.166517
  14 C :   -0.014533
  15 N :    0.139261
  16 C :   -0.061639
  17 C :   -0.023967
  18 C :   -0.116509
  19 C :   -0.072316
  20 C :    0.004377
  21 C :   -0.091974
  22 C :    0.036528
  23 C :   -0.014726
  24 C :   -0.013557
  25 C :    0.029673
  26 C :   -0.107379
  27 C :   -0.117164
  28 C :   -0.027871
  29 C :   -0.099268
  30 C :   -0.029881
  31 C :    0.024302
  32 C :   -0.094314
  33 C :    0.082637
  34 C :   -0.015343
  35 C :    0.023786
  36 C :    0.035300
  37 C :   -0.094272
  38 C :   -0.052603
  39 C :   -0.017342
  40 C :   -0.109279
  41 C :   -0.090492
  42 C :   -0.010398
  43 C :   -0.099390
  44 C :    0.034370
  45 C :   -0.028287
  46 C :    0.002631
  47 C :    0.029608
  48 C :   -0.094332
  49 C :   -0.069722
  50 C :   -0.018324
  51 C :   -0.107631
  52 H :    0.021826
  53 H :    0.002359
  54 H :   -0.026346
  55 H :    0.021549
  56 H :    0.021866
  57 H :    0.026352
  58 H :    0.026353
  59 H :    0.001249
  60 H :   -0.014692
  61 H :    0.060327
  62 H :    0.061866
  63 H :    0.030584
  64 H :   -0.001407
  65 H :    0.045659
  66 H :    0.029007
  67 H :    0.028057
  68 H :    0.031507
  69 H :    0.030182
  70 H :   -0.004901
  71 H :    0.043354
  72 H :    0.037774
  73 H :    0.007181
  74 H :    0.050728
  75 H :    0.037512
  76 H :    0.034901
  77 H :    0.036246
  78 H :    0.035944
  79 H :    0.002826
  80 H :    0.050869
  81 H :    0.029198
  82 H :   -0.002758
  83 H :    0.042592
  84 H :    0.030042
  85 H :    0.027497
  86 H :    0.030265
  87 H :    0.031515
  88 H :    0.002445
  89 H :    0.045225

  Mayer bond orders larger than 0.100000
B(  0-C ,  1-N ) :   1.1050 B(  0-C , 17-C ) :   1.7303 B(  0-C , 52-H ) :   0.9585
B(  1-N ,  8-C ) :   1.0915 B(  1-N , 10-C ) :   0.9775 B(  2-C , 12-C ) :   1.4850
B(  2-C , 16-C ) :   1.3805 B(  2-C , 53-H ) :   0.9700 B(  3-N , 14-C ) :   1.2279
B(  3-N , 16-C ) :   1.1768 B(  3-N , 61-H ) :   0.8969 B(  4-C ,  6-C ) :   1.2319
B(  4-C , 17-C ) :   1.2323 B(  4-C , 18-C ) :   1.4910 B(  5-N , 19-C ) :   1.4650
B(  5-N , 27-C ) :   1.3672 B(  6-C ,  8-C ) :   1.7399 B(  6-C , 54-H ) :   0.8270
B(  7-N , 30-C ) :   1.1950 B(  7-N , 38-C ) :   1.1895 B(  7-N , 62-H ) :   0.8968
B(  8-C , 55-H ) :   0.9579 B(  9-N , 41-C ) :   1.3957 B(  9-N , 49-C ) :   1.4236
B( 10-C , 56-H ) :   0.9777 B( 10-C , 57-H ) :   0.9824 B( 10-C , 58-H ) :   0.9835
B( 11-N , 20-C ) :   1.1305 B( 11-N , 24-C ) :   1.1058 B( 11-N , 25-C ) :   0.9606
B( 12-C , 14-C ) :   1.3639 B( 12-C , 59-H ) :   0.9018 B( 13-N , 31-C ) :   1.1615
B( 13-N , 35-C ) :   1.1612 B( 13-N , 36-C ) :   0.9412 B( 14-C , 18-C ) :   1.1164
B( 15-N , 42-C ) :   1.1080 B( 15-N , 46-C ) :   1.1255 B( 15-N , 47-C ) :   0.9610
B( 16-C , 51-C ) :   1.1686 B( 17-C , 60-H ) :   0.8597 B( 18-C , 19-C ) :   1.1140
B( 19-C , 21-C ) :   1.2566 B( 20-C , 28-C ) :   1.6296 B( 20-C , 63-H ) :   0.9703
B( 21-C , 26-C ) :   1.5759 B( 21-C , 64-H ) :   0.8744 B( 22-C , 23-C ) :   1.2889
B( 22-C , 28-C ) :   1.2629 B( 22-C , 29-C ) :   1.2285 B( 23-C , 24-C ) :   1.6209
B( 23-C , 65-H ) :   0.9703 B( 24-C , 66-H ) :   0.9696 B( 25-C , 67-H ) :   0.9760
B( 25-C , 68-H ) :   0.9828 B( 25-C , 69-H ) :   0.9824 B( 26-C , 27-C ) :   1.2703
B( 26-C , 70-H ) :   0.9646 B( 27-C , 29-C ) :   1.2049 B( 28-C , 71-H ) :   0.9720
B( 29-C , 30-C ) :   1.2470 B( 30-C , 32-C ) :   1.2789 B( 31-C , 39-C ) :   1.5873
B( 31-C , 72-H ) :   0.9681 B( 32-C , 37-C ) :   1.5798 B( 32-C , 73-H ) :   0.9786
B( 33-C , 34-C ) :   1.3067 B( 33-C , 39-C ) :   1.3047 B( 33-C , 40-C ) :   1.1762
B( 34-C , 35-C ) :   1.5853 B( 34-C , 74-H ) :   0.9696 B( 35-C , 75-H ) :   0.9681
B( 36-C , 76-H ) :   0.9768 B( 36-C , 77-H ) :   0.9816 B( 36-C , 78-H ) :   0.9823
B( 37-C , 38-C ) :   1.2851 B( 37-C , 79-H ) :   0.9764 B( 38-C , 40-C ) :   1.2340
B( 39-C , 80-H ) :   0.9705 B( 40-C , 41-C ) :   1.2501 B( 41-C , 43-C ) :   1.1838
B( 42-C , 50-C ) :   1.6321 B( 42-C , 81-H ) :   0.9696 B( 43-C , 48-C ) :   1.6693
B( 43-C , 82-H ) :   0.9721 B( 44-C , 45-C ) :   1.2638 B( 44-C , 50-C ) :   1.2734
B( 44-C , 51-C ) :   1.2587 B( 45-C , 46-C ) :   1.6337 B( 45-C , 83-H ) :   0.9718
B( 46-C , 84-H ) :   0.9700 B( 47-C , 85-H ) :   0.9762 B( 47-C , 86-H ) :   0.9829
B( 47-C , 87-H ) :   0.9824 B( 48-C , 49-C ) :   1.1872 B( 48-C , 88-H ) :   0.9748
B( 49-C , 51-C ) :   1.2474 B( 50-C , 89-H ) :   0.9708 B( 54-H , 64-H ) :   0.1526
B( 59-H , 60-H ) :   0.1087

MP2 TOTAL ENERGY:    -2130.728567540 Eh
FINAL SINGLE POINT ENERGY     -2130.728567539536

DIPOLE MOMENT
-------------
                                X             Y             Z
Electronic contribution:      2.91832      -4.24026      -0.07972
Nuclear contribution   :     -0.03591       0.16227       0.09967
                        -----------------------------------------
Total Dipole Moment    :      2.88241      -4.07799       0.01995
                        -----------------------------------------
Magnitude (a.u.)       :      4.99387
Magnitude (Debye)      :     12.69340

Rotational constants in cm-1:     0.001504     0.001478     0.000760
Rotational constants in MHz :    45.075377    44.300984    22.780243

                             ****ORCA TERMINATED NORMALLY****
TOTAL RUN TIME: 0 days 1 hours 24 minutes 43 seconds 176 msec
