                         Program Version 5.0.4 -  RELEASE  -
|  1> ! PAL2
|  2> ! mp2 cc-pvdz TightSCF  NoKeepInts
|  3>
|  4> %scf
|  5>   MaxCore 2000
|  6> end
|  7> %mp2
|  8>   MaxCore 2000
|  9> end
| 10> * xyz 0 1
| 11>    C       -4.51300         5.46400         1.05700
| 12>    C        1.47400         4.04100         0.05700
| 13>    C       -2.80200         4.09300         0.04900
| 14>    C       -2.68400         5.06700        -0.95400
| 15>    C       -3.47500         6.19800        -0.91900
| 16>    C       -5.18000         7.62400         0.10600
| 17>    C        0.13200         4.30700         0.06100
| 18>    C       -0.56900         3.05600         0.04700
| 19>    C        1.64900         2.61800         0.02300
| 20>    C       -3.74000         4.31900         1.06800
| 21>    N       -4.37500         6.38300         0.07500
| 22>    N        0.38800         2.06700         0.02500
| 23>    N       -2.01000         0.39500        -0.07500
| 24>    N       -0.38800        -2.07400        -0.02700
| 25>    N        2.01000        -0.40100         0.06500
| 26>    C       -1.96000         2.86100         0.02400
| 27>    C       -2.62300         1.61500        -0.01800
| 28>    C       -5.57300        -4.32900         1.06600
| 29>    C       -4.07300         1.47100         0.05600
| 30>    C       -4.10600        -2.75600        -0.02600
| 31>    C       -4.99500        -2.75700        -1.11100
| 32>    C       -6.13200        -3.54200        -1.07600
| 33>    C       -7.65100        -5.11300         0.04000
| 34>    C       -4.32400         0.14100         0.03700
| 35>    C       -3.02500        -0.52000        -0.04800
| 36>    C       -4.42200        -3.56600         1.07500
| 37>    N       -6.40700        -4.31300         0.00100
| 38>    C       -2.86700        -1.92200        -0.04000
| 39>    C       -1.65000        -2.62400        -0.02700
| 40>    C        3.56800        -6.14200        -1.04000
| 41>    C       -1.47600        -4.04900        -0.03400
| 42>    C        2.80300        -4.09900        -0.00800
| 43>    C        3.65700        -4.38400         1.06900
| 44>    C        4.42700        -5.53000         1.05900
| 45>    C        5.24500        -7.58800         0.01400
| 46>    C       -0.13400        -4.31500        -0.02200
| 47>    C        0.56800        -3.06400        -0.02700
| 48>    C        2.77500        -5.01200        -1.07400
| 49>    N        4.37600        -6.39100         0.01700
| 50>    C        1.95900        -2.86900        -0.00900
| 51>    C        2.62100        -1.62200         0.00900
| 52>    C        5.54300         4.33900        -1.13000
| 53>    C        4.07000        -1.47900        -0.09400
| 54>    C        4.10400         2.75100        -0.02100
| 55>    C        5.02700         2.72900         1.03600
| 56>    C        6.16600         3.50900         0.97800
| 57>    C        7.61900         5.15300        -0.11500
| 58>    C        4.32100        -0.14800        -0.09200
| 59>    C        3.02500         0.51400         0.01500
| 60>    C        4.38700         3.58200        -1.11500
| 61>    C        2.86600         1.91600         0.01300
| 62>    N        6.41300         4.29600        -0.09500
| 63>    H       -5.25700         5.67400         1.81600
| 64>    H        2.27400         4.76600         0.08100
| 65>    H       -1.97100         4.95400        -1.76200
| 66>    H       -3.41400         6.98000        -1.66400
| 67>    H       -4.61200         8.40500         0.61700
| 68>    H       -5.39700         7.92800        -0.91900
| 69>    H       -6.10900         7.42600         0.64000
| 70>    H       -0.33200         5.28200         0.06900
| 71>    H       -3.88800         3.59800         1.86300
| 72>    H        0.18200         1.07200         0.00500
| 73>    H       -0.18300        -1.08000        -0.02100
| 74>    H       -5.86400        -4.96200         1.89500
| 75>    H       -4.79400         2.27200         0.13900
| 76>    H       -4.80000        -2.16000        -1.99400
| 77>    H       -6.84100        -3.58200        -1.89300
| 78>    H       -8.42800        -4.53600         0.54600
| 79>    H       -7.95600        -5.33700        -0.98100
| 80>    H       -7.45600        -6.03700         0.58400
| 81>    H       -5.28700        -0.34400         0.10000
| 82>    H       -3.78000        -3.60100         1.94700
| 83>    H        3.58700        -6.86800        -1.84300
| 84>    H       -2.27600        -4.77400        -0.05000
| 85>    H        3.71400        -3.72400         1.92600
| 86>    H        5.09200        -5.79500         1.87100
| 87>    H        6.20500        -7.32900        -0.43900
| 88>    H        5.39300        -7.91700         1.04200
| 89>    H        4.75900        -8.37300        -0.56400
| 90>    H        0.32900        -5.29000        -0.00800
| 91>    H        2.14600        -4.84200        -1.94000
| 92>    H        5.80800         4.98600        -1.95600
| 93>    H        4.78800        -2.28100        -0.18500
| 94>    H        4.86000         2.11400         1.91200
| 95>    H        6.90100         3.53100         1.77200
| 96>    H        7.38300         6.10900         0.35600
| 97>    H        8.41400         4.65200         0.43500
| 98>    H        7.92100         5.31000        -1.15000
| 99>    H        5.28300         0.33600        -0.17900
|100>    H        3.72000         3.63200        -1.96700
|101> *
|102>
|103>                          ****END OF INPUT****

CARTESIAN COORDINATES (ANGSTROEM)
---------------------------------
  C     -4.513000    5.464000    1.057000
  C      1.474000    4.041000    0.057000
  C     -2.802000    4.093000    0.049000
  C     -2.684000    5.067000   -0.954000
  C     -3.475000    6.198000   -0.919000
  C     -5.180000    7.624000    0.106000
  C      0.132000    4.307000    0.061000
  C     -0.569000    3.056000    0.047000
  C      1.649000    2.618000    0.023000
  C     -3.740000    4.319000    1.068000
  N     -4.375000    6.383000    0.075000
  N      0.388000    2.067000    0.025000
  N     -2.010000    0.395000   -0.075000
  N     -0.388000   -2.074000   -0.027000
  N      2.010000   -0.401000    0.065000
  C     -1.960000    2.861000    0.024000
  C     -2.623000    1.615000   -0.018000
  C     -5.573000   -4.329000    1.066000
  C     -4.073000    1.471000    0.056000
  C     -4.106000   -2.756000   -0.026000
  C     -4.995000   -2.757000   -1.111000
  C     -6.132000   -3.542000   -1.076000
  C     -7.651000   -5.113000    0.040000
  C     -4.324000    0.141000    0.037000
  C     -3.025000   -0.520000   -0.048000
  C     -4.422000   -3.566000    1.075000
  N     -6.407000   -4.313000    0.001000
  C     -2.867000   -1.922000   -0.040000
  C     -1.650000   -2.624000   -0.027000
  C      3.568000   -6.142000   -1.040000
  C     -1.476000   -4.049000   -0.034000
  C      2.803000   -4.099000   -0.008000
  C      3.657000   -4.384000    1.069000
  C      4.427000   -5.530000    1.059000
  C      5.245000   -7.588000    0.014000
  C     -0.134000   -4.315000   -0.022000
  C      0.568000   -3.064000   -0.027000
  C      2.775000   -5.012000   -1.074000
  N      4.376000   -6.391000    0.017000
  C      1.959000   -2.869000   -0.009000
  C      2.621000   -1.622000    0.009000
  C      5.543000    4.339000   -1.130000
  C      4.070000   -1.479000   -0.094000
  C      4.104000    2.751000   -0.021000
  C      5.027000    2.729000    1.036000
  C      6.166000    3.509000    0.978000
  C      7.619000    5.153000   -0.115000
  C      4.321000   -0.148000   -0.092000
  C      3.025000    0.514000    0.015000
  C      4.387000    3.582000   -1.115000
  C      2.866000    1.916000    0.013000
  N      6.413000    4.296000   -0.095000
  H     -5.257000    5.674000    1.816000
  H      2.274000    4.766000    0.081000
  H     -1.971000    4.954000   -1.762000
  H     -3.414000    6.980000   -1.664000
  H     -4.612000    8.405000    0.617000
  H     -5.397000    7.928000   -0.919000
  H     -6.109000    7.426000    0.640000
  H     -0.332000    5.282000    0.069000
  H     -3.888000    3.598000    1.863000
  H      0.182000    1.072000    0.005000
  H     -0.183000   -1.080000   -0.021000
  H     -5.864000   -4.962000    1.895000
  H     -4.794000    2.272000    0.139000
  H     -4.800000   -2.160000   -1.994000
  H     -6.841000   -3.582000   -1.893000
  H     -8.428000   -4.536000    0.546000
  H     -7.956000   -5.337000   -0.981000
  H     -7.456000   -6.037000    0.584000
  H     -5.287000   -0.344000    0.100000
  H     -3.780000   -3.601000    1.947000
  H      3.587000   -6.868000   -1.843000
  H     -2.276000   -4.774000   -0.050000
  H      3.714000   -3.724000    1.926000
  H      5.092000   -5.795000    1.871000
  H      6.205000   -7.329000   -0.439000
  H      5.393000   -7.917000    1.042000
  H      4.759000   -8.373000   -0.564000
  H      0.329000   -5.290000   -0.008000
  H      2.146000   -4.842000   -1.940000
  H      5.808000    4.986000   -1.956000
  H      4.788000   -2.281000   -0.185000
  H      4.860000    2.114000    1.912000
  H      6.901000    3.531000    1.772000
  H      7.383000    6.109000    0.356000
  H      8.414000    4.652000    0.435000
  H      7.921000    5.310000   -1.150000
  H      5.283000    0.336000   -0.179000
  H      3.720000    3.632000   -1.967000

 Total Charge           Charge          ....    0
 Multiplicity           Mult            ....    1
 Number of Electrons    NEL             ....  358
 Basis Dimension        Dim             ....  918

ORBITAL ENERGIES
----------------

  NO   OCC          E(Eh)            E(eV)
   0   2.0000     -15.638877      -425.5555
   1   2.0000     -15.636643      -425.4947
   2   2.0000     -15.628876      -425.2833
   3   2.0000     -15.627704      -425.2514
   4   2.0000     -15.518212      -422.2720
   5   2.0000     -15.516511      -422.2257
   6   2.0000     -15.444264      -420.2598
   7   2.0000     -15.443459      -420.2379
   8   2.0000     -11.302293      -307.5510
   9   2.0000     -11.301126      -307.5193
  10   2.0000     -11.296112      -307.3828
  11   2.0000     -11.295978      -307.3792
  12   2.0000     -11.294330      -307.3343
  13   2.0000     -11.293711      -307.3175
  14   2.0000     -11.293492      -307.3115
  15   2.0000     -11.291314      -307.2523
  16   2.0000     -11.286271      -307.1150
  17   2.0000     -11.285948      -307.1063
  18   2.0000     -11.285650      -307.0981
  19   2.0000     -11.285052      -307.0819
  20   2.0000     -11.242113      -305.9135
  21   2.0000     -11.241189      -305.8883
  22   2.0000     -11.234148      -305.6967
  23   2.0000     -11.233471      -305.6783
  24   2.0000     -11.233364      -305.6754
  25   2.0000     -11.233274      -305.6729
  26   2.0000     -11.232541      -305.6530
  27   2.0000     -11.231666      -305.6292
  28   2.0000     -11.226903      -305.4996
  29   2.0000     -11.226710      -305.4943
  30   2.0000     -11.226481      -305.4881
  31   2.0000     -11.225160      -305.4521
  32   2.0000     -11.199122      -304.7436
  33   2.0000     -11.198920      -304.7381
  34   2.0000     -11.195190      -304.6366
  35   2.0000     -11.194787      -304.6256
  36   2.0000     -11.171895      -304.0027
  37   2.0000     -11.171630      -303.9955
  38   2.0000     -11.171242      -303.9849
  39   2.0000     -11.170775      -303.9722
  40   2.0000     -11.170515      -303.9652
  41   2.0000     -11.170071      -303.9531
  42   2.0000     -11.168073      -303.8987
  43   2.0000     -11.166900      -303.8668
  44   2.0000     -11.158610      -303.6412
  45   2.0000     -11.157136      -303.6011
  46   2.0000     -11.153682      -303.5071
  47   2.0000     -11.152317      -303.4700
  48   2.0000     -11.143514      -303.2304
  49   2.0000     -11.142499      -303.2028
  50   2.0000     -11.140966      -303.1611
  51   2.0000     -11.140808      -303.1568
  52   2.0000      -1.325347       -36.0645
  53   2.0000      -1.323538       -36.0153
  54   2.0000      -1.316724       -35.8299
  55   2.0000      -1.316309       -35.8186
  56   2.0000      -1.216806       -33.1110
  57   2.0000      -1.213358       -33.0171
  58   2.0000      -1.161621       -31.6093
  59   2.0000      -1.157092       -31.4861
  60   2.0000      -1.114550       -30.3285
  61   2.0000      -1.111550       -30.2468
  62   2.0000      -1.106298       -30.1039
  63   2.0000      -1.104548       -30.0563
  64   2.0000      -1.049139       -28.5485
  65   2.0000      -1.047718       -28.5099
  66   2.0000      -1.041339       -28.3363
  67   2.0000      -1.041320       -28.3358
  68   2.0000      -1.026184       -27.9239
  69   2.0000      -1.009832       -27.4789
  70   2.0000      -1.008779       -27.4503
  71   2.0000      -0.998843       -27.1799
  72   2.0000      -0.980742       -26.6874
  73   2.0000      -0.976700       -26.5774
  74   2.0000      -0.967779       -26.3346
  75   2.0000      -0.961382       -26.1605
  76   2.0000      -0.952453       -25.9176
  77   2.0000      -0.942724       -25.6528
  78   2.0000      -0.940877       -25.6026
  79   2.0000      -0.923576       -25.1318
  80   2.0000      -0.892816       -24.2948
  81   2.0000      -0.876509       -23.8510
  82   2.0000      -0.874664       -23.8008
  83   2.0000      -0.869600       -23.6630
  84   2.0000      -0.866880       -23.5890
  85   2.0000      -0.856851       -23.3161
  86   2.0000      -0.846975       -23.0474
  87   2.0000      -0.845657       -23.0115
  88   2.0000      -0.821878       -22.3644
  89   2.0000      -0.798484       -21.7279
  90   2.0000      -0.798038       -21.7157
  91   2.0000      -0.739164       -20.1137
  92   2.0000      -0.728463       -19.8225
  93   2.0000      -0.728117       -19.8131
  94   2.0000      -0.721571       -19.6350
  95   2.0000      -0.719716       -19.5845
  96   2.0000      -0.712065       -19.3763
  97   2.0000      -0.710798       -19.3418
  98   2.0000      -0.698417       -19.0049
  99   2.0000      -0.691733       -18.8230
 100   2.0000      -0.683245       -18.5920
 101   2.0000      -0.680245       -18.5104
 102   2.0000      -0.678251       -18.4562
 103   2.0000      -0.674501       -18.3541
 104   2.0000      -0.669142       -18.2083
 105   2.0000      -0.667202       -18.1555
 106   2.0000      -0.663164       -18.0456
 107   2.0000      -0.657685       -17.8965
 108   2.0000      -0.656705       -17.8698
 109   2.0000      -0.653257       -17.7760
 110   2.0000      -0.652594       -17.7580
 111   2.0000      -0.652027       -17.7426
 112   2.0000      -0.649103       -17.6630
 113   2.0000      -0.647312       -17.6143
 114   2.0000      -0.634779       -17.2732
 115   2.0000      -0.623871       -16.9764
 116   2.0000      -0.615993       -16.7620
 117   2.0000      -0.614627       -16.7249
 118   2.0000      -0.611356       -16.6358
 119   2.0000      -0.608887       -16.5687
 120   2.0000      -0.607833       -16.5400
 121   2.0000      -0.607254       -16.5242
 122   2.0000      -0.603160       -16.4128
 123   2.0000      -0.594527       -16.1779
 124   2.0000      -0.584818       -15.9137
 125   2.0000      -0.583500       -15.8778
 126   2.0000      -0.578491       -15.7415
 127   2.0000      -0.577569       -15.7165
 128   2.0000      -0.569845       -15.5063
 129   2.0000      -0.562836       -15.3155
 130   2.0000      -0.553713       -15.0673
 131   2.0000      -0.541519       -14.7355
 132   2.0000      -0.539621       -14.6838
 133   2.0000      -0.535367       -14.5681
 134   2.0000      -0.535083       -14.5604
 135   2.0000      -0.531298       -14.4574
 136   2.0000      -0.524588       -14.2748
 137   2.0000      -0.523721       -14.2512
 138   2.0000      -0.516365       -14.0510
 139   2.0000      -0.514755       -14.0072
 140   2.0000      -0.511229       -13.9112
 141   2.0000      -0.506936       -13.7944
 142   2.0000      -0.503316       -13.6959
 143   2.0000      -0.502759       -13.6808
 144   2.0000      -0.498974       -13.5778
 145   2.0000      -0.498273       -13.5587
 146   2.0000      -0.497172       -13.5287
 147   2.0000      -0.493904       -13.4398
 148   2.0000      -0.491536       -13.3754
 149   2.0000      -0.468994       -12.7620
 150   2.0000      -0.460129       -12.5207
 151   2.0000      -0.451223       -12.2784
 152   2.0000      -0.448106       -12.1936
 153   2.0000      -0.446235       -12.1427
 154   2.0000      -0.444799       -12.1036
 155   2.0000      -0.439960       -11.9719
 156   2.0000      -0.435102       -11.8397
 157   2.0000      -0.432204       -11.7609
 158   2.0000      -0.391637       -10.6570
 159   2.0000      -0.381157       -10.3718
 160   2.0000      -0.377177       -10.2635
 161   2.0000      -0.374855       -10.2003
 162   2.0000      -0.359520        -9.7830
 163   2.0000      -0.358471        -9.7545
 164   2.0000      -0.353010        -9.6059
 165   2.0000      -0.352197        -9.5838
 166   2.0000      -0.337233        -9.1766
 167   2.0000      -0.331971        -9.0334
 168   2.0000      -0.329262        -8.9597
 169   2.0000      -0.300344        -8.1728
 170   2.0000      -0.293906        -7.9976
 171   2.0000      -0.290070        -7.8932
 172   2.0000      -0.287566        -7.8251
 173   2.0000      -0.255166        -6.9434
 174   2.0000      -0.248346        -6.7579
 175   2.0000      -0.187941        -5.1141
 176   2.0000      -0.177817        -4.8386
 177   2.0000      -0.066256        -1.8029
 178   2.0000      -0.054024        -1.4701
 179   0.0000       0.031236         0.8500
 180   0.0000       0.070861         1.9282
 181   0.0000       0.092703         2.5226
 182   0.0000       0.096499         2.6259
 183   0.0000       0.134400         3.6572

MULLIKEN ATOMIC CHARGES
-----------------------
   0 C :    0.210466
   1 N :   -0.442234
   2 C :   -0.064111
   3 N :   -0.337466
   4 C :   -0.063587
   5 N :   -0.563608
   6 C :   -0.066680
   7 N :   -0.337953
   8 C :    0.205277
   9 N :   -0.563443
  10 C :    0.113986
  11 N :   -0.437336
  12 C :   -0.072275
  13 N :   -0.439414
  14 C :    0.242607
  15 N :   -0.440734
  16 C :    0.234265
  17 C :   -0.073708
  18 C :   -0.214816
  19 C :    0.241579
  20 C :    0.208021
  21 C :   -0.084870
  22 C :   -0.086986
  23 C :   -0.048589
  24 C :    0.205431
  25 C :    0.113836
  26 C :   -0.071532
  27 C :    0.223371
  28 C :   -0.052716
  29 C :   -0.185438
  30 C :    0.235635
  31 C :    0.211339
  32 C :   -0.065283
  33 C :   -0.080387
  34 C :   -0.050489
  35 C :    0.205434
  36 C :    0.113909
  37 C :   -0.066880
  38 C :    0.236632
  39 C :   -0.061009
  40 C :   -0.189732
  41 C :    0.221690
  42 C :    0.203364
  43 C :   -0.073475
  44 C :   -0.088909
  45 C :   -0.052463
  46 C :    0.203181
  47 C :    0.115594
  48 C :   -0.073893
  49 C :    0.226615
  50 C :   -0.053134
  51 C :   -0.189253
  52 H :    0.054623
  53 H :   -0.013866
  54 H :    0.047092
  55 H :    0.052094
  56 H :    0.059471
  57 H :    0.056877
  58 H :    0.055963
  59 H :   -0.011751
  60 H :    0.049230
  61 H :    0.172969
  62 H :    0.172768
  63 H :    0.056624
  64 H :   -0.018264
  65 H :    0.047358
  66 H :    0.057767
  67 H :    0.062734
  68 H :    0.058263
  69 H :    0.058848
  70 H :   -0.024474
  71 H :    0.047744
  72 H :    0.056771
  73 H :   -0.014140
  74 H :    0.047032
  75 H :    0.055861
  76 H :    0.062317
  77 H :    0.058400
  78 H :    0.057638
  79 H :   -0.014141
  80 H :    0.047440
  81 H :    0.053337
  82 H :   -0.023425
  83 H :    0.043215
  84 H :    0.053255
  85 H :    0.059108
  86 H :    0.056342
  87 H :    0.056565
  88 H :   -0.021396
  89 H :    0.043924
Sum of atomic charges:    0.0000000

LOEWDIN ATOMIC CHARGES
----------------------
   0 C :   -0.002988
   1 N :    0.136996
   2 C :   -0.100808
   3 N :    0.178944
   4 C :    0.033597
   5 N :   -0.138666
   6 C :   -0.023892
   7 N :    0.177600
   8 C :   -0.006761
   9 N :   -0.139435
  10 C :    0.028487
  11 N :    0.144774
  12 C :   -0.103199
  13 N :    0.142597
  14 C :   -0.043535
  15 N :    0.138527
  16 C :   -0.046080
  17 C :   -0.026543
  18 C :   -0.108423
  19 C :   -0.085298
  20 C :    0.000611
  21 C :   -0.106708
  22 C :    0.042824
  23 C :   -0.019880
  24 C :   -0.001405
  25 C :    0.030439
  26 C :   -0.102054
  27 C :   -0.095057
  28 C :   -0.021361
  29 C :   -0.107629
  30 C :   -0.045145
  31 C :    0.001941
  32 C :   -0.099525
  33 C :    0.042016
  34 C :   -0.019869
  35 C :   -0.003104
  36 C :    0.029872
  37 C :   -0.101143
  38 C :   -0.042382
  39 C :   -0.024830
  40 C :   -0.109314
  41 C :   -0.092654
  42 C :   -0.005556
  43 C :   -0.104285
  44 C :    0.033905
  45 C :   -0.022318
  46 C :   -0.005508
  47 C :    0.029279
  48 C :   -0.103530
  49 C :   -0.088897
  50 C :   -0.023509
  51 C :   -0.108347
  52 H :    0.029850
  53 H :    0.004391
  54 H :    0.043521
  55 H :    0.028745
  56 H :    0.026675
  57 H :    0.030744
  58 H :    0.030887
  59 H :    0.004429
  60 H :    0.044130
  61 H :    0.060685
  62 H :    0.060457
  63 H :    0.031069
  64 H :   -0.000587
  65 H :    0.045518
  66 H :    0.030596
  67 H :    0.028489
  68 H :    0.032090
  69 H :    0.031371
  70 H :   -0.002057
  71 H :    0.045222
  72 H :    0.030903
  73 H :    0.004164
  74 H :    0.045057
  75 H :    0.030238
  76 H :    0.028277
  77 H :    0.031672
  78 H :    0.031346
  79 H :    0.004219
  80 H :    0.044681
  81 H :    0.028868
  82 H :   -0.001847
  83 H :    0.043570
  84 H :    0.029165
  85 H :    0.026574
  86 H :    0.030475
  87 H :    0.031092
  88 H :   -0.000907
  89 H :    0.043453

  Mayer bond orders larger than 0.100000
B(  0-C ,  1-N ) :   1.1177 B(  0-C , 17-C ) :   1.6404 B(  0-C , 52-H ) :   0.9691
B(  1-N ,  8-C ) :   1.1111 B(  1-N , 10-C ) :   0.9629 B(  2-C , 12-C ) :   1.5332
B(  2-C , 16-C ) :   1.3271 B(  2-C , 53-H ) :   0.9776 B(  3-N , 14-C ) :   1.2032
B(  3-N , 16-C ) :   1.1961 B(  3-N , 61-H ) :   0.8982 B(  4-C ,  6-C ) :   1.2607
B(  4-C , 17-C ) :   1.2606 B(  4-C , 18-C ) :   1.2862 B(  5-N , 19-C ) :   1.4224
B(  5-N , 27-C ) :   1.4021 B(  6-C ,  8-C ) :   1.6423 B(  6-C , 54-H ) :   0.9706
B(  7-N , 30-C ) :   1.1936 B(  7-N , 38-C ) :   1.2012 B(  7-N , 62-H ) :   0.8983
B(  8-C , 55-H ) :   0.9699 B(  9-N , 41-C ) :   1.4087 B(  9-N , 49-C ) :   1.4146
B( 10-C , 56-H ) :   0.9763 B( 10-C , 57-H ) :   0.9818 B( 10-C , 58-H ) :   0.9836
B( 11-N , 20-C ) :   1.1253 B( 11-N , 24-C ) :   1.1226 B( 11-N , 25-C ) :   0.9581
B( 12-C , 14-C ) :   1.3278 B( 12-C , 59-H ) :   0.9762 B( 13-N , 31-C ) :   1.1251
B( 13-N , 35-C ) :   1.1188 B( 13-N , 36-C ) :   0.9591 B( 14-C , 18-C ) :   1.1879
B( 15-N , 42-C ) :   1.1158 B( 15-N , 46-C ) :   1.1141 B( 15-N , 47-C ) :   0.9622
B( 16-C , 51-C ) :   1.1967 B( 17-C , 60-H ) :   0.9705 B( 18-C , 19-C ) :   1.2063
B( 19-C , 21-C ) :   1.2107 B( 20-C , 28-C ) :   1.6228 B( 20-C , 63-H ) :   0.9703
B( 21-C , 26-C ) :   1.6429 B( 21-C , 64-H ) :   0.9714 B( 22-C , 23-C ) :   1.2843
B( 22-C , 28-C ) :   1.2745 B( 22-C , 29-C ) :   1.2277 B( 23-C , 24-C ) :   1.6179
B( 23-C , 65-H ) :   0.9709 B( 24-C , 66-H ) :   0.9691 B( 25-C , 67-H ) :   0.9762
B( 25-C , 68-H ) :   0.9829 B( 25-C , 69-H ) :   0.9821 B( 26-C , 27-C ) :   1.2104
B( 26-C , 70-H ) :   0.9731 B( 27-C , 29-C ) :   1.2322 B( 28-C , 71-H ) :   0.9714
B( 29-C , 30-C ) :   1.2105 B( 30-C , 32-C ) :   1.3129 B( 31-C , 39-C ) :   1.6293
B( 31-C , 72-H ) :   0.9696 B( 32-C , 37-C ) :   1.5454 B( 32-C , 73-H ) :   0.9778
B( 33-C , 34-C ) :   1.2759 B( 33-C , 39-C ) :   1.2694 B( 33-C , 40-C ) :   1.2477
B( 34-C , 35-C ) :   1.6264 B( 34-C , 74-H ) :   0.9704 B( 35-C , 75-H ) :   0.9696
B( 36-C , 76-H ) :   0.9763 B( 36-C , 77-H ) :   0.9821 B( 36-C , 78-H ) :   0.9831
B( 37-C , 38-C ) :   1.3142 B( 37-C , 79-H ) :   0.9777 B( 38-C , 40-C ) :   1.2074
B( 39-C , 80-H ) :   0.9714 B( 40-C , 41-C ) :   1.2198 B( 41-C , 43-C ) :   1.2121
B( 42-C , 50-C ) :   1.6336 B( 42-C , 81-H ) :   0.9696 B( 43-C , 48-C ) :   1.6396
B( 43-C , 82-H ) :   0.9737 B( 44-C , 45-C ) :   1.2710 B( 44-C , 50-C ) :   1.2667
B( 44-C , 51-C ) :   1.2550 B( 45-C , 46-C ) :   1.6324 B( 45-C , 83-H ) :   0.9712
B( 46-C , 84-H ) :   0.9702 B( 47-C , 85-H ) :   0.9761 B( 47-C , 86-H ) :   0.9828
B( 47-C , 87-H ) :   0.9826 B( 48-C , 49-C ) :   1.2119 B( 48-C , 88-H ) :   0.9739
B( 49-C , 51-C ) :   1.2221 B( 50-C , 89-H ) :   0.9714

MP2 TOTAL ENERGY:    -2130.913033857 Eh
FINAL SINGLE POINT ENERGY     -2130.913033856668

DIPOLE MOMENT
-------------
                                X             Y             Z
Electronic contribution:     -0.25040      -0.89432      -0.11329
Nuclear contribution   :      0.07558       0.23954       0.12553
                        -----------------------------------------
Total Dipole Moment    :     -0.17482      -0.65478       0.01224
                        -----------------------------------------
Magnitude (a.u.)       :      0.67782
Magnitude (Debye)      :      1.72289

Rotational constants in cm-1:     0.001499     0.001475     0.000762
Rotational constants in MHz :    44.928393    44.210742    22.842721

                             ****ORCA TERMINATED NORMALLY****
TOTAL RUN TIME: 0 days 1 hours 11 minutes 49 seconds 753 msec
