                         Program Version 5.0.4 -  RELEASE  -
|  1> ! PAL2
|  2> ! mp2 cc-pvdz TightSCF  NoKeepInts
|  3>
|  4> %scf
|  5>   MaxCore 2000
|  6> end
|  7> %mp2
|  8>   MaxCore 2000
|  9> end
| 10> * xyz 0 1
| 11>    C       -3.33300         6.27300         0.93800
| 12>    C        1.47400         4.04100         0.05700
| 13>    C       -2.80200         4.09300         0.04900
| 14>    C       -3.90300         4.23100        -0.81000
| 15>    C       -4.67400         5.37600        -0.77000
| 16>    C       -5.21100         7.60400         0.08900
| 17>    C        0.13200         4.30700         0.06100
| 18>    C       -0.56900         3.05600         0.04700
| 19>    C        1.64900         2.61800         0.02300
| 20>    C       -2.52900         5.15000         0.93100
| 21>    N       -4.38700         6.37500         0.09700
| 22>    N        0.38800         2.06700         0.02500
| 23>    N       -2.01000         0.39500        -0.07500
| 24>    N       -0.38800        -2.07400        -0.02700
| 25>    N        2.01000        -0.40100         0.06500
| 26>    C       -1.96000         2.86100         0.02400
| 27>    C       -2.62300         1.61500        -0.01800
| 28>    C       -5.57300        -4.32900         1.06600
| 29>    C       -4.07300         1.47100         0.05600
| 30>    C       -4.10600        -2.75600        -0.02600
| 31>    C       -4.99500        -2.75700        -1.11100
| 32>    C       -6.13200        -3.54200        -1.07600
| 33>    C       -7.65100        -5.11300         0.04000
| 34>    C       -4.32400         0.14100         0.03700
| 35>    C       -3.02500        -0.52000        -0.04800
| 36>    C       -4.42200        -3.56600         1.07500
| 37>    N       -6.40700        -4.31300         0.00100
| 38>    C       -2.86700        -1.92200        -0.04000
| 39>    C       -1.65000        -2.62400        -0.02700
| 40>    C        3.56800        -6.14200        -1.04000
| 41>    C       -1.47600        -4.04900        -0.03400
| 42>    C        2.80300        -4.09900        -0.00800
| 43>    C        3.65700        -4.38400         1.06900
| 44>    C        4.42700        -5.53000         1.05900
| 45>    C        5.24500        -7.58800         0.01400
| 46>    C       -0.13400        -4.31500        -0.02200
| 47>    C        0.56800        -3.06400        -0.02700
| 48>    C        2.77500        -5.01200        -1.07400
| 49>    N        4.37600        -6.39100         0.01700
| 50>    C        1.95900        -2.86900        -0.00900
| 51>    C        2.62100        -1.62200         0.00900
| 52>    C        5.54300         4.33900        -1.13000
| 53>    C        4.07000        -1.47900        -0.09400
| 54>    C        4.10400         2.75100        -0.02100
| 55>    C        5.02700         2.72900         1.03600
| 56>    C        6.16600         3.50900         0.97800
| 57>    C        7.61900         5.15300        -0.11500
| 58>    C        4.32100        -0.14800        -0.09200
| 59>    C        3.02500         0.51400         0.01500
| 60>    C        4.38700         3.58200        -1.11500
| 61>    C        2.86600         1.91600         0.01300
| 62>    N        6.41300         4.29600        -0.09500
| 63>    H       -3.16700         7.10700         1.60900
| 64>    H        2.27400         4.76600         0.08100
| 65>    H       -4.16000         3.45400        -1.52000
| 66>    H       -5.52700         5.53100        -1.41800
| 67>    H       -4.82000         8.28900        -0.66700
| 68>    H       -6.24100         7.33500        -0.14500
| 69>    H       -5.16000         8.06600         1.07400
| 70>    H       -0.33200         5.28200         0.06900
| 71>    H       -1.70100         5.09700         1.62800
| 72>    H        0.18200         1.07200         0.00500
| 73>    H       -0.18300        -1.08000        -0.02100
| 74>    H       -5.86400        -4.96200         1.89500
| 75>    H       -4.79400         2.27200         0.13900
| 76>    H       -4.80000        -2.16000        -1.99400
| 77>    H       -6.84100        -3.58200        -1.89300
| 78>    H       -8.42800        -4.53600         0.54600
| 79>    H       -7.95600        -5.33700        -0.98100
| 80>    H       -7.45600        -6.03700         0.58400
| 81>    H       -5.28700        -0.34400         0.10000
| 82>    H       -3.78000        -3.60100         1.94700
| 83>    H        3.58700        -6.86800        -1.84300
| 84>    H       -2.27600        -4.77400        -0.05000
| 85>    H        3.71400        -3.72400         1.92600
| 86>    H        5.09200        -5.79500         1.87100
| 87>    H        6.20500        -7.32900        -0.43900
| 88>    H        5.39300        -7.91700         1.04200
| 89>    H        4.75900        -8.37300        -0.56400
| 90>    H        0.32900        -5.29000        -0.00800
| 91>    H        2.14600        -4.84200        -1.94000
| 92>    H        5.80800         4.98600        -1.95600
| 93>    H        4.78800        -2.28100        -0.18500
| 94>    H        4.86000         2.11400         1.91200
| 95>    H        6.90100         3.53100         1.77200
| 96>    H        7.38300         6.10900         0.35600
| 97>    H        8.41400         4.65200         0.43500
| 98>    H        7.92100         5.31000        -1.15000
| 99>    H        5.28300         0.33600        -0.17900
|100>    H        3.72000         3.63200        -1.96700
|101> *
|102>
|103>                          ****END OF INPUT****

CARTESIAN COORDINATES (ANGSTROEM)
---------------------------------
  C     -3.333000    6.273000    0.938000
  C      1.474000    4.041000    0.057000
  C     -2.802000    4.093000    0.049000
  C     -3.903000    4.231000   -0.810000
  C     -4.674000    5.376000   -0.770000
  C     -5.211000    7.604000    0.089000
  C      0.132000    4.307000    0.061000
  C     -0.569000    3.056000    0.047000
  C      1.649000    2.618000    0.023000
  C     -2.529000    5.150000    0.931000
  N     -4.387000    6.375000    0.097000
  N      0.388000    2.067000    0.025000
  N     -2.010000    0.395000   -0.075000
  N     -0.388000   -2.074000   -0.027000
  N      2.010000   -0.401000    0.065000
  C     -1.960000    2.861000    0.024000
  C     -2.623000    1.615000   -0.018000
  C     -5.573000   -4.329000    1.066000
  C     -4.073000    1.471000    0.056000
  C     -4.106000   -2.756000   -0.026000
  C     -4.995000   -2.757000   -1.111000
  C     -6.132000   -3.542000   -1.076000
  C     -7.651000   -5.113000    0.040000
  C     -4.324000    0.141000    0.037000
  C     -3.025000   -0.520000   -0.048000
  C     -4.422000   -3.566000    1.075000
  N     -6.407000   -4.313000    0.001000
  C     -2.867000   -1.922000   -0.040000
  C     -1.650000   -2.624000   -0.027000
  C      3.568000   -6.142000   -1.040000
  C     -1.476000   -4.049000   -0.034000
  C      2.803000   -4.099000   -0.008000
  C      3.657000   -4.384000    1.069000
  C      4.427000   -5.530000    1.059000
  C      5.245000   -7.588000    0.014000
  C     -0.134000   -4.315000   -0.022000
  C      0.568000   -3.064000   -0.027000
  C      2.775000   -5.012000   -1.074000
  N      4.376000   -6.391000    0.017000
  C      1.959000   -2.869000   -0.009000
  C      2.621000   -1.622000    0.009000
  C      5.543000    4.339000   -1.130000
  C      4.070000   -1.479000   -0.094000
  C      4.104000    2.751000   -0.021000
  C      5.027000    2.729000    1.036000
  C      6.166000    3.509000    0.978000
  C      7.619000    5.153000   -0.115000
  C      4.321000   -0.148000   -0.092000
  C      3.025000    0.514000    0.015000
  C      4.387000    3.582000   -1.115000
  C      2.866000    1.916000    0.013000
  N      6.413000    4.296000   -0.095000
  H     -3.167000    7.107000    1.609000
  H      2.274000    4.766000    0.081000
  H     -4.160000    3.454000   -1.520000
  H     -5.527000    5.531000   -1.418000
  H     -4.820000    8.289000   -0.667000
  H     -6.241000    7.335000   -0.145000
  H     -5.160000    8.066000    1.074000
  H     -0.332000    5.282000    0.069000
  H     -1.701000    5.097000    1.628000
  H      0.182000    1.072000    0.005000
  H     -0.183000   -1.080000   -0.021000
  H     -5.864000   -4.962000    1.895000
  H     -4.794000    2.272000    0.139000
  H     -4.800000   -2.160000   -1.994000
  H     -6.841000   -3.582000   -1.893000
  H     -8.428000   -4.536000    0.546000
  H     -7.956000   -5.337000   -0.981000
  H     -7.456000   -6.037000    0.584000
  H     -5.287000   -0.344000    0.100000
  H     -3.780000   -3.601000    1.947000
  H      3.587000   -6.868000   -1.843000
  H     -2.276000   -4.774000   -0.050000
  H      3.714000   -3.724000    1.926000
  H      5.092000   -5.795000    1.871000
  H      6.205000   -7.329000   -0.439000
  H      5.393000   -7.917000    1.042000
  H      4.759000   -8.373000   -0.564000
  H      0.329000   -5.290000   -0.008000
  H      2.146000   -4.842000   -1.940000
  H      5.808000    4.986000   -1.956000
  H      4.788000   -2.281000   -0.185000
  H      4.860000    2.114000    1.912000
  H      6.901000    3.531000    1.772000
  H      7.383000    6.109000    0.356000
  H      8.414000    4.652000    0.435000
  H      7.921000    5.310000   -1.150000
  H      5.283000    0.336000   -0.179000
  H      3.720000    3.632000   -1.967000

 Total Charge           Charge          ....    0
 Multiplicity           Mult            ....    1
 Number of Electrons    NEL             ....  358
 Basis Dimension        Dim             ....  918

ORBITAL ENERGIES
----------------

  NO   OCC          E(Eh)            E(eV)
   0   2.0000     -15.659876      -426.1269
   1   2.0000     -15.638725      -425.5513
   2   2.0000     -15.628554      -425.2746
   3   2.0000     -15.601558      -424.5400
   4   2.0000     -15.523021      -422.4029
   5   2.0000     -15.515709      -422.2039
   6   2.0000     -15.448809      -420.3835
   7   2.0000     -15.443655      -420.2432
   8   2.0000     -11.315601      -307.9132
   9   2.0000     -11.313352      -307.8520
  10   2.0000     -11.310948      -307.7865
  11   2.0000     -11.302246      -307.5497
  12   2.0000     -11.296102      -307.3826
  13   2.0000     -11.295775      -307.3737
  14   2.0000     -11.291975      -307.2703
  15   2.0000     -11.287182      -307.1398
  16   2.0000     -11.284478      -307.0663
  17   2.0000     -11.280160      -306.9487
  18   2.0000     -11.265901      -306.5607
  19   2.0000     -11.263890      -306.5060
  20   2.0000     -11.263279      -306.4894
  21   2.0000     -11.249302      -306.1091
  22   2.0000     -11.248391      -306.0843
  23   2.0000     -11.242245      -305.9170
  24   2.0000     -11.234518      -305.7068
  25   2.0000     -11.233949      -305.6913
  26   2.0000     -11.233185      -305.6705
  27   2.0000     -11.226975      -305.5015
  28   2.0000     -11.226753      -305.4955
  29   2.0000     -11.211166      -305.0713
  30   2.0000     -11.207008      -304.9582
  31   2.0000     -11.206221      -304.9368
  32   2.0000     -11.206027      -304.9315
  33   2.0000     -11.205910      -304.9283
  34   2.0000     -11.190865      -304.5189
  35   2.0000     -11.190525      -304.5097
  36   2.0000     -11.182310      -304.2861
  37   2.0000     -11.179281      -304.2037
  38   2.0000     -11.178720      -304.1884
  39   2.0000     -11.174035      -304.0609
  40   2.0000     -11.168080      -303.8989
  41   2.0000     -11.167764      -303.8903
  42   2.0000     -11.165298      -303.8232
  43   2.0000     -11.165174      -303.8198
  44   2.0000     -11.164196      -303.7932
  45   2.0000     -11.161777      -303.7274
  46   2.0000     -11.152028      -303.4621
  47   2.0000     -11.149491      -303.3931
  48   2.0000     -11.148247      -303.3592
  49   2.0000     -11.145392      -303.2815
  50   2.0000     -11.137360      -303.0630
  51   2.0000     -11.132147      -302.9211
  52   2.0000      -1.343408       -36.5560
  53   2.0000      -1.325296       -36.0631
  54   2.0000      -1.316635       -35.8275
  55   2.0000      -1.294494       -35.2250
  56   2.0000      -1.222925       -33.2775
  57   2.0000      -1.210955       -32.9518
  58   2.0000      -1.166428       -31.7401
  59   2.0000      -1.155310       -31.4376
  60   2.0000      -1.129258       -30.7287
  61   2.0000      -1.113527       -30.3006
  62   2.0000      -1.106169       -30.1004
  63   2.0000      -1.088496       -29.6195
  64   2.0000      -1.066292       -29.0153
  65   2.0000      -1.049251       -28.5516
  66   2.0000      -1.041344       -28.3364
  67   2.0000      -1.032277       -28.0897
  68   2.0000      -1.021517       -27.7969
  69   2.0000      -1.013464       -27.5777
  70   2.0000      -1.009380       -27.4666
  71   2.0000      -0.993256       -27.0279
  72   2.0000      -0.987051       -26.8590
  73   2.0000      -0.975587       -26.5471
  74   2.0000      -0.972952       -26.4754
  75   2.0000      -0.958872       -26.0922
  76   2.0000      -0.950771       -25.8718
  77   2.0000      -0.947386       -25.7797
  78   2.0000      -0.937127       -25.5005
  79   2.0000      -0.921830       -25.0843
  80   2.0000      -0.898115       -24.4390
  81   2.0000      -0.889065       -24.1927
  82   2.0000      -0.876189       -23.8423
  83   2.0000      -0.869508       -23.6605
  84   2.0000      -0.864172       -23.5153
  85   2.0000      -0.854756       -23.2591
  86   2.0000      -0.845725       -23.0134
  87   2.0000      -0.839230       -22.8366
  88   2.0000      -0.822065       -22.3695
  89   2.0000      -0.798750       -21.7351
  90   2.0000      -0.795321       -21.6418
  91   2.0000      -0.743239       -20.2246
  92   2.0000      -0.736330       -20.0366
  93   2.0000      -0.731474       -19.9044
  94   2.0000      -0.722986       -19.6735
  95   2.0000      -0.719528       -19.5794
  96   2.0000      -0.713328       -19.4106
  97   2.0000      -0.705212       -19.1898
  98   2.0000      -0.701484       -19.0883
  99   2.0000      -0.695968       -18.9383
 100   2.0000      -0.692673       -18.8486
 101   2.0000      -0.681563       -18.5463
 102   2.0000      -0.678874       -18.4731
 103   2.0000      -0.674281       -18.3481
 104   2.0000      -0.671330       -18.2678
 105   2.0000      -0.670606       -18.2481
 106   2.0000      -0.663955       -18.0671
 107   2.0000      -0.662459       -18.0264
 108   2.0000      -0.656828       -17.8732
 109   2.0000      -0.654352       -17.8058
 110   2.0000      -0.650335       -17.6965
 111   2.0000      -0.647431       -17.6175
 112   2.0000      -0.643467       -17.5096
 113   2.0000      -0.636426       -17.3180
 114   2.0000      -0.631935       -17.1958
 115   2.0000      -0.631603       -17.1868
 116   2.0000      -0.623198       -16.9581
 117   2.0000      -0.616048       -16.7635
 118   2.0000      -0.613709       -16.6999
 119   2.0000      -0.611704       -16.6453
 120   2.0000      -0.608653       -16.5623
 121   2.0000      -0.601653       -16.3718
 122   2.0000      -0.598522       -16.2866
 123   2.0000      -0.589772       -16.0485
 124   2.0000      -0.589250       -16.0343
 125   2.0000      -0.584500       -15.9051
 126   2.0000      -0.578382       -15.7386
 127   2.0000      -0.576614       -15.6905
 128   2.0000      -0.563291       -15.3279
 129   2.0000      -0.558558       -15.1991
 130   2.0000      -0.554171       -15.0798
 131   2.0000      -0.549552       -14.9541
 132   2.0000      -0.542168       -14.7532
 133   2.0000      -0.538318       -14.6484
 134   2.0000      -0.534239       -14.5374
 135   2.0000      -0.532660       -14.4944
 136   2.0000      -0.525320       -14.2947
 137   2.0000      -0.523644       -14.2491
 138   2.0000      -0.517614       -14.0850
 139   2.0000      -0.516280       -14.0487
 140   2.0000      -0.509847       -13.8737
 141   2.0000      -0.509121       -13.8539
 142   2.0000      -0.508354       -13.8330
 143   2.0000      -0.502049       -13.6615
 144   2.0000      -0.500433       -13.6175
 145   2.0000      -0.497374       -13.5342
 146   2.0000      -0.493990       -13.4422
 147   2.0000      -0.487247       -13.2587
 148   2.0000      -0.486743       -13.2450
 149   2.0000      -0.469011       -12.7624
 150   2.0000      -0.463171       -12.6035
 151   2.0000      -0.455173       -12.3859
 152   2.0000      -0.448230       -12.1969
 153   2.0000      -0.447020       -12.1640
 154   2.0000      -0.445918       -12.1341
 155   2.0000      -0.440059       -11.9746
 156   2.0000      -0.433579       -11.7983
 157   2.0000      -0.429113       -11.6768
 158   2.0000      -0.398449       -10.8423
 159   2.0000      -0.384975       -10.4757
 160   2.0000      -0.379141       -10.3170
 161   2.0000      -0.374259       -10.1841
 162   2.0000      -0.370890       -10.0924
 163   2.0000      -0.359761        -9.7896
 164   2.0000      -0.353197        -9.6110
 165   2.0000      -0.337402        -9.1812
 166   2.0000      -0.336314        -9.1516
 167   2.0000      -0.334674        -9.1069
 168   2.0000      -0.328593        -8.9415
 169   2.0000      -0.301365        -8.2006
 170   2.0000      -0.299777        -8.1574
 171   2.0000      -0.287397        -7.8205
 172   2.0000      -0.285081        -7.7574
 173   2.0000      -0.258597        -7.0368
 174   2.0000      -0.246228        -6.7002
 175   2.0000      -0.189203        -5.1485
 176   2.0000      -0.179348        -4.8803
 177   2.0000      -0.070876        -1.9286
 178   2.0000      -0.056688        -1.5426
 179   0.0000       0.029398         0.8000
 180   0.0000       0.068552         1.8654
 181   0.0000       0.092487         2.5167
 182   0.0000       0.103535         2.8173
 183   0.0000       0.119585         3.2541

MULLIKEN ATOMIC CHARGES
-----------------------
   0 C :    0.205975
   1 N :   -0.451099
   2 C :   -0.064152
   3 N :   -0.336180
   4 C :   -0.056979
   5 N :   -0.560626
   6 C :   -0.093835
   7 N :   -0.339458
   8 C :    0.201773
   9 N :   -0.562736
  10 C :    0.117908
  11 N :   -0.437470
  12 C :   -0.077582
  13 N :   -0.434107
  14 C :    0.232774
  15 N :   -0.441255
  16 C :    0.230426
  17 C :   -0.100571
  18 C :   -0.186155
  19 C :    0.219455
  20 C :    0.212473
  21 C :   -0.087895
  22 C :   -0.087694
  23 C :   -0.043580
  24 C :    0.199951
  25 C :    0.113930
  26 C :   -0.073609
  27 C :    0.214753
  28 C :   -0.057318
  29 C :   -0.181526
  30 C :    0.241249
  31 C :    0.222539
  32 C :   -0.062747
  33 C :   -0.069939
  34 C :   -0.049590
  35 C :    0.216559
  36 C :    0.110866
  37 C :   -0.065316
  38 C :    0.234700
  39 C :   -0.060172
  40 C :   -0.184013
  41 C :    0.222451
  42 C :    0.199106
  43 C :   -0.073177
  44 C :   -0.090497
  45 C :   -0.058012
  46 C :    0.207213
  47 C :    0.115700
  48 C :   -0.070752
  49 C :    0.232947
  50 C :   -0.049073
  51 C :   -0.191890
  52 H :    0.045121
  53 H :   -0.015556
  54 H :    0.047927
  55 H :    0.043197
  56 H :    0.051713
  57 H :    0.051036
  58 H :    0.049907
  59 H :   -0.003725
  60 H :    0.047504
  61 H :    0.171523
  62 H :    0.174576
  63 H :    0.056924
  64 H :   -0.009474
  65 H :    0.046888
  66 H :    0.057189
  67 H :    0.063484
  68 H :    0.058076
  69 H :    0.058051
  70 H :   -0.026863
  71 H :    0.047187
  72 H :    0.064791
  73 H :   -0.010542
  74 H :    0.054420
  75 H :    0.063936
  76 H :    0.069239
  77 H :    0.063629
  78 H :    0.062782
  79 H :   -0.014892
  80 H :    0.054874
  81 H :    0.053587
  82 H :   -0.024716
  83 H :    0.041618
  84 H :    0.053042
  85 H :    0.059517
  86 H :    0.055426
  87 H :    0.056673
  88 H :   -0.017703
  89 H :    0.045891
Sum of atomic charges:    0.0000000

LOEWDIN ATOMIC CHARGES
----------------------
   0 C :   -0.015952
   1 N :    0.120945
   2 C :   -0.100993
   3 N :    0.181644
   4 C :    0.006398
   5 N :   -0.132542
   6 C :   -0.030834
   7 N :    0.176392
   8 C :   -0.019488
   9 N :   -0.139749
  10 C :    0.025397
  11 N :    0.144493
  12 C :   -0.105086
  13 N :    0.155316
  14 C :   -0.037757
  15 N :    0.137725
  16 C :   -0.054276
  17 C :   -0.036969
  18 C :   -0.102419
  19 C :   -0.086259
  20 C :    0.004442
  21 C :   -0.109480
  22 C :    0.041386
  23 C :   -0.016861
  24 C :   -0.006486
  25 C :    0.030411
  26 C :   -0.106174
  27 C :   -0.108572
  28 C :   -0.024083
  29 C :   -0.101588
  30 C :   -0.037699
  31 C :    0.014978
  32 C :   -0.095488
  33 C :    0.063392
  34 C :   -0.016465
  35 C :    0.009946
  36 C :    0.032772
  37 C :   -0.097089
  38 C :   -0.045896
  39 C :   -0.021451
  40 C :   -0.108152
  41 C :   -0.094273
  42 C :   -0.009166
  43 C :   -0.102116
  44 C :    0.031852
  45 C :   -0.026193
  46 C :   -0.002207
  47 C :    0.029188
  48 C :   -0.099947
  49 C :   -0.077969
  50 C :   -0.020733
  51 C :   -0.109432
  52 H :    0.025641
  53 H :    0.003602
  54 H :    0.041450
  55 H :    0.025221
  56 H :    0.022883
  57 H :    0.027792
  58 H :    0.028186
  59 H :    0.007400
  60 H :    0.040706
  61 H :    0.060087
  62 H :    0.061380
  63 H :    0.031378
  64 H :    0.002816
  65 H :    0.045625
  66 H :    0.030129
  67 H :    0.028788
  68 H :    0.032014
  69 H :    0.031055
  70 H :   -0.003282
  71 H :    0.044724
  72 H :    0.034684
  73 H :    0.005892
  74 H :    0.048228
  75 H :    0.034053
  76 H :    0.031844
  77 H :    0.034128
  78 H :    0.033760
  79 H :    0.003802
  80 H :    0.047872
  81 H :    0.028818
  82 H :   -0.002578
  83 H :    0.042573
  84 H :    0.029236
  85 H :    0.026737
  86 H :    0.030089
  87 H :    0.031149
  88 H :    0.000854
  89 H :    0.044437

  Mayer bond orders larger than 0.100000
B(  0-C ,  1-N ) :   1.0984 B(  0-C , 17-C ) :   1.6830 B(  0-C , 52-H ) :   0.9683
B(  1-N ,  8-C ) :   1.0907 B(  1-N , 10-C ) :   0.9733 B(  2-C , 12-C ) :   1.5220
B(  2-C , 16-C ) :   1.3412 B(  2-C , 53-H ) :   0.9770 B(  3-N , 14-C ) :   1.2134
B(  3-N , 16-C ) :   1.1933 B(  3-N , 61-H ) :   0.8992 B(  4-C ,  6-C ) :   1.2263
B(  4-C , 17-C ) :   1.2246 B(  4-C , 18-C ) :   1.3756 B(  5-N , 19-C ) :   1.4420
B(  5-N , 27-C ) :   1.3884 B(  6-C ,  8-C ) :   1.6850 B(  6-C , 54-H ) :   0.9672
B(  7-N , 30-C ) :   1.1935 B(  7-N , 38-C ) :   1.1961 B(  7-N , 62-H ) :   0.8973
B(  8-C , 55-H ) :   0.9698 B(  9-N , 41-C ) :   1.3976 B(  9-N , 49-C ) :   1.4244
B( 10-C , 56-H ) :   0.9765 B( 10-C , 57-H ) :   0.9829 B( 10-C , 58-H ) :   0.9834
B( 11-N , 20-C ) :   1.1303 B( 11-N , 24-C ) :   1.1157 B( 11-N , 25-C ) :   0.9583
B( 12-C , 14-C ) :   1.3441 B( 12-C , 59-H ) :   0.9750 B( 13-N , 31-C ) :   1.1456
B( 13-N , 35-C ) :   1.1391 B( 13-N , 36-C ) :   0.9496 B( 14-C , 18-C ) :   1.1571
B( 15-N , 42-C ) :   1.1096 B( 15-N , 46-C ) :   1.1187 B( 15-N , 47-C ) :   0.9624
B( 16-C , 51-C ) :   1.1833 B( 17-C , 60-H ) :   0.9675 B( 18-C , 19-C ) :   1.1639
B( 19-C , 21-C ) :   1.2308 B( 20-C , 28-C ) :   1.6239 B( 20-C , 63-H ) :   0.9702
B( 21-C , 26-C ) :   1.6278 B( 21-C , 64-H ) :   0.9715 B( 22-C , 23-C ) :   1.2893
B( 22-C , 28-C ) :   1.2707 B( 22-C , 29-C ) :   1.2213 B( 23-C , 24-C ) :   1.6165
B( 23-C , 65-H ) :   0.9706 B( 24-C , 66-H ) :   0.9693 B( 25-C , 67-H ) :   0.9761
B( 25-C , 68-H ) :   0.9828 B( 25-C , 69-H ) :   0.9822 B( 26-C , 27-C ) :   1.2257
B( 26-C , 70-H ) :   0.9719 B( 27-C , 29-C ) :   1.2210 B( 28-C , 71-H ) :   0.9717
B( 29-C , 30-C ) :   1.2312 B( 30-C , 32-C ) :   1.2925 B( 31-C , 39-C ) :   1.6071
B( 31-C , 72-H ) :   0.9688 B( 32-C , 37-C ) :   1.5665 B( 32-C , 73-H ) :   0.9782
B( 33-C , 34-C ) :   1.2942 B( 33-C , 39-C ) :   1.2870 B( 33-C , 40-C ) :   1.2067
B( 34-C , 35-C ) :   1.6037 B( 34-C , 74-H ) :   0.9700 B( 35-C , 75-H ) :   0.9688
B( 36-C , 76-H ) :   0.9765 B( 36-C , 77-H ) :   0.9818 B( 36-C , 78-H ) :   0.9827
B( 37-C , 38-C ) :   1.2955 B( 37-C , 79-H ) :   0.9771 B( 38-C , 40-C ) :   1.2237
B( 39-C , 80-H ) :   0.9710 B( 40-C , 41-C ) :   1.2363 B( 41-C , 43-C ) :   1.1995
B( 42-C , 50-C ) :   1.6352 B( 42-C , 81-H ) :   0.9696 B( 43-C , 48-C ) :   1.6521
B( 43-C , 82-H ) :   0.9727 B( 44-C , 45-C ) :   1.2648 B( 44-C , 50-C ) :   1.2685
B( 44-C , 51-C ) :   1.2622 B( 45-C , 46-C ) :   1.6357 B( 45-C , 83-H ) :   0.9716
B( 46-C , 84-H ) :   0.9702 B( 47-C , 85-H ) :   0.9762 B( 47-C , 86-H ) :   0.9829
B( 47-C , 87-H ) :   0.9825 B( 48-C , 49-C ) :   1.2018 B( 48-C , 88-H ) :   0.9745
B( 49-C , 51-C ) :   1.2284 B( 50-C , 89-H ) :   0.9711

MP2 TOTAL ENERGY:    -2130.914184708 Eh
FINAL SINGLE POINT ENERGY     -2130.914184708266

DIPOLE MOMENT
-------------
                                X             Y             Z
Electronic contribution:      1.27848      -2.95561      -0.05930
Nuclear contribution   :      0.00768       0.19327       0.07026
                        -----------------------------------------
Total Dipole Moment    :      1.28616      -2.76234       0.01097
                        -----------------------------------------
Magnitude (a.u.)       :      3.04711
Magnitude (Debye)      :      7.74513

Rotational constants in cm-1:     0.001501     0.001475     0.000761
Rotational constants in MHz :    44.991236    44.207472    22.826556

                             ****ORCA TERMINATED NORMALLY****
TOTAL RUN TIME: 0 days 1 hours 6 minutes 16 seconds 968 msec
