                         Program Version 5.0.4 -  RELEASE  -
|  1> ! PAL2
|  2> ! mp2 cc-pvdz TightSCF  NoKeepInts
|  3>
|  4> %scf
|  5>   MaxCore 2000
|  6> end
|  7> %mp2
|  8>   MaxCore 2000
|  9> end
| 10> * xyz 0 1
| 11>    C       -4.10200         5.78800        -1.07400
| 12>    C        1.47400         4.04100         0.05700
| 13>    C       -2.80200         4.09300         0.04900
| 14>    C       -3.08400         4.75000         1.25700
| 15>    C       -3.86000         5.89100         1.26100
| 16>    C       -5.21500         7.60000         0.15000
| 17>    C        0.13200         4.30700         0.06100
| 18>    C       -0.56900         3.05600         0.04700
| 19>    C        1.64900         2.61800         0.02300
| 20>    C       -3.33600         4.64000        -1.12800
| 21>    N       -4.35500         6.39700         0.10700
| 22>    N        0.38800         2.06700         0.02500
| 23>    N       -2.01000         0.39500        -0.07500
| 24>    N       -0.38800        -2.07400        -0.02700
| 25>    N        2.01000        -0.40100         0.06500
| 26>    C       -1.96000         2.86100         0.02400
| 27>    C       -2.62300         1.61500        -0.01800
| 28>    C       -5.57300        -4.32900         1.06600
| 29>    C       -4.07300         1.47100         0.05600
| 30>    C       -4.10600        -2.75600        -0.02600
| 31>    C       -4.99500        -2.75700        -1.11100
| 32>    C       -6.13200        -3.54200        -1.07600
| 33>    C       -7.65100        -5.11300         0.04000
| 34>    C       -4.32400         0.14100         0.03700
| 35>    C       -3.02500        -0.52000        -0.04800
| 36>    C       -4.42200        -3.56600         1.07500
| 37>    N       -6.40700        -4.31300         0.00100
| 38>    C       -2.86700        -1.92200        -0.04000
| 39>    C       -1.65000        -2.62400        -0.02700
| 40>    C        3.56800        -6.14200        -1.04000
| 41>    C       -1.47600        -4.04900        -0.03400
| 42>    C        2.80300        -4.09900        -0.00800
| 43>    C        3.65700        -4.38400         1.06900
| 44>    C        4.42700        -5.53000         1.05900
| 45>    C        5.24500        -7.58800         0.01400
| 46>    C       -0.13400        -4.31500        -0.02200
| 47>    C        0.56800        -3.06400        -0.02700
| 48>    C        2.77500        -5.01200        -1.07400
| 49>    N        4.37600        -6.39100         0.01700
| 50>    C        1.95900        -2.86900        -0.00900
| 51>    C        2.62100        -1.62200         0.00900
| 52>    C        5.54300         4.33900        -1.13000
| 53>    C        4.07000        -1.47900        -0.09400
| 54>    C        4.10400         2.75100        -0.02100
| 55>    C        5.02700         2.72900         1.03600
| 56>    C        6.16600         3.50900         0.97800
| 57>    C        7.61900         5.15300        -0.11500
| 58>    C        4.32100        -0.14800        -0.09200
| 59>    C        3.02500         0.51400         0.01500
| 60>    C        4.38700         3.58200        -1.11500
| 61>    C        2.86600         1.91600         0.01300
| 62>    N        6.41300         4.29600        -0.09500
| 63>    H       -4.52400         6.25200        -1.95700
| 64>    H        2.27400         4.76600         0.08100
| 65>    H       -2.70800         4.37000         2.20000
| 66>    H       -4.11100         6.42600         2.16800
| 67>    H       -6.24700         7.29300         0.33600
| 68>    H       -4.86700         8.25200         0.95100
| 69>    H       -5.14400         8.11500        -0.80800
| 70>    H       -0.33200         5.28200         0.06900
| 71>    H       -3.14200         4.18800        -2.09400
| 72>    H        0.18200         1.07200         0.00500
| 73>    H       -0.18300        -1.08000        -0.02100
| 74>    H       -5.86400        -4.96200         1.89500
| 75>    H       -4.79400         2.27200         0.13900
| 76>    H       -4.80000        -2.16000        -1.99400
| 77>    H       -6.84100        -3.58200        -1.89300
| 78>    H       -8.42800        -4.53600         0.54600
| 79>    H       -7.95600        -5.33700        -0.98100
| 80>    H       -7.45600        -6.03700         0.58400
| 81>    H       -5.28700        -0.34400         0.10000
| 82>    H       -3.78000        -3.60100         1.94700
| 83>    H        3.58700        -6.86800        -1.84300
| 84>    H       -2.27600        -4.77400        -0.05000
| 85>    H        3.71400        -3.72400         1.92600
| 86>    H        5.09200        -5.79500         1.87100
| 87>    H        6.20500        -7.32900        -0.43900
| 88>    H        5.39300        -7.91700         1.04200
| 89>    H        4.75900        -8.37300        -0.56400
| 90>    H        0.32900        -5.29000        -0.00800
| 91>    H        2.14600        -4.84200        -1.94000
| 92>    H        5.80800         4.98600        -1.95600
| 93>    H        4.78800        -2.28100        -0.18500
| 94>    H        4.86000         2.11400         1.91200
| 95>    H        6.90100         3.53100         1.77200
| 96>    H        7.38300         6.10900         0.35600
| 97>    H        8.41400         4.65200         0.43500
| 98>    H        7.92100         5.31000        -1.15000
| 99>    H        5.28300         0.33600        -0.17900
|100>    H        3.72000         3.63200        -1.96700
|101> *
|102>
|103>                          ****END OF INPUT****

CARTESIAN COORDINATES (ANGSTROEM)
---------------------------------
  C     -4.102000    5.788000   -1.074000
  C      1.474000    4.041000    0.057000
  C     -2.802000    4.093000    0.049000
  C     -3.084000    4.750000    1.257000
  C     -3.860000    5.891000    1.261000
  C     -5.215000    7.600000    0.150000
  C      0.132000    4.307000    0.061000
  C     -0.569000    3.056000    0.047000
  C      1.649000    2.618000    0.023000
  C     -3.336000    4.640000   -1.128000
  N     -4.355000    6.397000    0.107000
  N      0.388000    2.067000    0.025000
  N     -2.010000    0.395000   -0.075000
  N     -0.388000   -2.074000   -0.027000
  N      2.010000   -0.401000    0.065000
  C     -1.960000    2.861000    0.024000
  C     -2.623000    1.615000   -0.018000
  C     -5.573000   -4.329000    1.066000
  C     -4.073000    1.471000    0.056000
  C     -4.106000   -2.756000   -0.026000
  C     -4.995000   -2.757000   -1.111000
  C     -6.132000   -3.542000   -1.076000
  C     -7.651000   -5.113000    0.040000
  C     -4.324000    0.141000    0.037000
  C     -3.025000   -0.520000   -0.048000
  C     -4.422000   -3.566000    1.075000
  N     -6.407000   -4.313000    0.001000
  C     -2.867000   -1.922000   -0.040000
  C     -1.650000   -2.624000   -0.027000
  C      3.568000   -6.142000   -1.040000
  C     -1.476000   -4.049000   -0.034000
  C      2.803000   -4.099000   -0.008000
  C      3.657000   -4.384000    1.069000
  C      4.427000   -5.530000    1.059000
  C      5.245000   -7.588000    0.014000
  C     -0.134000   -4.315000   -0.022000
  C      0.568000   -3.064000   -0.027000
  C      2.775000   -5.012000   -1.074000
  N      4.376000   -6.391000    0.017000
  C      1.959000   -2.869000   -0.009000
  C      2.621000   -1.622000    0.009000
  C      5.543000    4.339000   -1.130000
  C      4.070000   -1.479000   -0.094000
  C      4.104000    2.751000   -0.021000
  C      5.027000    2.729000    1.036000
  C      6.166000    3.509000    0.978000
  C      7.619000    5.153000   -0.115000
  C      4.321000   -0.148000   -0.092000
  C      3.025000    0.514000    0.015000
  C      4.387000    3.582000   -1.115000
  C      2.866000    1.916000    0.013000
  N      6.413000    4.296000   -0.095000
  H     -4.524000    6.252000   -1.957000
  H      2.274000    4.766000    0.081000
  H     -2.708000    4.370000    2.200000
  H     -4.111000    6.426000    2.168000
  H     -6.247000    7.293000    0.336000
  H     -4.867000    8.252000    0.951000
  H     -5.144000    8.115000   -0.808000
  H     -0.332000    5.282000    0.069000
  H     -3.142000    4.188000   -2.094000
  H      0.182000    1.072000    0.005000
  H     -0.183000   -1.080000   -0.021000
  H     -5.864000   -4.962000    1.895000
  H     -4.794000    2.272000    0.139000
  H     -4.800000   -2.160000   -1.994000
  H     -6.841000   -3.582000   -1.893000
  H     -8.428000   -4.536000    0.546000
  H     -7.956000   -5.337000   -0.981000
  H     -7.456000   -6.037000    0.584000
  H     -5.287000   -0.344000    0.100000
  H     -3.780000   -3.601000    1.947000
  H      3.587000   -6.868000   -1.843000
  H     -2.276000   -4.774000   -0.050000
  H      3.714000   -3.724000    1.926000
  H      5.092000   -5.795000    1.871000
  H      6.205000   -7.329000   -0.439000
  H      5.393000   -7.917000    1.042000
  H      4.759000   -8.373000   -0.564000
  H      0.329000   -5.290000   -0.008000
  H      2.146000   -4.842000   -1.940000
  H      5.808000    4.986000   -1.956000
  H      4.788000   -2.281000   -0.185000
  H      4.860000    2.114000    1.912000
  H      6.901000    3.531000    1.772000
  H      7.383000    6.109000    0.356000
  H      8.414000    4.652000    0.435000
  H      7.921000    5.310000   -1.150000
  H      5.283000    0.336000   -0.179000
  H      3.720000    3.632000   -1.967000

 Total Charge           Charge          ....    0
 Multiplicity           Mult            ....    1
 Number of Electrons    NEL             ....  358
 Basis Dimension        Dim             ....  918

ORBITAL ENERGIES
----------------

  NO   OCC          E(Eh)            E(eV)
   0   2.0000     -15.707495      -427.4227
   1   2.0000     -15.631359      -425.3509
   2   2.0000     -15.619671      -425.0329
   3   2.0000     -15.583072      -424.0370
   4   2.0000     -15.519579      -422.3092
   5   2.0000     -15.505889      -421.9367
   6   2.0000     -15.450556      -420.4310
   7   2.0000     -15.428318      -419.8259
   8   2.0000     -11.348767      -308.8157
   9   2.0000     -11.347006      -308.7677
  10   2.0000     -11.343138      -308.6625
  11   2.0000     -11.302833      -307.5657
  12   2.0000     -11.298068      -307.4361
  13   2.0000     -11.292489      -307.2842
  14   2.0000     -11.290242      -307.2231
  15   2.0000     -11.283355      -307.0357
  16   2.0000     -11.281799      -306.9934
  17   2.0000     -11.279172      -306.9219
  18   2.0000     -11.279107      -306.9201
  19   2.0000     -11.272899      -306.7512
  20   2.0000     -11.267291      -306.5986
  21   2.0000     -11.248709      -306.0929
  22   2.0000     -11.244926      -305.9900
  23   2.0000     -11.234991      -305.7197
  24   2.0000     -11.228790      -305.5509
  25   2.0000     -11.227908      -305.5269
  26   2.0000     -11.223936      -305.4188
  27   2.0000     -11.219588      -305.3005
  28   2.0000     -11.219336      -305.2936
  29   2.0000     -11.208341      -304.9945
  30   2.0000     -11.207246      -304.9647
  31   2.0000     -11.193107      -304.5799
  32   2.0000     -11.192336      -304.5590
  33   2.0000     -11.192215      -304.5556
  34   2.0000     -11.190835      -304.5181
  35   2.0000     -11.190652      -304.5131
  36   2.0000     -11.189367      -304.4782
  37   2.0000     -11.182448      -304.2899
  38   2.0000     -11.182232      -304.2840
  39   2.0000     -11.174416      -304.0713
  40   2.0000     -11.166747      -303.8626
  41   2.0000     -11.166187      -303.8474
  42   2.0000     -11.163060      -303.7623
  43   2.0000     -11.160571      -303.6946
  44   2.0000     -11.159616      -303.6686
  45   2.0000     -11.146981      -303.3248
  46   2.0000     -11.146313      -303.3066
  47   2.0000     -11.143325      -303.2253
  48   2.0000     -11.140959      -303.1609
  49   2.0000     -11.134208      -302.9772
  50   2.0000     -11.118708      -302.5554
  51   2.0000     -11.113878      -302.4240
  52   2.0000      -1.381623       -37.5959
  53   2.0000      -1.319141       -35.8957
  54   2.0000      -1.308518       -35.6066
  55   2.0000      -1.277449       -34.7612
  56   2.0000      -1.222512       -33.2663
  57   2.0000      -1.202196       -32.7134
  58   2.0000      -1.175120       -31.9766
  59   2.0000      -1.158344       -31.5201
  60   2.0000      -1.138754       -30.9871
  61   2.0000      -1.108034       -30.1511
  62   2.0000      -1.100634       -29.9498
  63   2.0000      -1.098133       -29.8817
  64   2.0000      -1.070891       -29.1404
  65   2.0000      -1.051032       -28.6000
  66   2.0000      -1.043417       -28.3928
  67   2.0000      -1.033377       -28.1196
  68   2.0000      -1.014387       -27.6029
  69   2.0000      -1.004762       -27.3410
  70   2.0000      -1.003946       -27.3187
  71   2.0000      -0.992143       -26.9976
  72   2.0000      -0.984228       -26.7822
  73   2.0000      -0.978447       -26.6249
  74   2.0000      -0.964581       -26.2476
  75   2.0000      -0.961944       -26.1758
  76   2.0000      -0.951431       -25.8897
  77   2.0000      -0.941530       -25.6203
  78   2.0000      -0.926529       -25.2121
  79   2.0000      -0.921459       -25.0742
  80   2.0000      -0.914187       -24.8763
  81   2.0000      -0.889393       -24.2016
  82   2.0000      -0.883394       -24.0384
  83   2.0000      -0.870184       -23.6789
  84   2.0000      -0.860803       -23.4236
  85   2.0000      -0.848206       -23.0809
  86   2.0000      -0.832318       -22.6485
  87   2.0000      -0.828209       -22.5367
  88   2.0000      -0.821251       -22.3474
  89   2.0000      -0.794890       -21.6301
  90   2.0000      -0.787417       -21.4267
  91   2.0000      -0.766099       -20.8466
  92   2.0000      -0.733541       -19.9607
  93   2.0000      -0.731785       -19.9129
  94   2.0000      -0.727732       -19.8026
  95   2.0000      -0.721937       -19.6449
  96   2.0000      -0.716736       -19.5034
  97   2.0000      -0.707078       -19.2406
  98   2.0000      -0.704533       -19.1713
  99   2.0000      -0.699998       -19.0479
 100   2.0000      -0.695584       -18.9278
 101   2.0000      -0.689895       -18.7730
 102   2.0000      -0.684131       -18.6162
 103   2.0000      -0.674725       -18.3602
 104   2.0000      -0.673470       -18.3261
 105   2.0000      -0.668396       -18.1880
 106   2.0000      -0.663539       -18.0558
 107   2.0000      -0.663033       -18.0420
 108   2.0000      -0.653208       -17.7747
 109   2.0000      -0.650397       -17.6982
 110   2.0000      -0.648582       -17.6488
 111   2.0000      -0.642905       -17.4943
 112   2.0000      -0.640163       -17.4197
 113   2.0000      -0.637161       -17.3380
 114   2.0000      -0.631083       -17.1726
 115   2.0000      -0.627368       -17.0716
 116   2.0000      -0.626056       -17.0359
 117   2.0000      -0.618731       -16.8365
 118   2.0000      -0.612296       -16.6614
 119   2.0000      -0.610781       -16.6202
 120   2.0000      -0.609543       -16.5865
 121   2.0000      -0.601483       -16.3672
 122   2.0000      -0.590348       -16.0642
 123   2.0000      -0.585455       -15.9311
 124   2.0000      -0.585187       -15.9237
 125   2.0000      -0.579654       -15.7732
 126   2.0000      -0.575982       -15.6733
 127   2.0000      -0.574638       -15.6367
 128   2.0000      -0.571481       -15.5508
 129   2.0000      -0.562915       -15.3177
 130   2.0000      -0.556700       -15.1486
 131   2.0000      -0.547160       -14.8890
 132   2.0000      -0.541870       -14.7450
 133   2.0000      -0.539561       -14.6822
 134   2.0000      -0.534152       -14.5350
 135   2.0000      -0.529864       -14.4183
 136   2.0000      -0.518362       -14.1054
 137   2.0000      -0.516008       -14.0413
 138   2.0000      -0.514406       -13.9977
 139   2.0000      -0.512582       -13.9481
 140   2.0000      -0.510473       -13.8907
 141   2.0000      -0.502982       -13.6868
 142   2.0000      -0.501871       -13.6566
 143   2.0000      -0.499270       -13.5858
 144   2.0000      -0.495083       -13.4719
 145   2.0000      -0.493916       -13.4401
 146   2.0000      -0.490338       -13.3428
 147   2.0000      -0.475796       -12.9471
 148   2.0000      -0.473849       -12.8941
 149   2.0000      -0.465310       -12.6617
 150   2.0000      -0.462031       -12.5725
 151   2.0000      -0.460031       -12.5181
 152   2.0000      -0.451647       -12.2899
 153   2.0000      -0.441502       -12.0139
 154   2.0000      -0.434439       -11.8217
 155   2.0000      -0.432705       -11.7745
 156   2.0000      -0.420218       -11.4347
 157   2.0000      -0.413993       -11.2653
 158   2.0000      -0.412193       -11.2163
 159   2.0000      -0.402900       -10.9635
 160   2.0000      -0.382510       -10.4086
 161   2.0000      -0.370061       -10.0699
 162   2.0000      -0.355051        -9.6614
 163   2.0000      -0.353490        -9.6189
 164   2.0000      -0.346388        -9.4257
 165   2.0000      -0.340525        -9.2662
 166   2.0000      -0.338748        -9.2178
 167   2.0000      -0.321437        -8.7467
 168   2.0000      -0.313556        -8.5323
 169   2.0000      -0.302605        -8.2343
 170   2.0000      -0.298449        -8.1212
 171   2.0000      -0.283160        -7.7052
 172   2.0000      -0.277579        -7.5533
 173   2.0000      -0.265395        -7.2218
 174   2.0000      -0.230934        -6.2840
 175   2.0000      -0.183604        -4.9961
 176   2.0000      -0.173638        -4.7249
 177   2.0000      -0.062338        -1.6963
 178   2.0000      -0.051048        -1.3891
 179   0.0000       0.034969         0.9516
 180   0.0000       0.057044         1.5522
 181   0.0000       0.081285         2.2119
 182   0.0000       0.098178         2.6716
 183   0.0000       0.102228         2.7818

MULLIKEN ATOMIC CHARGES
-----------------------
   0 C :    0.234535
   1 N :   -0.415678
   2 C :   -0.067095
   3 N :   -0.343627
   4 C :   -0.073662
   5 N :   -0.565322
   6 C :   -0.025843
   7 N :   -0.336996
   8 C :    0.230595
   9 N :   -0.566029
  10 C :    0.104199
  11 N :   -0.439472
  12 C :   -0.058483
  13 N :   -0.450610
  14 C :    0.219509
  15 N :   -0.441690
  16 C :    0.255984
  17 C :   -0.032668
  18 C :   -0.174527
  19 C :    0.227877
  20 C :    0.189159
  21 C :   -0.066321
  22 C :   -0.090496
  23 C :   -0.066863
  24 C :    0.217458
  25 C :    0.114783
  26 C :   -0.066596
  27 C :    0.246547
  28 C :   -0.040016
  29 C :   -0.195802
  30 C :    0.221072
  31 C :    0.188981
  32 C :   -0.064257
  33 C :   -0.101924
  34 C :   -0.050044
  35 C :    0.178901
  36 C :    0.120801
  37 C :   -0.070413
  38 C :    0.244808
  39 C :   -0.065589
  40 C :   -0.203638
  41 C :    0.215721
  42 C :    0.211602
  43 C :   -0.077396
  44 C :   -0.091967
  45 C :   -0.038862
  46 C :    0.184758
  47 C :    0.116755
  48 C :   -0.082396
  49 C :    0.208213
  50 C :   -0.066827
  51 C :   -0.189584
  52 H :    0.080390
  53 H :   -0.007443
  54 H :    0.066736
  55 H :    0.079192
  56 H :    0.083565
  57 H :    0.075205
  58 H :    0.073410
  59 H :   -0.028424
  60 H :    0.065033
  61 H :    0.176849
  62 H :    0.168096
  63 H :    0.053047
  64 H :   -0.034445
  65 H :    0.040919
  66 H :    0.055131
  67 H :    0.058530
  68 H :    0.056112
  69 H :    0.059066
  70 H :   -0.014002
  71 H :    0.046905
  72 H :    0.038048
  73 H :   -0.019093
  74 H :    0.029942
  75 H :    0.036693
  76 H :    0.046683
  77 H :    0.046414
  78 H :    0.045615
  79 H :   -0.011571
  80 H :    0.029639
  81 H :    0.050301
  82 H :   -0.023347
  83 H :    0.042513
  84 H :    0.049204
  85 H :    0.054239
  86 H :    0.056249
  87 H :    0.054435
  88 H :   -0.030543
  89 H :    0.039143
Sum of atomic charges:   -0.0000000

LOEWDIN ATOMIC CHARGES
----------------------
   0 C :    0.037490
   1 N :    0.188709
   2 C :   -0.099244
   3 N :    0.171205
   4 C :    0.112415
   5 N :   -0.147205
   6 C :   -0.009052
   7 N :    0.177386
   8 C :    0.034060
   9 N :   -0.138417
  10 C :    0.039245
  11 N :    0.139858
  12 C :   -0.096391
  13 N :    0.114375
  14 C :   -0.061993
  15 N :    0.134553
  16 C :   -0.017720
  17 C :   -0.012704
  18 C :   -0.120021
  19 C :   -0.089434
  20 C :   -0.017419
  21 C :   -0.099061
  22 C :    0.034215
  23 C :   -0.033548
  24 C :    0.007723
  25 C :    0.029378
  26 C :   -0.092879
  27 C :   -0.056470
  28 C :   -0.014875
  29 C :   -0.117022
  30 C :   -0.065080
  31 C :   -0.025335
  32 C :   -0.100062
  33 C :   -0.004760
  34 C :   -0.026315
  35 C :   -0.034325
  36 C :    0.023313
  37 C :   -0.109693
  38 C :   -0.028674
  39 C :   -0.034429
  40 C :   -0.113262
  41 C :   -0.094654
  42 C :    0.000296
  43 C :   -0.114220
  44 C :    0.027316
  45 C :   -0.014640
  46 C :   -0.023069
  47 C :    0.028161
  48 C :   -0.115314
  49 C :   -0.116665
  50 C :   -0.033189
  51 C :   -0.108853
  52 H :    0.041330
  53 H :    0.007497
  54 H :    0.055676
  55 H :    0.041235
  56 H :    0.039308
  57 H :    0.039208
  58 H :    0.039148
  59 H :   -0.000433
  60 H :    0.054736
  61 H :    0.062475
  62 H :    0.057873
  63 H :    0.028844
  64 H :   -0.005079
  65 H :    0.041808
  66 H :    0.030006
  67 H :    0.026503
  68 H :    0.031077
  69 H :    0.031309
  70 H :    0.002876
  71 H :    0.045540
  72 H :    0.022311
  73 H :    0.001854
  74 H :    0.037987
  75 H :    0.021282
  76 H :    0.020258
  77 H :    0.026072
  78 H :    0.025745
  79 H :    0.005633
  80 H :    0.037009
  81 H :    0.027930
  82 H :   -0.001516
  83 H :    0.044024
  84 H :    0.026740
  85 H :    0.024266
  86 H :    0.030294
  87 H :    0.030073
  88 H :   -0.005278
  89 H :    0.040677

  Mayer bond orders larger than 0.100000
B(  0-C ,  1-N ) :   1.1989 B(  0-C , 17-C ) :   1.5270 B(  0-C , 52-H ) :   0.9669
B(  1-N ,  8-C ) :   1.1907 B(  1-N , 10-C ) :   0.9290 B(  2-C , 12-C ) :   1.5759
B(  2-C , 16-C ) :   1.2771 B(  2-C , 53-H ) :   0.9792 B(  3-N , 14-C ) :   1.1763
B(  3-N , 16-C ) :   1.2025 B(  3-N , 61-H ) :   0.8956 B(  4-C ,  6-C ) :   1.3491
B(  4-C , 17-C ) :   1.3519 B(  4-C , 18-C ) :   1.0698 B(  5-N , 19-C ) :   1.3690
B(  5-N , 27-C ) :   1.4451 B(  6-C ,  8-C ) :   1.5312 B(  6-C , 54-H ) :   0.9706
B(  7-N , 30-C ) :   1.1838 B(  7-N , 38-C ) :   1.2152 B(  7-N , 62-H ) :   0.9011
B(  8-C , 55-H ) :   0.9679 B(  9-N , 41-C ) :   1.4318 B(  9-N , 49-C ) :   1.3959
B( 10-C , 56-H ) :   0.9766 B( 10-C , 57-H ) :   0.9809 B( 10-C , 58-H ) :   0.9816
B( 11-N , 20-C ) :   1.0998 B( 11-N , 24-C ) :   1.1350 B( 11-N , 25-C ) :   0.9615
B( 12-C , 14-C ) :   1.2778 B( 12-C , 59-H ) :   0.9772 B( 13-N , 31-C ) :   1.0855
B( 13-N , 35-C ) :   1.0746 B( 13-N , 36-C ) :   0.9807 B( 14-C , 18-C ) :   1.2583
B( 15-N , 42-C ) :   1.1253 B( 15-N , 46-C ) :   1.0913 B( 15-N , 47-C ) :   0.9661
B( 16-C , 51-C ) :   1.2437 B( 17-C , 60-H ) :   0.9710 B( 18-C , 19-C ) :   1.3038
B( 19-C , 21-C ) :   1.1673 B( 20-C , 28-C ) :   1.6273 B( 20-C , 63-H ) :   0.9708
B( 21-C , 26-C ) :   1.6786 B( 21-C , 64-H ) :   0.9721 B( 22-C , 23-C ) :   1.2583
B( 22-C , 28-C ) :   1.2807 B( 22-C , 29-C ) :   1.2526 B( 23-C , 24-C ) :   1.6324
B( 23-C , 65-H ) :   0.9721 B( 24-C , 66-H ) :   0.9690 B( 25-C , 67-H ) :   0.9763
B( 25-C , 68-H ) :   0.9833 B( 25-C , 69-H ) :   0.9819 B( 26-C , 27-C ) :   1.1751
B( 26-C , 70-H ) :   0.9755 B( 27-C , 29-C ) :   1.2407 B( 28-C , 71-H ) :   0.9709
B( 29-C , 30-C ) :   1.1801 B( 30-C , 32-C ) :   1.3463 B( 31-C , 39-C ) :   1.6806
B( 31-C , 72-H ) :   0.9708 B( 32-C , 37-C ) :   1.5135 B( 32-C , 73-H ) :   0.9771
B( 33-C , 34-C ) :   1.2361 B( 33-C , 39-C ) :   1.2278 B( 33-C , 40-C ) :   1.3488
B( 34-C , 35-C ) :   1.6789 B( 34-C , 74-H ) :   0.9709 B( 35-C , 75-H ) :   0.9708
B( 36-C , 76-H ) :   0.9756 B( 36-C , 77-H ) :   0.9825 B( 36-C , 78-H ) :   0.9838
B( 37-C , 38-C ) :   1.3406 B( 37-C , 79-H ) :   0.9792 B( 38-C , 40-C ) :   1.1820
B( 39-C , 80-H ) :   0.9721 B( 40-C , 41-C ) :   1.1714 B( 41-C , 43-C ) :   1.2546
B( 42-C , 50-C ) :   1.6417 B( 42-C , 81-H ) :   0.9696 B( 43-C , 48-C ) :   1.5964
B( 43-C , 82-H ) :   0.9754 B( 44-C , 45-C ) :   1.2798 B( 44-C , 50-C ) :   1.2503
B( 44-C , 51-C ) :   1.2497 B( 45-C , 46-C ) :   1.6333 B( 45-C , 83-H ) :   0.9703
B( 46-C , 84-H ) :   0.9709 B( 47-C , 85-H ) :   0.9760 B( 47-C , 86-H ) :   0.9826
B( 47-C , 87-H ) :   0.9830 B( 48-C , 49-C ) :   1.2493 B( 48-C , 88-H ) :   0.9726
B( 49-C , 51-C ) :   1.1899 B( 50-C , 89-H ) :   0.9722

MP2 TOTAL ENERGY:    -2130.877934618 Eh
FINAL SINGLE POINT ENERGY     -2130.877934617941

DIPOLE MOMENT
-------------
                                X             Y             Z
Electronic contribution:     -4.22861       4.72196      -0.16239
Nuclear contribution   :     -0.01997       0.17013       0.21539
                        -----------------------------------------
Total Dipole Moment    :     -4.24858       4.89209       0.05300
                        -----------------------------------------
Magnitude (a.u.)       :      6.47964
Magnitude (Debye)      :     16.46994

Rotational constants in cm-1:     0.001498     0.001472     0.000763
Rotational constants in MHz :    44.899002    44.142625    22.867720

                             ****ORCA TERMINATED NORMALLY****
TOTAL RUN TIME: 0 days 1 hours 13 minutes 22 seconds 31 msec
