                         Program Version 5.0.4 -  RELEASE  -
|  1> ! PAL2
|  2> ! mp2 cc-pvdz TightSCF  NoKeepInts
|  3>
|  4> %scf
|  5>   MaxCore 2000
|  6> end
|  7> %mp2
|  8>   MaxCore 2000
|  9> end
| 10> * xyz 0 1
| 11>    C       -3.62200         6.07100         1.16200
| 12>    C        1.47400         4.04100         0.05700
| 13>    C       -2.80200         4.09300         0.04900
| 14>    C       -3.60700         4.43900        -1.04800
| 15>    C       -4.38300         5.57900        -1.00600
| 16>    C       -5.20100         7.61100         0.08800
| 17>    C        0.13200         4.30700         0.06100
| 18>    C       -0.56900         3.05600         0.04700
| 19>    C        1.64900         2.61800         0.02300
| 20>    C       -2.82400         4.94300         1.16500
| 21>    N       -4.38700         6.37500         0.08900
| 22>    N        0.38800         2.06700         0.02500
| 23>    N       -2.01000         0.39500        -0.07500
| 24>    N       -0.38800        -2.07400        -0.02700
| 25>    N        2.01000        -0.40100         0.06500
| 26>    C       -1.96000         2.86100         0.02400
| 27>    C       -2.62300         1.61500        -0.01800
| 28>    C       -5.57300        -4.32900         1.06600
| 29>    C       -4.07300         1.47100         0.05600
| 30>    C       -4.10600        -2.75600        -0.02600
| 31>    C       -4.99500        -2.75700        -1.11100
| 32>    C       -6.13200        -3.54200        -1.07600
| 33>    C       -7.65100        -5.11300         0.04000
| 34>    C       -4.32400         0.14100         0.03700
| 35>    C       -3.02500        -0.52000        -0.04800
| 36>    C       -4.42200        -3.56600         1.07500
| 37>    N       -6.40700        -4.31300         0.00100
| 38>    C       -2.86700        -1.92200        -0.04000
| 39>    C       -1.65000        -2.62400        -0.02700
| 40>    C        3.56800        -6.14200        -1.04000
| 41>    C       -1.47600        -4.04900        -0.03400
| 42>    C        2.80300        -4.09900        -0.00800
| 43>    C        3.65700        -4.38400         1.06900
| 44>    C        4.42700        -5.53000         1.05900
| 45>    C        5.24500        -7.58800         0.01400
| 46>    C       -0.13400        -4.31500        -0.02200
| 47>    C        0.56800        -3.06400        -0.02700
| 48>    C        2.77500        -5.01200        -1.07400
| 49>    N        4.37600        -6.39100         0.01700
| 50>    C        1.95900        -2.86900        -0.00900
| 51>    C        2.62100        -1.62200         0.00900
| 52>    C        5.54300         4.33900        -1.13000
| 53>    C        4.07000        -1.47900        -0.09400
| 54>    C        4.10400         2.75100        -0.02100
| 55>    C        5.02700         2.72900         1.03600
| 56>    C        6.16600         3.50900         0.97800
| 57>    C        7.61900         5.15300        -0.11500
| 58>    C        4.32100        -0.14800        -0.09200
| 59>    C        3.02500         0.51400         0.01500
| 60>    C        4.38700         3.58200        -1.11500
| 61>    C        2.86600         1.91600         0.01300
| 62>    N        6.41300         4.29600        -0.09500
| 63>    H       -3.68000         6.74800         2.00600
| 64>    H        2.27400         4.76600         0.08100
| 65>    H       -3.62500         3.82800        -1.94200
| 66>    H       -5.01200         5.89100        -1.82900
| 67>    H       -4.62300         8.41700        -0.36800
| 68>    H       -6.11100         7.43100        -0.48500
| 69>    H       -5.45200         7.86600         1.11700
| 70>    H       -0.33200         5.28200         0.06900
| 71>    H       -2.23600         4.72300         2.04900
| 72>    H        0.18200         1.07200         0.00500
| 73>    H       -0.18300        -1.08000        -0.02100
| 74>    H       -5.86400        -4.96200         1.89500
| 75>    H       -4.79400         2.27200         0.13900
| 76>    H       -4.80000        -2.16000        -1.99400
| 77>    H       -6.84100        -3.58200        -1.89300
| 78>    H       -8.42800        -4.53600         0.54600
| 79>    H       -7.95600        -5.33700        -0.98100
| 80>    H       -7.45600        -6.03700         0.58400
| 81>    H       -5.28700        -0.34400         0.10000
| 82>    H       -3.78000        -3.60100         1.94700
| 83>    H        3.58700        -6.86800        -1.84300
| 84>    H       -2.27600        -4.77400        -0.05000
| 85>    H        3.71400        -3.72400         1.92600
| 86>    H        5.09200        -5.79500         1.87100
| 87>    H        6.20500        -7.32900        -0.43900
| 88>    H        5.39300        -7.91700         1.04200
| 89>    H        4.75900        -8.37300        -0.56400
| 90>    H        0.32900        -5.29000        -0.00800
| 91>    H        2.14600        -4.84200        -1.94000
| 92>    H        5.80800         4.98600        -1.95600
| 93>    H        4.78800        -2.28100        -0.18500
| 94>    H        4.86000         2.11400         1.91200
| 95>    H        6.90100         3.53100         1.77200
| 96>    H        7.38300         6.10900         0.35600
| 97>    H        8.41400         4.65200         0.43500
| 98>    H        7.92100         5.31000        -1.15000
| 99>    H        5.28300         0.33600        -0.17900
|100>    H        3.72000         3.63200        -1.96700
|101> *
|102>
|103>                          ****END OF INPUT****

CARTESIAN COORDINATES (ANGSTROEM)
---------------------------------
  C     -3.622000    6.071000    1.162000
  C      1.474000    4.041000    0.057000
  C     -2.802000    4.093000    0.049000
  C     -3.607000    4.439000   -1.048000
  C     -4.383000    5.579000   -1.006000
  C     -5.201000    7.611000    0.088000
  C      0.132000    4.307000    0.061000
  C     -0.569000    3.056000    0.047000
  C      1.649000    2.618000    0.023000
  C     -2.824000    4.943000    1.165000
  N     -4.387000    6.375000    0.089000
  N      0.388000    2.067000    0.025000
  N     -2.010000    0.395000   -0.075000
  N     -0.388000   -2.074000   -0.027000
  N      2.010000   -0.401000    0.065000
  C     -1.960000    2.861000    0.024000
  C     -2.623000    1.615000   -0.018000
  C     -5.573000   -4.329000    1.066000
  C     -4.073000    1.471000    0.056000
  C     -4.106000   -2.756000   -0.026000
  C     -4.995000   -2.757000   -1.111000
  C     -6.132000   -3.542000   -1.076000
  C     -7.651000   -5.113000    0.040000
  C     -4.324000    0.141000    0.037000
  C     -3.025000   -0.520000   -0.048000
  C     -4.422000   -3.566000    1.075000
  N     -6.407000   -4.313000    0.001000
  C     -2.867000   -1.922000   -0.040000
  C     -1.650000   -2.624000   -0.027000
  C      3.568000   -6.142000   -1.040000
  C     -1.476000   -4.049000   -0.034000
  C      2.803000   -4.099000   -0.008000
  C      3.657000   -4.384000    1.069000
  C      4.427000   -5.530000    1.059000
  C      5.245000   -7.588000    0.014000
  C     -0.134000   -4.315000   -0.022000
  C      0.568000   -3.064000   -0.027000
  C      2.775000   -5.012000   -1.074000
  N      4.376000   -6.391000    0.017000
  C      1.959000   -2.869000   -0.009000
  C      2.621000   -1.622000    0.009000
  C      5.543000    4.339000   -1.130000
  C      4.070000   -1.479000   -0.094000
  C      4.104000    2.751000   -0.021000
  C      5.027000    2.729000    1.036000
  C      6.166000    3.509000    0.978000
  C      7.619000    5.153000   -0.115000
  C      4.321000   -0.148000   -0.092000
  C      3.025000    0.514000    0.015000
  C      4.387000    3.582000   -1.115000
  C      2.866000    1.916000    0.013000
  N      6.413000    4.296000   -0.095000
  H     -3.680000    6.748000    2.006000
  H      2.274000    4.766000    0.081000
  H     -3.625000    3.828000   -1.942000
  H     -5.012000    5.891000   -1.829000
  H     -4.623000    8.417000   -0.368000
  H     -6.111000    7.431000   -0.485000
  H     -5.452000    7.866000    1.117000
  H     -0.332000    5.282000    0.069000
  H     -2.236000    4.723000    2.049000
  H      0.182000    1.072000    0.005000
  H     -0.183000   -1.080000   -0.021000
  H     -5.864000   -4.962000    1.895000
  H     -4.794000    2.272000    0.139000
  H     -4.800000   -2.160000   -1.994000
  H     -6.841000   -3.582000   -1.893000
  H     -8.428000   -4.536000    0.546000
  H     -7.956000   -5.337000   -0.981000
  H     -7.456000   -6.037000    0.584000
  H     -5.287000   -0.344000    0.100000
  H     -3.780000   -3.601000    1.947000
  H      3.587000   -6.868000   -1.843000
  H     -2.276000   -4.774000   -0.050000
  H      3.714000   -3.724000    1.926000
  H      5.092000   -5.795000    1.871000
  H      6.205000   -7.329000   -0.439000
  H      5.393000   -7.917000    1.042000
  H      4.759000   -8.373000   -0.564000
  H      0.329000   -5.290000   -0.008000
  H      2.146000   -4.842000   -1.940000
  H      5.808000    4.986000   -1.956000
  H      4.788000   -2.281000   -0.185000
  H      4.860000    2.114000    1.912000
  H      6.901000    3.531000    1.772000
  H      7.383000    6.109000    0.356000
  H      8.414000    4.652000    0.435000
  H      7.921000    5.310000   -1.150000
  H      5.283000    0.336000   -0.179000
  H      3.720000    3.632000   -1.967000

 Total Charge           Charge          ....    0
 Multiplicity           Mult            ....    1
 Number of Electrons    NEL             ....  358
 Basis Dimension        Dim             ....  918

ORBITAL ENERGIES
----------------

  NO   OCC          E(Eh)            E(eV)
   0   2.0000     -15.643688      -425.6864
   1   2.0000     -15.639378      -425.5691
   2   2.0000     -15.627886      -425.2564
   3   2.0000     -15.623583      -425.1393
   4   2.0000     -15.516002      -422.2119
   5   2.0000     -15.515401      -422.1955
   6   2.0000     -15.445329      -420.2888
   7   2.0000     -15.439719      -420.1361
   8   2.0000     -11.305366      -307.6346
   9   2.0000     -11.302619      -307.5599
  10   2.0000     -11.298633      -307.4514
  11   2.0000     -11.297327      -307.4159
  12   2.0000     -11.295345      -307.3620
  13   2.0000     -11.295294      -307.3606
  14   2.0000     -11.293564      -307.3135
  15   2.0000     -11.292924      -307.2961
  16   2.0000     -11.285631      -307.0976
  17   2.0000     -11.283771      -307.0470
  18   2.0000     -11.282865      -307.0224
  19   2.0000     -11.279911      -306.9420
  20   2.0000     -11.246804      -306.0411
  21   2.0000     -11.242672      -305.9287
  22   2.0000     -11.237097      -305.7770
  23   2.0000     -11.236804      -305.7690
  24   2.0000     -11.234337      -305.7018
  25   2.0000     -11.233628      -305.6826
  26   2.0000     -11.232064      -305.6400
  27   2.0000     -11.228665      -305.5475
  28   2.0000     -11.225657      -305.4657
  29   2.0000     -11.225556      -305.4629
  30   2.0000     -11.222987      -305.3930
  31   2.0000     -11.222142      -305.3700
  32   2.0000     -11.197116      -304.6890
  33   2.0000     -11.196896      -304.6830
  34   2.0000     -11.195567      -304.6469
  35   2.0000     -11.195394      -304.6422
  36   2.0000     -11.175340      -304.0965
  37   2.0000     -11.175317      -304.0958
  38   2.0000     -11.171790      -303.9999
  39   2.0000     -11.170622      -303.9681
  40   2.0000     -11.165462      -303.8277
  41   2.0000     -11.164642      -303.8053
  42   2.0000     -11.164359      -303.7976
  43   2.0000     -11.163298      -303.7688
  44   2.0000     -11.157227      -303.6036
  45   2.0000     -11.155475      -303.5559
  46   2.0000     -11.154602      -303.5322
  47   2.0000     -11.152442      -303.4734
  48   2.0000     -11.147057      -303.3268
  49   2.0000     -11.145505      -303.2846
  50   2.0000     -11.135858      -303.0221
  51   2.0000     -11.134375      -302.9818
  52   2.0000      -1.329216       -36.1698
  53   2.0000      -1.325794       -36.0767
  54   2.0000      -1.315717       -35.8025
  55   2.0000      -1.312317       -35.7100
  56   2.0000      -1.215196       -33.0672
  57   2.0000      -1.212780       -33.0014
  58   2.0000      -1.162939       -31.6452
  59   2.0000      -1.153221       -31.3807
  60   2.0000      -1.117507       -30.4089
  61   2.0000      -1.112497       -30.2726
  62   2.0000      -1.105577       -30.0843
  63   2.0000      -1.100733       -29.9525
  64   2.0000      -1.053036       -28.6546
  65   2.0000      -1.049549       -28.5597
  66   2.0000      -1.040219       -28.3058
  67   2.0000      -1.037194       -28.2235
  68   2.0000      -1.026332       -27.9279
  69   2.0000      -1.011144       -27.5146
  70   2.0000      -1.007093       -27.4044
  71   2.0000      -0.997846       -27.1528
  72   2.0000      -0.979095       -26.6425
  73   2.0000      -0.976919       -26.5833
  74   2.0000      -0.967927       -26.3386
  75   2.0000      -0.961890       -26.1744
  76   2.0000      -0.950883       -25.8748
  77   2.0000      -0.945242       -25.7214
  78   2.0000      -0.935866       -25.4662
  79   2.0000      -0.922917       -25.1138
  80   2.0000      -0.891531       -24.2598
  81   2.0000      -0.879487       -23.9321
  82   2.0000      -0.876003       -23.8373
  83   2.0000      -0.867685       -23.6109
  84   2.0000      -0.864164       -23.5151
  85   2.0000      -0.856597       -23.3092
  86   2.0000      -0.851357       -23.1666
  87   2.0000      -0.840934       -22.8830
  88   2.0000      -0.822028       -22.3685
  89   2.0000      -0.797536       -21.7021
  90   2.0000      -0.797396       -21.6983
  91   2.0000      -0.739014       -20.1096
  92   2.0000      -0.728163       -19.8143
  93   2.0000      -0.727390       -19.7933
  94   2.0000      -0.723037       -19.6748
  95   2.0000      -0.717163       -19.5150
  96   2.0000      -0.710710       -19.3394
  97   2.0000      -0.710302       -19.3283
  98   2.0000      -0.697505       -18.9801
  99   2.0000      -0.690535       -18.7904
 100   2.0000      -0.684421       -18.6240
 101   2.0000      -0.681948       -18.5567
 102   2.0000      -0.680059       -18.5053
 103   2.0000      -0.672223       -18.2921
 104   2.0000      -0.668738       -18.1973
 105   2.0000      -0.667544       -18.1648
 106   2.0000      -0.661211       -17.9925
 107   2.0000      -0.659975       -17.9588
 108   2.0000      -0.658487       -17.9183
 109   2.0000      -0.655544       -17.8383
 110   2.0000      -0.650962       -17.7136
 111   2.0000      -0.649603       -17.6766
 112   2.0000      -0.647926       -17.6310
 113   2.0000      -0.644914       -17.5490
 114   2.0000      -0.633631       -17.2420
 115   2.0000      -0.623185       -16.9577
 116   2.0000      -0.619457       -16.8563
 117   2.0000      -0.616410       -16.7734
 118   2.0000      -0.610792       -16.6205
 119   2.0000      -0.608062       -16.5462
 120   2.0000      -0.607169       -16.5219
 121   2.0000      -0.604861       -16.4591
 122   2.0000      -0.601409       -16.3652
 123   2.0000      -0.594438       -16.1755
 124   2.0000      -0.587691       -15.9919
 125   2.0000      -0.585053       -15.9201
 126   2.0000      -0.577570       -15.7165
 127   2.0000      -0.574975       -15.6459
 128   2.0000      -0.568187       -15.4612
 129   2.0000      -0.564664       -15.3653
 130   2.0000      -0.553233       -15.0542
 131   2.0000      -0.543310       -14.7842
 132   2.0000      -0.540971       -14.7206
 133   2.0000      -0.534614       -14.5476
 134   2.0000      -0.532698       -14.4954
 135   2.0000      -0.529252       -14.4017
 136   2.0000      -0.524167       -14.2633
 137   2.0000      -0.522699       -14.2234
 138   2.0000      -0.519174       -14.1275
 139   2.0000      -0.514956       -14.0127
 140   2.0000      -0.509526       -13.8649
 141   2.0000      -0.505957       -13.7678
 142   2.0000      -0.503480       -13.7004
 143   2.0000      -0.501521       -13.6471
 144   2.0000      -0.497623       -13.5410
 145   2.0000      -0.496838       -13.5196
 146   2.0000      -0.495976       -13.4962
 147   2.0000      -0.494096       -13.4450
 148   2.0000      -0.490009       -13.3338
 149   2.0000      -0.467440       -12.7197
 150   2.0000      -0.459780       -12.5112
 151   2.0000      -0.451322       -12.2811
 152   2.0000      -0.446282       -12.1439
 153   2.0000      -0.445362       -12.1189
 154   2.0000      -0.443784       -12.0760
 155   2.0000      -0.439490       -11.9591
 156   2.0000      -0.434682       -11.8283
 157   2.0000      -0.428803       -11.6683
 158   2.0000      -0.388966       -10.5843
 159   2.0000      -0.383898       -10.4464
 160   2.0000      -0.374643       -10.1946
 161   2.0000      -0.373029       -10.1506
 162   2.0000      -0.362943        -9.8762
 163   2.0000      -0.359843        -9.7918
 164   2.0000      -0.351900        -9.5757
 165   2.0000      -0.349498        -9.5103
 166   2.0000      -0.337735        -9.1902
 167   2.0000      -0.333035        -9.0623
 168   2.0000      -0.325822        -8.8661
 169   2.0000      -0.300119        -8.1666
 170   2.0000      -0.292114        -7.9488
 171   2.0000      -0.290414        -7.9026
 172   2.0000      -0.286848        -7.8055
 173   2.0000      -0.255890        -6.9631
 174   2.0000      -0.245033        -6.6677
 175   2.0000      -0.186926        -5.0865
 176   2.0000      -0.176601        -4.8055
 177   2.0000      -0.063923        -1.7394
 178   2.0000      -0.053360        -1.4520
 179   0.0000       0.032198         0.8761
 180   0.0000       0.069650         1.8953
 181   0.0000       0.092621         2.5204
 182   0.0000       0.095435         2.5969
 183   0.0000       0.131315         3.5733

MULLIKEN ATOMIC CHARGES
-----------------------
   0 C :    0.210140
   1 N :   -0.437154
   2 C :   -0.066351
   3 N :   -0.339573
   4 C :   -0.083308
   5 N :   -0.563092
   6 C :   -0.047722
   7 N :   -0.337848
   8 C :    0.209551
   9 N :   -0.563522
  10 C :    0.112934
  11 N :   -0.437385
  12 C :   -0.064422
  13 N :   -0.442208
  14 C :    0.231434
  15 N :   -0.440583
  16 C :    0.240012
  17 C :   -0.052288
  18 C :   -0.189559
  19 C :    0.225791
  20 C :    0.204962
  21 C :   -0.071506
  22 C :   -0.085431
  23 C :   -0.052795
  24 C :    0.209890
  25 C :    0.113709
  26 C :   -0.072781
  27 C :    0.228319
  28 C :   -0.049104
  29 C :   -0.188043
  30 C :    0.232460
  31 C :    0.206007
  32 C :   -0.065264
  33 C :   -0.086112
  34 C :   -0.049907
  35 C :    0.198368
  36 C :    0.115619
  37 C :   -0.067236
  38 C :    0.238799
  39 C :   -0.062485
  40 C :   -0.192126
  41 C :    0.219195
  42 C :    0.205664
  43 C :   -0.074466
  44 C :   -0.088561
  45 C :   -0.049653
  46 C :    0.200118
  47 C :    0.115674
  48 C :   -0.076957
  49 C :    0.221898
  50 C :   -0.055512
  51 C :   -0.190019
  52 H :    0.059926
  53 H :   -0.013112
  54 H :    0.047359
  55 H :    0.057612
  56 H :    0.063791
  57 H :    0.060374
  58 H :    0.059636
  59 H :   -0.017378
  60 H :    0.049209
  61 H :    0.173564
  62 H :    0.171923
  63 H :    0.056786
  64 H :   -0.023608
  65 H :    0.045825
  66 H :    0.057808
  67 H :    0.062726
  68 H :    0.058152
  69 H :    0.059475
  70 H :   -0.022833
  71 H :    0.048652
  72 H :    0.052244
  73 H :   -0.015612
  74 H :    0.042918
  75 H :    0.051186
  76 H :    0.058497
  77 H :    0.055468
  78 H :    0.054653
  79 H :   -0.013182
  80 H :    0.043054
  81 H :    0.053379
  82 H :   -0.023658
  83 H :    0.043331
  84 H :    0.052724
  85 H :    0.058361
  86 H :    0.056558
  87 H :    0.056518
  88 H :   -0.024271
  89 H :    0.044377
Sum of atomic charges:    0.0000000

LOEWDIN ATOMIC CHARGES
----------------------
   0 C :    0.003529
   1 N :    0.147082
   2 C :   -0.100705
   3 N :    0.176213
   4 C :    0.048452
   5 N :   -0.140012
   6 C :   -0.019215
   7 N :    0.177404
   8 C :    0.002209
   9 N :   -0.138613
  10 C :    0.031060
  11 N :    0.144998
  12 C :   -0.100450
  13 N :    0.135635
  14 C :   -0.048481
  15 N :    0.138493
  16 C :   -0.040305
  17 C :   -0.021999
  18 C :   -0.110721
  19 C :   -0.088413
  20 C :   -0.001984
  21 C :   -0.103122
  22 C :    0.044191
  23 C :   -0.022989
  24 C :    0.002495
  25 C :    0.030509
  26 C :   -0.102633
  27 C :   -0.086393
  28 C :   -0.019059
  29 C :   -0.109565
  30 C :   -0.050169
  31 C :   -0.004583
  32 C :   -0.099515
  33 C :    0.030312
  34 C :   -0.021115
  35 C :   -0.011210
  36 C :    0.028257
  37 C :   -0.102518
  38 C :   -0.038601
  39 C :   -0.027358
  40 C :   -0.109610
  41 C :   -0.094496
  42 C :   -0.003462
  43 C :   -0.106933
  44 C :    0.034448
  45 C :   -0.020576
  46 C :   -0.008259
  47 C :    0.029198
  48 C :   -0.107794
  49 C :   -0.095642
  50 C :   -0.024769
  51 C :   -0.109021
  52 H :    0.031866
  53 H :    0.004766
  54 H :    0.045669
  55 H :    0.031409
  56 H :    0.028911
  57 H :    0.032233
  58 H :    0.032699
  59 H :    0.003226
  60 H :    0.046068
  61 H :    0.060902
  62 H :    0.059976
  63 H :    0.031026
  64 H :   -0.001549
  65 H :    0.044701
  66 H :    0.030796
  67 H :    0.028511
  68 H :    0.032039
  69 H :    0.031635
  70 H :   -0.001386
  71 H :    0.045823
  72 H :    0.028815
  73 H :    0.003473
  74 H :    0.043369
  75 H :    0.028016
  76 H :    0.026308
  77 H :    0.030298
  78 H :    0.029955
  79 H :    0.004730
  80 H :    0.042758
  81 H :    0.028978
  82 H :   -0.001878
  83 H :    0.043784
  84 H :    0.028816
  85 H :    0.026244
  86 H :    0.030546
  87 H :    0.031064
  88 H :   -0.002277
  89 H :    0.043484

  Mayer bond orders larger than 0.100000
B(  0-C ,  1-N ) :   1.1307 B(  0-C , 17-C ) :   1.6159 B(  0-C , 52-H ) :   0.9688
B(  1-N ,  8-C ) :   1.1256 B(  1-N , 10-C ) :   0.9560 B(  2-C , 12-C ) :   1.5437
B(  2-C , 16-C ) :   1.3133 B(  2-C , 53-H ) :   0.9782 B(  3-N , 14-C ) :   1.1966
B(  3-N , 16-C ) :   1.1967 B(  3-N , 61-H ) :   0.8979 B(  4-C ,  6-C ) :   1.2825
B(  4-C , 17-C ) :   1.2816 B(  4-C , 18-C ) :   1.2248 B(  5-N , 19-C ) :   1.4072
B(  5-N , 27-C ) :   1.4151 B(  6-C ,  8-C ) :   1.6175 B(  6-C , 54-H ) :   0.9710
B(  7-N , 30-C ) :   1.1907 B(  7-N , 38-C ) :   1.2047 B(  7-N , 62-H ) :   0.8989
B(  8-C , 55-H ) :   0.9701 B(  9-N , 41-C ) :   1.4128 B(  9-N , 49-C ) :   1.4124
B( 10-C , 56-H ) :   0.9763 B( 10-C , 57-H ) :   0.9822 B( 10-C , 58-H ) :   0.9828
B( 11-N , 20-C ) :   1.1212 B( 11-N , 24-C ) :   1.1282 B( 11-N , 25-C ) :   0.9578
B( 12-C , 14-C ) :   1.3147 B( 12-C , 59-H ) :   0.9778 B( 13-N , 31-C ) :   1.1153
B( 13-N , 35-C ) :   1.1069 B( 13-N , 36-C ) :   0.9645 B( 14-C , 18-C ) :   1.2116
B( 15-N , 42-C ) :   1.1188 B( 15-N , 46-C ) :   1.1109 B( 15-N , 47-C ) :   0.9625
B( 16-C , 51-C ) :   1.2101 B( 17-C , 60-H ) :   0.9714 B( 18-C , 19-C ) :   1.2322
B( 19-C , 21-C ) :   1.2045 B( 20-C , 28-C ) :   1.6218 B( 20-C , 63-H ) :   0.9703
B( 21-C , 26-C ) :   1.6471 B( 21-C , 64-H ) :   0.9739 B( 22-C , 23-C ) :   1.2794
B( 22-C , 28-C ) :   1.2780 B( 22-C , 29-C ) :   1.2328 B( 23-C , 24-C ) :   1.6193
B( 23-C , 65-H ) :   0.9712 B( 24-C , 66-H ) :   0.9690 B( 25-C , 67-H ) :   0.9762
B( 25-C , 68-H ) :   0.9830 B( 25-C , 69-H ) :   0.9820 B( 26-C , 27-C ) :   1.2038
B( 26-C , 70-H ) :   0.9737 B( 27-C , 29-C ) :   1.2294 B( 28-C , 71-H ) :   0.9713
B( 29-C , 30-C ) :   1.2067 B( 30-C , 32-C ) :   1.3182 B( 31-C , 39-C ) :   1.6415
B( 31-C , 72-H ) :   0.9699 B( 32-C , 37-C ) :   1.5400 B( 32-C , 73-H ) :   0.9776
B( 33-C , 34-C ) :   1.2666 B( 33-C , 39-C ) :   1.2590 B( 33-C , 40-C ) :   1.2701
B( 34-C , 35-C ) :   1.6388 B( 34-C , 74-H ) :   0.9706 B( 35-C , 75-H ) :   0.9699
B( 36-C , 76-H ) :   0.9761 B( 36-C , 77-H ) :   0.9822 B( 36-C , 78-H ) :   0.9833
B( 37-C , 38-C ) :   1.3186 B( 37-C , 79-H ) :   0.9781 B( 38-C , 40-C ) :   1.2034
B( 39-C , 80-H ) :   0.9717 B( 40-C , 41-C ) :   1.2073 B( 41-C , 43-C ) :   1.2242
B( 42-C , 50-C ) :   1.6340 B( 42-C , 81-H ) :   0.9695 B( 43-C , 48-C ) :   1.6271
B( 43-C , 82-H ) :   0.9741 B( 44-C , 45-C ) :   1.2734 B( 44-C , 50-C ) :   1.2646
B( 44-C , 51-C ) :   1.2537 B( 45-C , 46-C ) :   1.6315 B( 45-C , 83-H ) :   0.9709
B( 46-C , 84-H ) :   0.9703 B( 47-C , 85-H ) :   0.9761 B( 47-C , 86-H ) :   0.9827
B( 47-C , 87-H ) :   0.9827 B( 48-C , 49-C ) :   1.2226 B( 48-C , 88-H ) :   0.9735
B( 49-C , 51-C ) :   1.2112 B( 50-C , 89-H ) :   0.9715

MP2 TOTAL ENERGY:    -2130.910662233 Eh
FINAL SINGLE POINT ENERGY     -2130.910662233445

DIPOLE MOMENT
-------------
                                X             Y             Z
Electronic contribution:     -1.16101       0.31170      -0.05988
Nuclear contribution   :      0.03222       0.20971       0.07534
                        -----------------------------------------
Total Dipole Moment    :     -1.12878       0.52141       0.01546
                        -----------------------------------------
Magnitude (a.u.)       :      1.24348
Magnitude (Debye)      :      3.16069

Rotational constants in cm-1:     0.001499     0.001473     0.000762
Rotational constants in MHz :    44.942530    44.147413    22.855243

                             ****ORCA TERMINATED NORMALLY****
TOTAL RUN TIME: 0 days 1 hours 11 minutes 26 seconds 711 msec
