                         Program Version 5.0.4 -  RELEASE  -
|  1> ! PAL2
|  2> ! mp2 cc-pvdz TightSCF  NoKeepInts
|  3>
|  4> %scf
|  5>   MaxCore 2000
|  6> end
|  7> %mp2
|  8>   MaxCore 2000
|  9> end
| 10> * xyz 0 1
| 11>    C       -3.04000         6.49300        -0.03300
| 12>    C        1.47400         4.04100         0.05700
| 13>    C       -2.80200         4.09300         0.04900
| 14>    C       -4.19500         4.01100         0.19900
| 15>    C       -4.95800         5.16200         0.22500
| 16>    C       -5.22900         7.59100         0.10700
| 17>    C        0.13200         4.30700         0.06100
| 18>    C       -0.56900         3.05600         0.04700
| 19>    C        1.64900         2.61800         0.02300
| 20>    C       -2.23500         5.37100        -0.07000
| 21>    N       -4.37900         6.38000         0.11400
| 22>    N        0.38800         2.06700         0.02500
| 23>    N       -2.01000         0.39500        -0.07500
| 24>    N       -0.38800        -2.07400        -0.02700
| 25>    N        2.01000        -0.40100         0.06500
| 26>    C       -1.96000         2.86100         0.02400
| 27>    C       -2.62300         1.61500        -0.01800
| 28>    C       -5.57300        -4.32900         1.06600
| 29>    C       -4.07300         1.47100         0.05600
| 30>    C       -4.10600        -2.75600        -0.02600
| 31>    C       -4.99500        -2.75700        -1.11100
| 32>    C       -6.13200        -3.54200        -1.07600
| 33>    C       -7.65100        -5.11300         0.04000
| 34>    C       -4.32400         0.14100         0.03700
| 35>    C       -3.02500        -0.52000        -0.04800
| 36>    C       -4.42200        -3.56600         1.07500
| 37>    N       -6.40700        -4.31300         0.00100
| 38>    C       -2.86700        -1.92200        -0.04000
| 39>    C       -1.65000        -2.62400        -0.02700
| 40>    C        3.56800        -6.14200        -1.04000
| 41>    C       -1.47600        -4.04900        -0.03400
| 42>    C        2.80300        -4.09900        -0.00800
| 43>    C        3.65700        -4.38400         1.06900
| 44>    C        4.42700        -5.53000         1.05900
| 45>    C        5.24500        -7.58800         0.01400
| 46>    C       -0.13400        -4.31500        -0.02200
| 47>    C        0.56800        -3.06400        -0.02700
| 48>    C        2.77500        -5.01200        -1.07400
| 49>    N        4.37600        -6.39100         0.01700
| 50>    C        1.95900        -2.86900        -0.00900
| 51>    C        2.62100        -1.62200         0.00900
| 52>    C        5.54300         4.33900        -1.13000
| 53>    C        4.07000        -1.47900        -0.09400
| 54>    C        4.10400         2.75100        -0.02100
| 55>    C        5.02700         2.72900         1.03600
| 56>    C        6.16600         3.50900         0.97800
| 57>    C        7.61900         5.15300        -0.11500
| 58>    C        4.32100        -0.14800        -0.09200
| 59>    C        3.02500         0.51400         0.01500
| 60>    C        4.38700         3.58200        -1.11500
| 61>    C        2.86600         1.91600         0.01300
| 62>    N        6.41300         4.29600        -0.09500
| 63>    H       -2.64400         7.49900        -0.10900
| 64>    H        2.27400         4.76600         0.08100
| 65>    H       -4.69300         3.05300         0.28600
| 66>    H       -6.03500         5.14800         0.33000
| 67>    H       -5.57400         7.77800        -0.91200
| 68>    H       -6.08000         7.42700         0.76800
| 69>    H       -4.63800         8.43500         0.46300
| 70>    H       -0.33200         5.28200         0.06900
| 71>    H       -1.16400         5.50100        -0.17400
| 72>    H        0.18200         1.07200         0.00500
| 73>    H       -0.18300        -1.08000        -0.02100
| 74>    H       -5.86400        -4.96200         1.89500
| 75>    H       -4.79400         2.27200         0.13900
| 76>    H       -4.80000        -2.16000        -1.99400
| 77>    H       -6.84100        -3.58200        -1.89300
| 78>    H       -8.42800        -4.53600         0.54600
| 79>    H       -7.95600        -5.33700        -0.98100
| 80>    H       -7.45600        -6.03700         0.58400
| 81>    H       -5.28700        -0.34400         0.10000
| 82>    H       -3.78000        -3.60100         1.94700
| 83>    H        3.58700        -6.86800        -1.84300
| 84>    H       -2.27600        -4.77400        -0.05000
| 85>    H        3.71400        -3.72400         1.92600
| 86>    H        5.09200        -5.79500         1.87100
| 87>    H        6.20500        -7.32900        -0.43900
| 88>    H        5.39300        -7.91700         1.04200
| 89>    H        4.75900        -8.37300        -0.56400
| 90>    H        0.32900        -5.29000        -0.00800
| 91>    H        2.14600        -4.84200        -1.94000
| 92>    H        5.80800         4.98600        -1.95600
| 93>    H        4.78800        -2.28100        -0.18500
| 94>    H        4.86000         2.11400         1.91200
| 95>    H        6.90100         3.53100         1.77200
| 96>    H        7.38300         6.10900         0.35600
| 97>    H        8.41400         4.65200         0.43500
| 98>    H        7.92100         5.31000        -1.15000
| 99>    H        5.28300         0.33600        -0.17900
|100>    H        3.72000         3.63200        -1.96700
|101> *
|102>
|103>                          ****END OF INPUT****

CARTESIAN COORDINATES (ANGSTROEM)
---------------------------------
  C     -3.040000    6.493000   -0.033000
  C      1.474000    4.041000    0.057000
  C     -2.802000    4.093000    0.049000
  C     -4.195000    4.011000    0.199000
  C     -4.958000    5.162000    0.225000
  C     -5.229000    7.591000    0.107000
  C      0.132000    4.307000    0.061000
  C     -0.569000    3.056000    0.047000
  C      1.649000    2.618000    0.023000
  C     -2.235000    5.371000   -0.070000
  N     -4.379000    6.380000    0.114000
  N      0.388000    2.067000    0.025000
  N     -2.010000    0.395000   -0.075000
  N     -0.388000   -2.074000   -0.027000
  N      2.010000   -0.401000    0.065000
  C     -1.960000    2.861000    0.024000
  C     -2.623000    1.615000   -0.018000
  C     -5.573000   -4.329000    1.066000
  C     -4.073000    1.471000    0.056000
  C     -4.106000   -2.756000   -0.026000
  C     -4.995000   -2.757000   -1.111000
  C     -6.132000   -3.542000   -1.076000
  C     -7.651000   -5.113000    0.040000
  C     -4.324000    0.141000    0.037000
  C     -3.025000   -0.520000   -0.048000
  C     -4.422000   -3.566000    1.075000
  N     -6.407000   -4.313000    0.001000
  C     -2.867000   -1.922000   -0.040000
  C     -1.650000   -2.624000   -0.027000
  C      3.568000   -6.142000   -1.040000
  C     -1.476000   -4.049000   -0.034000
  C      2.803000   -4.099000   -0.008000
  C      3.657000   -4.384000    1.069000
  C      4.427000   -5.530000    1.059000
  C      5.245000   -7.588000    0.014000
  C     -0.134000   -4.315000   -0.022000
  C      0.568000   -3.064000   -0.027000
  C      2.775000   -5.012000   -1.074000
  N      4.376000   -6.391000    0.017000
  C      1.959000   -2.869000   -0.009000
  C      2.621000   -1.622000    0.009000
  C      5.543000    4.339000   -1.130000
  C      4.070000   -1.479000   -0.094000
  C      4.104000    2.751000   -0.021000
  C      5.027000    2.729000    1.036000
  C      6.166000    3.509000    0.978000
  C      7.619000    5.153000   -0.115000
  C      4.321000   -0.148000   -0.092000
  C      3.025000    0.514000    0.015000
  C      4.387000    3.582000   -1.115000
  C      2.866000    1.916000    0.013000
  N      6.413000    4.296000   -0.095000
  H     -2.644000    7.499000   -0.109000
  H      2.274000    4.766000    0.081000
  H     -4.693000    3.053000    0.286000
  H     -6.035000    5.148000    0.330000
  H     -5.574000    7.778000   -0.912000
  H     -6.080000    7.427000    0.768000
  H     -4.638000    8.435000    0.463000
  H     -0.332000    5.282000    0.069000
  H     -1.164000    5.501000   -0.174000
  H      0.182000    1.072000    0.005000
  H     -0.183000   -1.080000   -0.021000
  H     -5.864000   -4.962000    1.895000
  H     -4.794000    2.272000    0.139000
  H     -4.800000   -2.160000   -1.994000
  H     -6.841000   -3.582000   -1.893000
  H     -8.428000   -4.536000    0.546000
  H     -7.956000   -5.337000   -0.981000
  H     -7.456000   -6.037000    0.584000
  H     -5.287000   -0.344000    0.100000
  H     -3.780000   -3.601000    1.947000
  H      3.587000   -6.868000   -1.843000
  H     -2.276000   -4.774000   -0.050000
  H      3.714000   -3.724000    1.926000
  H      5.092000   -5.795000    1.871000
  H      6.205000   -7.329000   -0.439000
  H      5.393000   -7.917000    1.042000
  H      4.759000   -8.373000   -0.564000
  H      0.329000   -5.290000   -0.008000
  H      2.146000   -4.842000   -1.940000
  H      5.808000    4.986000   -1.956000
  H      4.788000   -2.281000   -0.185000
  H      4.860000    2.114000    1.912000
  H      6.901000    3.531000    1.772000
  H      7.383000    6.109000    0.356000
  H      8.414000    4.652000    0.435000
  H      7.921000    5.310000   -1.150000
  H      5.283000    0.336000   -0.179000
  H      3.720000    3.632000   -1.967000

 Total Charge           Charge          ....    0
 Multiplicity           Mult            ....    1
 Number of Electrons    NEL             ....  358
 Basis Dimension        Dim             ....  918

ORBITAL ENERGIES
----------------

  NO   OCC          E(Eh)            E(eV)
   0   2.0000     -15.679839      -426.6701
   1   2.0000     -15.632824      -425.3908
   2   2.0000     -15.632814      -425.3905
   3   2.0000     -15.588358      -424.1808
   4   2.0000     -15.524801      -422.4513
   5   2.0000     -15.515422      -422.1961
   6   2.0000     -15.453970      -420.5239
   7   2.0000     -15.439329      -420.1255
   8   2.0000     -11.329328      -308.2867
   9   2.0000     -11.328526      -308.2649
  10   2.0000     -11.327952      -308.2492
  11   2.0000     -11.298983      -307.4610
  12   2.0000     -11.298625      -307.4512
  13   2.0000     -11.292075      -307.2730
  14   2.0000     -11.292071      -307.2729
  15   2.0000     -11.287326      -307.1438
  16   2.0000     -11.285522      -307.0947
  17   2.0000     -11.282067      -307.0007
  18   2.0000     -11.269691      -306.6639
  19   2.0000     -11.263349      -306.4913
  20   2.0000     -11.262347      -306.4640
  21   2.0000     -11.251601      -306.1716
  22   2.0000     -11.247769      -306.0674
  23   2.0000     -11.237540      -305.7890
  24   2.0000     -11.236641      -305.7646
  25   2.0000     -11.230463      -305.5964
  26   2.0000     -11.230297      -305.5919
  27   2.0000     -11.230286      -305.5916
  28   2.0000     -11.229569      -305.5721
  29   2.0000     -11.210664      -305.0577
  30   2.0000     -11.209228      -305.0186
  31   2.0000     -11.194084      -304.6065
  32   2.0000     -11.192123      -304.5532
  33   2.0000     -11.191291      -304.5305
  34   2.0000     -11.188766      -304.4618
  35   2.0000     -11.188151      -304.4451
  36   2.0000     -11.187269      -304.4211
  37   2.0000     -11.174344      -304.0694
  38   2.0000     -11.172576      -304.0213
  39   2.0000     -11.171628      -303.9954
  40   2.0000     -11.171371      -303.9885
  41   2.0000     -11.167898      -303.8940
  42   2.0000     -11.166779      -303.8635
  43   2.0000     -11.162142      -303.7373
  44   2.0000     -11.161004      -303.7064
  45   2.0000     -11.157097      -303.6000
  46   2.0000     -11.156168      -303.5748
  47   2.0000     -11.150894      -303.4312
  48   2.0000     -11.147301      -303.3335
  49   2.0000     -11.135548      -303.0137
  50   2.0000     -11.129438      -302.8474
  51   2.0000     -11.117757      -302.5295
  52   2.0000      -1.360413       -37.0187
  53   2.0000      -1.320461       -35.9316
  54   2.0000      -1.320233       -35.9254
  55   2.0000      -1.280520       -34.8447
  56   2.0000      -1.225856       -33.3572
  57   2.0000      -1.210394       -32.9365
  58   2.0000      -1.173685       -31.9376
  59   2.0000      -1.150642       -31.3106
  60   2.0000      -1.143664       -31.1207
  61   2.0000      -1.110322       -30.2134
  62   2.0000      -1.108800       -30.1720
  63   2.0000      -1.082089       -29.4451
  64   2.0000      -1.077450       -29.3189
  65   2.0000      -1.045061       -28.4375
  66   2.0000      -1.044476       -28.4216
  67   2.0000      -1.041082       -28.3293
  68   2.0000      -1.014910       -27.6171
  69   2.0000      -1.014780       -27.6136
  70   2.0000      -1.009106       -27.4592
  71   2.0000      -0.993245       -27.0276
  72   2.0000      -0.985698       -26.8222
  73   2.0000      -0.981699       -26.7134
  74   2.0000      -0.973826       -26.4992
  75   2.0000      -0.962480       -26.1904
  76   2.0000      -0.955041       -25.9880
  77   2.0000      -0.946814       -25.7641
  78   2.0000      -0.939800       -25.5732
  79   2.0000      -0.916792       -24.9472
  80   2.0000      -0.910604       -24.7788
  81   2.0000      -0.898194       -24.4411
  82   2.0000      -0.877155       -23.8686
  83   2.0000      -0.871697       -23.7201
  84   2.0000      -0.871216       -23.7070
  85   2.0000      -0.861566       -23.4444
  86   2.0000      -0.846191       -23.0260
  87   2.0000      -0.837445       -22.7880
  88   2.0000      -0.829292       -22.5662
  89   2.0000      -0.796350       -21.6698
  90   2.0000      -0.789299       -21.4779
  91   2.0000      -0.774155       -21.0658
  92   2.0000      -0.753039       -20.4912
  93   2.0000      -0.733919       -19.9709
  94   2.0000      -0.728316       -19.8185
  95   2.0000      -0.726886       -19.7796
  96   2.0000      -0.720365       -19.6021
  97   2.0000      -0.717903       -19.5351
  98   2.0000      -0.714303       -19.4372
  99   2.0000      -0.699993       -19.0478
 100   2.0000      -0.698205       -18.9991
 101   2.0000      -0.694703       -18.9038
 102   2.0000      -0.685373       -18.6499
 103   2.0000      -0.684373       -18.6227
 104   2.0000      -0.678774       -18.4704
 105   2.0000      -0.674568       -18.3559
 106   2.0000      -0.672886       -18.3102
 107   2.0000      -0.661078       -17.9889
 108   2.0000      -0.658128       -17.9086
 109   2.0000      -0.652831       -17.7644
 110   2.0000      -0.652036       -17.7428
 111   2.0000      -0.646212       -17.5843
 112   2.0000      -0.645742       -17.5715
 113   2.0000      -0.637911       -17.3585
 114   2.0000      -0.635604       -17.2957
 115   2.0000      -0.628901       -17.1133
 116   2.0000      -0.623352       -16.9623
 117   2.0000      -0.620912       -16.8959
 118   2.0000      -0.612824       -16.6758
 119   2.0000      -0.612222       -16.6594
 120   2.0000      -0.611583       -16.6420
 121   2.0000      -0.611449       -16.6384
 122   2.0000      -0.601721       -16.3737
 123   2.0000      -0.589147       -16.0315
 124   2.0000      -0.581369       -15.8198
 125   2.0000      -0.580871       -15.8063
 126   2.0000      -0.580187       -15.7877
 127   2.0000      -0.571114       -15.5408
 128   2.0000      -0.566665       -15.4197
 129   2.0000      -0.560035       -15.2393
 130   2.0000      -0.555478       -15.1153
 131   2.0000      -0.547774       -14.9057
 132   2.0000      -0.542661       -14.7666
 133   2.0000      -0.540162       -14.6985
 134   2.0000      -0.538367       -14.6497
 135   2.0000      -0.536430       -14.5970
 136   2.0000      -0.531789       -14.4707
 137   2.0000      -0.518282       -14.1032
 138   2.0000      -0.516423       -14.0526
 139   2.0000      -0.514606       -14.0031
 140   2.0000      -0.512145       -13.9362
 141   2.0000      -0.509888       -13.8748
 142   2.0000      -0.507238       -13.8027
 143   2.0000      -0.505700       -13.7608
 144   2.0000      -0.502584       -13.6760
 145   2.0000      -0.495638       -13.4870
 146   2.0000      -0.488229       -13.2854
 147   2.0000      -0.481083       -13.0909
 148   2.0000      -0.476857       -12.9759
 149   2.0000      -0.467792       -12.7293
 150   2.0000      -0.466235       -12.6869
 151   2.0000      -0.456483       -12.4215
 152   2.0000      -0.451678       -12.2908
 153   2.0000      -0.445073       -12.1110
 154   2.0000      -0.437997       -11.9185
 155   2.0000      -0.427691       -11.6381
 156   2.0000      -0.409295       -11.1375
 157   2.0000      -0.391207       -10.6453
 158   2.0000      -0.388815       -10.5802
 159   2.0000      -0.387430       -10.5425
 160   2.0000      -0.378523       -10.3001
 161   2.0000      -0.372737       -10.1427
 162   2.0000      -0.358927        -9.7669
 163   2.0000      -0.356650        -9.7049
 164   2.0000      -0.355754        -9.6806
 165   2.0000      -0.342009        -9.3065
 166   2.0000      -0.337548        -9.1852
 167   2.0000      -0.324504        -8.8302
 168   2.0000      -0.321568        -8.7503
 169   2.0000      -0.305037        -8.3005
 170   2.0000      -0.299389        -8.1468
 171   2.0000      -0.285897        -7.7797
 172   2.0000      -0.278314        -7.5733
 173   2.0000      -0.263705        -7.1758
 174   2.0000      -0.242114        -6.5883
 175   2.0000      -0.189947        -5.1687
 176   2.0000      -0.181319        -4.9339
 177   2.0000      -0.079948        -2.1755
 178   2.0000      -0.059738        -1.6256
 179   0.0000       0.028460         0.7744
 180   0.0000       0.065409         1.7799
 181   0.0000       0.090204         2.4546
 182   0.0000       0.106250         2.8912
 183   0.0000       0.116747         3.1769

MULLIKEN ATOMIC CHARGES
-----------------------
   0 C :    0.224208
   1 N :   -0.454447
   2 C :   -0.069480
   3 N :   -0.341594
   4 C :   -0.106379
   5 N :   -0.568720
   6 C :   -0.093068
   7 N :   -0.341053
   8 C :    0.216739
   9 N :   -0.562235
  10 C :    0.119349
  11 N :   -0.438699
  12 C :   -0.051901
  13 N :   -0.429342
  14 C :    0.215954
  15 N :   -0.440680
  16 C :    0.233141
  17 C :   -0.109084
  18 C :   -0.180693
  19 C :    0.213779
  20 C :    0.213270
  21 C :   -0.054510
  22 C :   -0.091191
  23 C :   -0.039562
  24 C :    0.192880
  25 C :    0.114757
  26 C :   -0.084341
  27 C :    0.218725
  28 C :   -0.061937
  29 C :   -0.182776
  30 C :    0.245583
  31 C :    0.230004
  32 C :   -0.061523
  33 C :   -0.059950
  34 C :   -0.051609
  35 C :    0.229123
  36 C :    0.108190
  37 C :   -0.064524
  38 C :    0.230779
  39 C :   -0.057290
  40 C :   -0.181849
  41 C :    0.226457
  42 C :    0.197531
  43 C :   -0.072544
  44 C :   -0.089117
  45 C :   -0.061661
  46 C :    0.212370
  47 C :    0.115214
  48 C :   -0.066410
  49 C :    0.238374
  50 C :   -0.046006
  51 C :   -0.192577
  52 H :    0.034157
  53 H :   -0.018558
  54 H :    0.060309
  55 H :    0.031505
  56 H :    0.049474
  57 H :    0.047767
  58 H :    0.046424
  59 H :   -0.018786
  60 H :    0.046750
  61 H :    0.171133
  62 H :    0.175377
  63 H :    0.054842
  64 H :   -0.045037
  65 H :    0.046707
  66 H :    0.055120
  67 H :    0.062027
  68 H :    0.056953
  69 H :    0.056063
  70 H :   -0.030904
  71 H :    0.044363
  72 H :    0.071465
  73 H :   -0.007918
  74 H :    0.060532
  75 H :    0.070956
  76 H :    0.075084
  77 H :    0.068119
  78 H :    0.067464
  79 H :   -0.016896
  80 H :    0.061538
  81 H :    0.054764
  82 H :   -0.024830
  83 H :    0.042330
  84 H :    0.054637
  85 H :    0.061240
  86 H :    0.055801
  87 H :    0.057505
  88 H :   -0.014402
  89 H :    0.047251
Sum of atomic charges:   -0.0000000

LOEWDIN ATOMIC CHARGES
----------------------
   0 C :   -0.016571
   1 N :    0.122946
   2 C :   -0.099897
   3 N :    0.182227
   4 C :   -0.010405
   5 N :   -0.134823
   6 C :   -0.010694
   7 N :    0.174990
   8 C :   -0.022574
   9 N :   -0.140617
  10 C :    0.022837
  11 N :    0.141216
  12 C :   -0.097048
  13 N :    0.166501
  14 C :   -0.014825
  15 N :    0.139462
  16 C :   -0.061428
  17 C :   -0.027925
  18 C :   -0.115016
  19 C :   -0.072878
  20 C :    0.004240
  21 C :   -0.093370
  22 C :    0.036237
  23 C :   -0.014666
  24 C :   -0.013642
  25 C :    0.029643
  26 C :   -0.107528
  27 C :   -0.117116
  28 C :   -0.027995
  29 C :   -0.099487
  30 C :   -0.029676
  31 C :    0.024232
  32 C :   -0.094448
  33 C :    0.082540
  34 C :   -0.015381
  35 C :    0.023800
  36 C :    0.035298
  37 C :   -0.094190
  38 C :   -0.052798
  39 C :   -0.017303
  40 C :   -0.109113
  41 C :   -0.090403
  42 C :   -0.010088
  43 C :   -0.099226
  44 C :    0.034756
  45 C :   -0.028141
  46 C :    0.002816
  47 C :    0.029656
  48 C :   -0.094362
  49 C :   -0.069516
  50 C :   -0.018352
  51 C :   -0.107937
  52 H :    0.022320
  53 H :    0.002434
  54 H :   -0.022675
  55 H :    0.021477
  56 H :    0.021899
  57 H :    0.026371
  58 H :    0.026644
  59 H :    0.002037
  60 H :   -0.007297
  61 H :    0.060265
  62 H :    0.061860
  63 H :    0.030535
  64 H :   -0.002850
  65 H :    0.045734
  66 H :    0.028991
  67 H :    0.028019
  68 H :    0.031496
  69 H :    0.030150
  70 H :   -0.004959
  71 H :    0.043280
  72 H :    0.037770
  73 H :    0.007185
  74 H :    0.050717
  75 H :    0.037512
  76 H :    0.034893
  77 H :    0.036244
  78 H :    0.035946
  79 H :    0.002825
  80 H :    0.050873
  81 H :    0.029251
  82 H :   -0.002720
  83 H :    0.042666
  84 H :    0.030105
  85 H :    0.027572
  86 H :    0.030304
  87 H :    0.031540
  88 H :    0.002436
  89 H :    0.045194

  Mayer bond orders larger than 0.100000
B(  0-C ,  1-N ) :   1.1039 B(  0-C , 17-C ) :   1.7191 B(  0-C , 52-H ) :   0.9602
B(  1-N ,  8-C ) :   1.0910 B(  1-N , 10-C ) :   0.9771 B(  2-C , 12-C ) :   1.4867
B(  2-C , 16-C ) :   1.3757 B(  2-C , 53-H ) :   0.9711 B(  3-N , 14-C ) :   1.2242
B(  3-N , 16-C ) :   1.1777 B(  3-N , 61-H ) :   0.8980 B(  4-C ,  6-C ) :   1.2247
B(  4-C , 17-C ) :   1.2266 B(  4-C , 18-C ) :   1.4839 B(  5-N , 19-C ) :   1.4644
B(  5-N , 27-C ) :   1.3682 B(  6-C ,  8-C ) :   1.7362 B(  6-C , 54-H ) :   0.8421
B(  7-N , 30-C ) :   1.1954 B(  7-N , 38-C ) :   1.1893 B(  7-N , 62-H ) :   0.8968
B(  8-C , 55-H ) :   0.9598 B(  9-N , 41-C ) :   1.3955 B(  9-N , 49-C ) :   1.4238
B( 10-C , 56-H ) :   0.9777 B( 10-C , 57-H ) :   0.9823 B( 10-C , 58-H ) :   0.9838
B( 11-N , 20-C ) :   1.1304 B( 11-N , 24-C ) :   1.1056 B( 11-N , 25-C ) :   0.9607
B( 12-C , 14-C ) :   1.3594 B( 12-C , 59-H ) :   0.9148 B( 13-N , 31-C ) :   1.1613
B( 13-N , 35-C ) :   1.1613 B( 13-N , 36-C ) :   0.9412 B( 14-C , 18-C ) :   1.1176
B( 15-N , 42-C ) :   1.1084 B( 15-N , 46-C ) :   1.1257 B( 15-N , 47-C ) :   0.9608
B( 16-C , 51-C ) :   1.1684 B( 17-C , 60-H ) :   0.8767 B( 18-C , 19-C ) :   1.1152
B( 19-C , 21-C ) :   1.2556 B( 20-C , 28-C ) :   1.6298 B( 20-C , 63-H ) :   0.9703
B( 21-C , 26-C ) :   1.5756 B( 21-C , 64-H ) :   0.8821 B( 22-C , 23-C ) :   1.2885
B( 22-C , 28-C ) :   1.2626 B( 22-C , 29-C ) :   1.2280 B( 23-C , 24-C ) :   1.6213
B( 23-C , 65-H ) :   0.9703 B( 24-C , 66-H ) :   0.9696 B( 25-C , 67-H ) :   0.9760
B( 25-C , 68-H ) :   0.9828 B( 25-C , 69-H ) :   0.9824 B( 26-C , 27-C ) :   1.2689
B( 26-C , 70-H ) :   0.9656 B( 27-C , 29-C ) :   1.2050 B( 28-C , 71-H ) :   0.9720
B( 29-C , 30-C ) :   1.2469 B( 30-C , 32-C ) :   1.2791 B( 31-C , 39-C ) :   1.5873
B( 31-C , 72-H ) :   0.9681 B( 32-C , 37-C ) :   1.5796 B( 32-C , 73-H ) :   0.9787
B( 33-C , 34-C ) :   1.3066 B( 33-C , 39-C ) :   1.3047 B( 33-C , 40-C ) :   1.1761
B( 34-C , 35-C ) :   1.5853 B( 34-C , 74-H ) :   0.9696 B( 35-C , 75-H ) :   0.9681
B( 36-C , 76-H ) :   0.9768 B( 36-C , 77-H ) :   0.9816 B( 36-C , 78-H ) :   0.9823
B( 37-C , 38-C ) :   1.2854 B( 37-C , 79-H ) :   0.9764 B( 38-C , 40-C ) :   1.2338
B( 39-C , 80-H ) :   0.9705 B( 40-C , 41-C ) :   1.2505 B( 41-C , 43-C ) :   1.1836
B( 42-C , 50-C ) :   1.6317 B( 42-C , 81-H ) :   0.9696 B( 43-C , 48-C ) :   1.6695
B( 43-C , 82-H ) :   0.9721 B( 44-C , 45-C ) :   1.2642 B( 44-C , 50-C ) :   1.2737
B( 44-C , 51-C ) :   1.2584 B( 45-C , 46-C ) :   1.6334 B( 45-C , 83-H ) :   0.9718
B( 46-C , 84-H ) :   0.9700 B( 47-C , 85-H ) :   0.9762 B( 47-C , 86-H ) :   0.9829
B( 47-C , 87-H ) :   0.9824 B( 48-C , 49-C ) :   1.1869 B( 48-C , 88-H ) :   0.9748
B( 49-C , 51-C ) :   1.2467 B( 50-C , 89-H ) :   0.9708 B( 54-H , 64-H ) :   0.1418

MP2 TOTAL ENERGY:    -2130.742977355 Eh
FINAL SINGLE POINT ENERGY     -2130.742977354728

DIPOLE MOMENT
-------------
                                X             Y             Z
Electronic contribution:      2.93764      -4.23148      -0.08942
Nuclear contribution   :     -0.03977       0.15976       0.10681
                        -----------------------------------------
Total Dipole Moment    :      2.89786      -4.07171       0.01739
                        -----------------------------------------
Magnitude (a.u.)       :      4.99767
Magnitude (Debye)      :     12.70308

Rotational constants in cm-1:     0.001503     0.001478     0.000760
Rotational constants in MHz :    45.071988    44.300631    22.781418

                             ****ORCA TERMINATED NORMALLY****
TOTAL RUN TIME: 0 days 1 hours 29 minutes 34 seconds 251 msec
