                         Program Version 5.0.4 -  RELEASE  -
|  1> ! PAL2
|  2> ! mp2 cc-pvdz TightSCF  NoKeepInts
|  3>
|  4> %scf
|  5>   MaxCore 2000
|  6> end
|  7> %mp2
|  8>   MaxCore 2000
|  9> end
| 10> * xyz 0 1
| 11>    C       -3.07200         6.46200         0.42400
| 12>    C        1.47400         4.04100         0.05700
| 13>    C       -2.80200         4.09300         0.04900
| 14>    C       -4.16700         4.04000        -0.27400
| 15>    C       -4.93200         5.18900        -0.24100
| 16>    C       -5.22300         7.59600         0.09700
| 17>    C        0.13200         4.30700         0.06100
| 18>    C       -0.56900         3.05600         0.04700
| 19>    C        1.64900         2.61800         0.02300
| 20>    C       -2.26500         5.34100         0.40000
| 21>    N       -4.38400         6.37600         0.10800
| 22>    N        0.38800         2.06700         0.02500
| 23>    N       -2.01000         0.39500        -0.07500
| 24>    N       -0.38800        -2.07400        -0.02700
| 25>    N        2.01000        -0.40100         0.06500
| 26>    C       -1.96000         2.86100         0.02400
| 27>    C       -2.62300         1.61500        -0.01800
| 28>    C       -5.57300        -4.32900         1.06600
| 29>    C       -4.07300         1.47100         0.05600
| 30>    C       -4.10600        -2.75600        -0.02600
| 31>    C       -4.99500        -2.75700        -1.11100
| 32>    C       -6.13200        -3.54200        -1.07600
| 33>    C       -7.65100        -5.11300         0.04000
| 34>    C       -4.32400         0.14100         0.03700
| 35>    C       -3.02500        -0.52000        -0.04800
| 36>    C       -4.42200        -3.56600         1.07500
| 37>    N       -6.40700        -4.31300         0.00100
| 38>    C       -2.86700        -1.92200        -0.04000
| 39>    C       -1.65000        -2.62400        -0.02700
| 40>    C        3.56800        -6.14200        -1.04000
| 41>    C       -1.47600        -4.04900        -0.03400
| 42>    C        2.80300        -4.09900        -0.00800
| 43>    C        3.65700        -4.38400         1.06900
| 44>    C        4.42700        -5.53000         1.05900
| 45>    C        5.24500        -7.58800         0.01400
| 46>    C       -0.13400        -4.31500        -0.02200
| 47>    C        0.56800        -3.06400        -0.02700
| 48>    C        2.77500        -5.01200        -1.07400
| 49>    N        4.37600        -6.39100         0.01700
| 50>    C        1.95900        -2.86900        -0.00900
| 51>    C        2.62100        -1.62200         0.00900
| 52>    C        5.54300         4.33900        -1.13000
| 53>    C        4.07000        -1.47900        -0.09400
| 54>    C        4.10400         2.75100        -0.02100
| 55>    C        5.02700         2.72900         1.03600
| 56>    C        6.16600         3.50900         0.97800
| 57>    C        7.61900         5.15300        -0.11500
| 58>    C        4.32100        -0.14800        -0.09200
| 59>    C        3.02500         0.51400         0.01500
| 60>    C        4.38700         3.58200        -1.11500
| 61>    C        2.86600         1.91600         0.01300
| 62>    N        6.41300         4.29600        -0.09500
| 63>    H       -2.70400         7.44200         0.70000
| 64>    H        2.27400         4.76600         0.08100
| 65>    H       -4.63700         3.10800        -0.56200
| 66>    H       -5.98500         5.19900        -0.49000
| 67>    H       -5.23000         8.01400        -0.91200
| 68>    H       -6.23500         7.32800         0.39900
| 69>    H       -4.80200         8.31600         0.79700
| 70>    H       -0.33200         5.28200         0.06900
| 71>    H       -1.22100         5.44500         0.67300
| 72>    H        0.18200         1.07200         0.00500
| 73>    H       -0.18300        -1.08000        -0.02100
| 74>    H       -5.86400        -4.96200         1.89500
| 75>    H       -4.79400         2.27200         0.13900
| 76>    H       -4.80000        -2.16000        -1.99400
| 77>    H       -6.84100        -3.58200        -1.89300
| 78>    H       -8.42800        -4.53600         0.54600
| 79>    H       -7.95600        -5.33700        -0.98100
| 80>    H       -7.45600        -6.03700         0.58400
| 81>    H       -5.28700        -0.34400         0.10000
| 82>    H       -3.78000        -3.60100         1.94700
| 83>    H        3.58700        -6.86800        -1.84300
| 84>    H       -2.27600        -4.77400        -0.05000
| 85>    H        3.71400        -3.72400         1.92600
| 86>    H        5.09200        -5.79500         1.87100
| 87>    H        6.20500        -7.32900        -0.43900
| 88>    H        5.39300        -7.91700         1.04200
| 89>    H        4.75900        -8.37300        -0.56400
| 90>    H        0.32900        -5.29000        -0.00800
| 91>    H        2.14600        -4.84200        -1.94000
| 92>    H        5.80800         4.98600        -1.95600
| 93>    H        4.78800        -2.28100        -0.18500
| 94>    H        4.86000         2.11400         1.91200
| 95>    H        6.90100         3.53100         1.77200
| 96>    H        7.38300         6.10900         0.35600
| 97>    H        8.41400         4.65200         0.43500
| 98>    H        7.92100         5.31000        -1.15000
| 99>    H        5.28300         0.33600        -0.17900
|100>    H        3.72000         3.63200        -1.96700
|101> *
|102>
|103>                          ****END OF INPUT****

CARTESIAN COORDINATES (ANGSTROEM)
---------------------------------
  C     -3.072000    6.462000    0.424000
  C      1.474000    4.041000    0.057000
  C     -2.802000    4.093000    0.049000
  C     -4.167000    4.040000   -0.274000
  C     -4.932000    5.189000   -0.241000
  C     -5.223000    7.596000    0.097000
  C      0.132000    4.307000    0.061000
  C     -0.569000    3.056000    0.047000
  C      1.649000    2.618000    0.023000
  C     -2.265000    5.341000    0.400000
  N     -4.384000    6.376000    0.108000
  N      0.388000    2.067000    0.025000
  N     -2.010000    0.395000   -0.075000
  N     -0.388000   -2.074000   -0.027000
  N      2.010000   -0.401000    0.065000
  C     -1.960000    2.861000    0.024000
  C     -2.623000    1.615000   -0.018000
  C     -5.573000   -4.329000    1.066000
  C     -4.073000    1.471000    0.056000
  C     -4.106000   -2.756000   -0.026000
  C     -4.995000   -2.757000   -1.111000
  C     -6.132000   -3.542000   -1.076000
  C     -7.651000   -5.113000    0.040000
  C     -4.324000    0.141000    0.037000
  C     -3.025000   -0.520000   -0.048000
  C     -4.422000   -3.566000    1.075000
  N     -6.407000   -4.313000    0.001000
  C     -2.867000   -1.922000   -0.040000
  C     -1.650000   -2.624000   -0.027000
  C      3.568000   -6.142000   -1.040000
  C     -1.476000   -4.049000   -0.034000
  C      2.803000   -4.099000   -0.008000
  C      3.657000   -4.384000    1.069000
  C      4.427000   -5.530000    1.059000
  C      5.245000   -7.588000    0.014000
  C     -0.134000   -4.315000   -0.022000
  C      0.568000   -3.064000   -0.027000
  C      2.775000   -5.012000   -1.074000
  N      4.376000   -6.391000    0.017000
  C      1.959000   -2.869000   -0.009000
  C      2.621000   -1.622000    0.009000
  C      5.543000    4.339000   -1.130000
  C      4.070000   -1.479000   -0.094000
  C      4.104000    2.751000   -0.021000
  C      5.027000    2.729000    1.036000
  C      6.166000    3.509000    0.978000
  C      7.619000    5.153000   -0.115000
  C      4.321000   -0.148000   -0.092000
  C      3.025000    0.514000    0.015000
  C      4.387000    3.582000   -1.115000
  C      2.866000    1.916000    0.013000
  N      6.413000    4.296000   -0.095000
  H     -2.704000    7.442000    0.700000
  H      2.274000    4.766000    0.081000
  H     -4.637000    3.108000   -0.562000
  H     -5.985000    5.199000   -0.490000
  H     -5.230000    8.014000   -0.912000
  H     -6.235000    7.328000    0.399000
  H     -4.802000    8.316000    0.797000
  H     -0.332000    5.282000    0.069000
  H     -1.221000    5.445000    0.673000
  H      0.182000    1.072000    0.005000
  H     -0.183000   -1.080000   -0.021000
  H     -5.864000   -4.962000    1.895000
  H     -4.794000    2.272000    0.139000
  H     -4.800000   -2.160000   -1.994000
  H     -6.841000   -3.582000   -1.893000
  H     -8.428000   -4.536000    0.546000
  H     -7.956000   -5.337000   -0.981000
  H     -7.456000   -6.037000    0.584000
  H     -5.287000   -0.344000    0.100000
  H     -3.780000   -3.601000    1.947000
  H      3.587000   -6.868000   -1.843000
  H     -2.276000   -4.774000   -0.050000
  H      3.714000   -3.724000    1.926000
  H      5.092000   -5.795000    1.871000
  H      6.205000   -7.329000   -0.439000
  H      5.393000   -7.917000    1.042000
  H      4.759000   -8.373000   -0.564000
  H      0.329000   -5.290000   -0.008000
  H      2.146000   -4.842000   -1.940000
  H      5.808000    4.986000   -1.956000
  H      4.788000   -2.281000   -0.185000
  H      4.860000    2.114000    1.912000
  H      6.901000    3.531000    1.772000
  H      7.383000    6.109000    0.356000
  H      8.414000    4.652000    0.435000
  H      7.921000    5.310000   -1.150000
  H      5.283000    0.336000   -0.179000
  H      3.720000    3.632000   -1.967000

 Total Charge           Charge          ....    0
 Multiplicity           Mult            ....    1
 Number of Electrons    NEL             ....  358
 Basis Dimension        Dim             ....  918

ORBITAL ENERGIES
----------------

  NO   OCC          E(Eh)            E(eV)
   0   2.0000     -15.679628      -426.6644
   1   2.0000     -15.635194      -425.4553
   2   2.0000     -15.630709      -425.3332
   3   2.0000     -15.587361      -424.1536
   4   2.0000     -15.525515      -422.4707
   5   2.0000     -15.515374      -422.1948
   6   2.0000     -15.453513      -420.5115
   7   2.0000     -15.440616      -420.1605
   8   2.0000     -11.329446      -308.2899
   9   2.0000     -11.328045      -308.2518
  10   2.0000     -11.327826      -308.2458
  11   2.0000     -11.300087      -307.4910
  12   2.0000     -11.297652      -307.4247
  13   2.0000     -11.293998      -307.3253
  14   2.0000     -11.290248      -307.2233
  15   2.0000     -11.287707      -307.1541
  16   2.0000     -11.285577      -307.0962
  17   2.0000     -11.281908      -306.9963
  18   2.0000     -11.269787      -306.6665
  19   2.0000     -11.263272      -306.4892
  20   2.0000     -11.262289      -306.4625
  21   2.0000     -11.252152      -306.1866
  22   2.0000     -11.248570      -306.0891
  23   2.0000     -11.238942      -305.8272
  24   2.0000     -11.235527      -305.7342
  25   2.0000     -11.232081      -305.6405
  26   2.0000     -11.231442      -305.6231
  27   2.0000     -11.228906      -305.5541
  28   2.0000     -11.228594      -305.5456
  29   2.0000     -11.211634      -305.0841
  30   2.0000     -11.210187      -305.0447
  31   2.0000     -11.194029      -304.6050
  32   2.0000     -11.191525      -304.5369
  33   2.0000     -11.190313      -304.5039
  34   2.0000     -11.188030      -304.4418
  35   2.0000     -11.187822      -304.4361
  36   2.0000     -11.186469      -304.3993
  37   2.0000     -11.178668      -304.1870
  38   2.0000     -11.176591      -304.1305
  39   2.0000     -11.175153      -304.0914
  40   2.0000     -11.173188      -304.0379
  41   2.0000     -11.169837      -303.9467
  42   2.0000     -11.169144      -303.9279
  43   2.0000     -11.161395      -303.7170
  44   2.0000     -11.160357      -303.6887
  45   2.0000     -11.157282      -303.6051
  46   2.0000     -11.155947      -303.5688
  47   2.0000     -11.153609      -303.5051
  48   2.0000     -11.146127      -303.3015
  49   2.0000     -11.135118      -303.0020
  50   2.0000     -11.130207      -302.8683
  51   2.0000     -11.117778      -302.5301
  52   2.0000      -1.360238       -37.0140
  53   2.0000      -1.322281       -35.9811
  54   2.0000      -1.318648       -35.8822
  55   2.0000      -1.280411       -34.8418
  56   2.0000      -1.226660       -33.3791
  57   2.0000      -1.209885       -32.9226
  58   2.0000      -1.173052       -31.9204
  59   2.0000      -1.151187       -31.3254
  60   2.0000      -1.143528       -31.1170
  61   2.0000      -1.111057       -30.2334
  62   2.0000      -1.108232       -30.1565
  63   2.0000      -1.081946       -29.4413
  64   2.0000      -1.076939       -29.3050
  65   2.0000      -1.046433       -28.4749
  66   2.0000      -1.043338       -28.3907
  67   2.0000      -1.041116       -28.3302
  68   2.0000      -1.015178       -27.6244
  69   2.0000      -1.012263       -27.5451
  70   2.0000      -1.008695       -27.4480
  71   2.0000      -0.994034       -27.0490
  72   2.0000      -0.985542       -26.8180
  73   2.0000      -0.981816       -26.7166
  74   2.0000      -0.972349       -26.4589
  75   2.0000      -0.961621       -26.1670
  76   2.0000      -0.954269       -25.9670
  77   2.0000      -0.945606       -25.7312
  78   2.0000      -0.936141       -25.4737
  79   2.0000      -0.917244       -24.9595
  80   2.0000      -0.910391       -24.7730
  81   2.0000      -0.896310       -24.3898
  82   2.0000      -0.876438       -23.8491
  83   2.0000      -0.873161       -23.7599
  84   2.0000      -0.869683       -23.6653
  85   2.0000      -0.858716       -23.3668
  86   2.0000      -0.840452       -22.8699
  87   2.0000      -0.836435       -22.7605
  88   2.0000      -0.826420       -22.4880
  89   2.0000      -0.796759       -21.6809
  90   2.0000      -0.789158       -21.4741
  91   2.0000      -0.757217       -20.6049
  92   2.0000      -0.752188       -20.4681
  93   2.0000      -0.733903       -19.9705
  94   2.0000      -0.726234       -19.7618
  95   2.0000      -0.723499       -19.6874
  96   2.0000      -0.718109       -19.5407
  97   2.0000      -0.715815       -19.4783
  98   2.0000      -0.710717       -19.3396
  99   2.0000      -0.698383       -19.0040
 100   2.0000      -0.696712       -18.9585
 101   2.0000      -0.688103       -18.7242
 102   2.0000      -0.684893       -18.6369
 103   2.0000      -0.684102       -18.6154
 104   2.0000      -0.679111       -18.4796
 105   2.0000      -0.673917       -18.3382
 106   2.0000      -0.671965       -18.2851
 107   2.0000      -0.660308       -17.9679
 108   2.0000      -0.657209       -17.8836
 109   2.0000      -0.653676       -17.7874
 110   2.0000      -0.651045       -17.7158
 111   2.0000      -0.646025       -17.5792
 112   2.0000      -0.645023       -17.5520
 113   2.0000      -0.637566       -17.3491
 114   2.0000      -0.636405       -17.3175
 115   2.0000      -0.627494       -17.0750
 116   2.0000      -0.621525       -16.9126
 117   2.0000      -0.620912       -16.8959
 118   2.0000      -0.613607       -16.6971
 119   2.0000      -0.613060       -16.6822
 120   2.0000      -0.611303       -16.6344
 121   2.0000      -0.610534       -16.6135
 122   2.0000      -0.600145       -16.3308
 123   2.0000      -0.587444       -15.9852
 124   2.0000      -0.582355       -15.8467
 125   2.0000      -0.580603       -15.7990
 126   2.0000      -0.579579       -15.7711
 127   2.0000      -0.571717       -15.5572
 128   2.0000      -0.569109       -15.4862
 129   2.0000      -0.559604       -15.2276
 130   2.0000      -0.553077       -15.0500
 131   2.0000      -0.548052       -14.9133
 132   2.0000      -0.542941       -14.7742
 133   2.0000      -0.541907       -14.7460
 134   2.0000      -0.539151       -14.6711
 135   2.0000      -0.535302       -14.5663
 136   2.0000      -0.530298       -14.4301
 137   2.0000      -0.518856       -14.1188
 138   2.0000      -0.518129       -14.0990
 139   2.0000      -0.514354       -13.9963
 140   2.0000      -0.512117       -13.9354
 141   2.0000      -0.510519       -13.8919
 142   2.0000      -0.509434       -13.8624
 143   2.0000      -0.504088       -13.7169
 144   2.0000      -0.501470       -13.6457
 145   2.0000      -0.495396       -13.4804
 146   2.0000      -0.490534       -13.3481
 147   2.0000      -0.481587       -13.1047
 148   2.0000      -0.477399       -12.9907
 149   2.0000      -0.467658       -12.7256
 150   2.0000      -0.466008       -12.6807
 151   2.0000      -0.456842       -12.4313
 152   2.0000      -0.451163       -12.2768
 153   2.0000      -0.445424       -12.1206
 154   2.0000      -0.439209       -11.9515
 155   2.0000      -0.427511       -11.6332
 156   2.0000      -0.409284       -11.1372
 157   2.0000      -0.406144       -11.0517
 158   2.0000      -0.397113       -10.8060
 159   2.0000      -0.387549       -10.5457
 160   2.0000      -0.385756       -10.4970
 161   2.0000      -0.377567       -10.2741
 162   2.0000      -0.371150       -10.0995
 163   2.0000      -0.357509        -9.7283
 164   2.0000      -0.355084        -9.6623
 165   2.0000      -0.341512        -9.2930
 166   2.0000      -0.337859        -9.1936
 167   2.0000      -0.325499        -8.8573
 168   2.0000      -0.320413        -8.7189
 169   2.0000      -0.305891        -8.3237
 170   2.0000      -0.299254        -8.1431
 171   2.0000      -0.285005        -7.7554
 172   2.0000      -0.278978        -7.5914
 173   2.0000      -0.263214        -7.1624
 174   2.0000      -0.241657        -6.5758
 175   2.0000      -0.190081        -5.1724
 176   2.0000      -0.180935        -4.9235
 177   2.0000      -0.079369        -2.1597
 178   2.0000      -0.059529        -1.6199
 179   0.0000       0.028197         0.7673
 180   0.0000       0.065200         1.7742
 181   0.0000       0.090390         2.4596
 182   0.0000       0.106333         2.8935
 183   0.0000       0.114632         3.1193

MULLIKEN ATOMIC CHARGES
-----------------------
   0 C :    0.220350
   1 N :   -0.456748
   2 C :   -0.076275
   3 N :   -0.340522
   4 C :   -0.063208
   5 N :   -0.566503
   6 C :   -0.114854
   7 N :   -0.340935
   8 C :    0.210699
   9 N :   -0.562423
  10 C :    0.119687
  11 N :   -0.438222
  12 C :   -0.060896
  13 N :   -0.429368
  14 C :    0.212992
  15 N :   -0.441174
  16 C :    0.232887
  17 C :   -0.127802
  18 C :   -0.155573
  19 C :    0.201489
  20 C :    0.214271
  21 C :   -0.073953
  22 C :   -0.089403
  23 C :   -0.039759
  24 C :    0.194114
  25 C :    0.114440
  26 C :   -0.089555
  27 C :    0.213778
  28 C :   -0.061574
  29 C :   -0.183010
  30 C :    0.246206
  31 C :    0.230737
  32 C :   -0.061405
  33 C :   -0.060312
  34 C :   -0.050636
  35 C :    0.227944
  36 C :    0.108237
  37 C :   -0.064221
  38 C :    0.231496
  39 C :   -0.058123
  40 C :   -0.180939
  41 C :    0.225283
  42 C :    0.197153
  43 C :   -0.072579
  44 C :   -0.090305
  45 C :   -0.061640
  46 C :    0.211107
  47 C :    0.115478
  48 C :   -0.066955
  49 C :    0.238378
  50 C :   -0.046139
  51 C :   -0.194904
  52 H :    0.036481
  53 H :   -0.017944
  54 H :    0.050075
  55 H :    0.034503
  56 H :    0.048773
  57 H :    0.048160
  58 H :    0.045952
  59 H :   -0.006165
  60 H :    0.047005
  61 H :    0.170966
  62 H :    0.175685
  63 H :    0.055745
  64 H :   -0.011601
  65 H :    0.046937
  66 H :    0.055886
  67 H :    0.062861
  68 H :    0.057388
  69 H :    0.056622
  70 H :   -0.029807
  71 H :    0.045278
  72 H :    0.071431
  73 H :   -0.007878
  74 H :    0.060536
  75 H :    0.070820
  76 H :    0.075066
  77 H :    0.068070
  78 H :    0.067312
  79 H :   -0.016398
  80 H :    0.061345
  81 H :    0.054240
  82 H :   -0.025156
  83 H :    0.041459
  84 H :    0.053814
  85 H :    0.060614
  86 H :    0.055304
  87 H :    0.057099
  88 H :   -0.014419
  89 H :    0.047126
Sum of atomic charges:   -0.0000000

LOEWDIN ATOMIC CHARGES
----------------------
   0 C :   -0.017613
   1 N :    0.118937
   2 C :   -0.102154
   3 N :    0.182904
   4 C :   -0.013717
   5 N :   -0.132603
   6 C :   -0.034755
   7 N :    0.175092
   8 C :   -0.025181
   9 N :   -0.140643
  10 C :    0.023618
  11 N :    0.142504
  12 C :   -0.111576
  13 N :    0.166375
  14 C :   -0.020897
  15 N :    0.138321
  16 C :   -0.059631
  17 C :   -0.042764
  18 C :   -0.107706
  19 C :   -0.077229
  20 C :    0.005443
  21 C :   -0.120184
  22 C :    0.038137
  23 C :   -0.014548
  24 C :   -0.012063
  25 C :    0.029953
  26 C :   -0.109237
  27 C :   -0.117262
  28 C :   -0.027279
  29 C :   -0.098961
  30 C :   -0.030130
  31 C :    0.024835
  32 C :   -0.093793
  33 C :    0.082135
  34 C :   -0.014780
  35 C :    0.022703
  36 C :    0.035266
  37 C :   -0.093934
  38 C :   -0.051446
  39 C :   -0.017836
  40 C :   -0.108365
  41 C :   -0.092297
  42 C :   -0.010695
  43 C :   -0.099396
  44 C :    0.032829
  45 C :   -0.028523
  46 C :    0.001395
  47 C :    0.029397
  48 C :   -0.095220
  49 C :   -0.068984
  50 C :   -0.018672
  51 C :   -0.109637
  52 H :    0.022635
  53 H :    0.002437
  54 H :    0.024288
  55 H :    0.022136
  56 H :    0.021576
  57 H :    0.026496
  58 H :    0.026337
  59 H :    0.008869
  60 H :    0.021319
  61 H :    0.060056
  62 H :    0.061958
  63 H :    0.030953
  64 H :    0.007823
  65 H :    0.045832
  66 H :    0.029359
  67 H :    0.028434
  68 H :    0.031699
  69 H :    0.030420
  70 H :   -0.004726
  71 H :    0.043690
  72 H :    0.037786
  73 H :    0.007190
  74 H :    0.050769
  75 H :    0.037404
  76 H :    0.034873
  77 H :    0.036220
  78 H :    0.035881
  79 H :    0.003056
  80 H :    0.050741
  81 H :    0.029019
  82 H :   -0.002881
  83 H :    0.042295
  84 H :    0.029712
  85 H :    0.027256
  86 H :    0.030068
  87 H :    0.031353
  88 H :    0.002422
  89 H :    0.045115

  Mayer bond orders larger than 0.100000
B(  0-C ,  1-N ) :   1.0993 B(  0-C , 17-C ) :   1.7140 B(  0-C , 52-H ) :   0.9631
B(  1-N ,  8-C ) :   1.0862 B(  1-N , 10-C ) :   0.9779 B(  2-C , 12-C ) :   1.4910
B(  2-C , 16-C ) :   1.3696 B(  2-C , 53-H ) :   0.9738 B(  3-N , 14-C ) :   1.2204
B(  3-N , 16-C ) :   1.1843 B(  3-N , 61-H ) :   0.8990 B(  4-C ,  6-C ) :   1.2145
B(  4-C , 17-C ) :   1.2145 B(  4-C , 18-C ) :   1.4692 B(  5-N , 19-C ) :   1.4569
B(  5-N , 27-C ) :   1.3729 B(  6-C ,  8-C ) :   1.7203 B(  6-C , 54-H ) :   0.9138
B(  7-N , 30-C ) :   1.1948 B(  7-N , 38-C ) :   1.1900 B(  7-N , 62-H ) :   0.8966
B(  8-C , 55-H ) :   0.9644 B(  9-N , 41-C ) :   1.3928 B(  9-N , 49-C ) :   1.4270
B( 10-C , 56-H ) :   0.9774 B( 10-C , 57-H ) :   0.9831 B( 10-C , 58-H ) :   0.9835
B( 11-N , 20-C ) :   1.1319 B( 11-N , 24-C ) :   1.1078 B( 11-N , 25-C ) :   0.9597
B( 12-C , 14-C ) :   1.3585 B( 12-C , 59-H ) :   0.9498 B( 13-N , 31-C ) :   1.1622
B( 13-N , 35-C ) :   1.1597 B( 13-N , 36-C ) :   0.9413 B( 14-C , 18-C ) :   1.1187
B( 15-N , 42-C ) :   1.1071 B( 15-N , 46-C ) :   1.1237 B( 15-N , 47-C ) :   0.9616
B( 16-C , 51-C ) :   1.1673 B( 17-C , 60-H ) :   0.9153 B( 18-C , 19-C ) :   1.1169
B( 19-C , 21-C ) :   1.2518 B( 20-C , 28-C ) :   1.6276 B( 20-C , 63-H ) :   0.9702
B( 21-C , 26-C ) :   1.5883 B( 21-C , 64-H ) :   0.9484 B( 22-C , 23-C ) :   1.2904
B( 22-C , 28-C ) :   1.2648 B( 22-C , 29-C ) :   1.2245 B( 23-C , 24-C ) :   1.6190
B( 23-C , 65-H ) :   0.9703 B( 24-C , 66-H ) :   0.9695 B( 25-C , 67-H ) :   0.9760
B( 25-C , 68-H ) :   0.9828 B( 25-C , 69-H ) :   0.9823 B( 26-C , 27-C ) :   1.2557
B( 26-C , 70-H ) :   0.9678 B( 27-C , 29-C ) :   1.2067 B( 28-C , 71-H ) :   0.9720
B( 29-C , 30-C ) :   1.2475 B( 30-C , 32-C ) :   1.2778 B( 31-C , 39-C ) :   1.5877
B( 31-C , 72-H ) :   0.9681 B( 32-C , 37-C ) :   1.5813 B( 32-C , 73-H ) :   0.9786
B( 33-C , 34-C ) :   1.3078 B( 33-C , 39-C ) :   1.3037 B( 33-C , 40-C ) :   1.1751
B( 34-C , 35-C ) :   1.5849 B( 34-C , 74-H ) :   0.9696 B( 35-C , 75-H ) :   0.9681
B( 36-C , 76-H ) :   0.9768 B( 36-C , 77-H ) :   0.9815 B( 36-C , 78-H ) :   0.9823
B( 37-C , 38-C ) :   1.2835 B( 37-C , 79-H ) :   0.9765 B( 38-C , 40-C ) :   1.2351
B( 39-C , 80-H ) :   0.9705 B( 40-C , 41-C ) :   1.2506 B( 41-C , 43-C ) :   1.1853
B( 42-C , 50-C ) :   1.6343 B( 42-C , 81-H ) :   0.9696 B( 43-C , 48-C ) :   1.6673
B( 43-C , 82-H ) :   0.9721 B( 44-C , 45-C ) :   1.2626 B( 44-C , 50-C ) :   1.2713
B( 44-C , 51-C ) :   1.2629 B( 45-C , 46-C ) :   1.6355 B( 45-C , 83-H ) :   0.9719
B( 46-C , 84-H ) :   0.9700 B( 47-C , 85-H ) :   0.9762 B( 47-C , 86-H ) :   0.9829
B( 47-C , 87-H ) :   0.9825 B( 48-C , 49-C ) :   1.1888 B( 48-C , 88-H ) :   0.9749
B( 49-C , 51-C ) :   1.2434 B( 50-C , 89-H ) :   0.9708

MP2 TOTAL ENERGY:    -2130.828020859 Eh
FINAL SINGLE POINT ENERGY     -2130.828020859019

DIPOLE MOMENT
-------------
                                X             Y             Z
Electronic contribution:      2.72574      -4.38529      -0.07235
Nuclear contribution   :     -0.02246       0.17242       0.08349
                        -----------------------------------------
Total Dipole Moment    :      2.70328      -4.21287       0.01114
                        -----------------------------------------
Magnitude (a.u.)       :      5.00561
Magnitude (Debye)      :     12.72324

Rotational constants in cm-1:     0.001503     0.001477     0.000760
Rotational constants in MHz :    45.063961    44.285729    22.787224

                             ****ORCA TERMINATED NORMALLY****
TOTAL RUN TIME: 0 days 1 hours 5 minutes 1 seconds 618 msec
