                         Program Version 5.0.4 -  RELEASE  -
|  1> ! PAL2
|  2> ! mp2 cc-pvdz TightSCF  NoKeepInts
|  3>
|  4> %scf
|  5>   MaxCore 2000
|  6> end
|  7> %mp2
|  8>   MaxCore 2000
|  9> end
| 10> * xyz 0 1
| 11>    C       -4.14000         5.71600         1.23300
| 12>    C        1.47400         4.04100         0.05700
| 13>    C       -2.80200         4.09300         0.04900
| 14>    C       -3.07300         4.80600        -1.12900
| 15>    C       -3.85800         5.94000        -1.08900
| 16>    C       -5.18800         7.62000         0.09500
| 17>    C        0.13200         4.30700         0.06100
| 18>    C       -0.56900         3.05600         0.04700
| 19>    C        1.64900         2.61800         0.02300
| 20>    C       -3.35500         4.57900         1.24400
| 21>    N       -4.38200         6.37900         0.07900
| 22>    N        0.38800         2.06700         0.02500
| 23>    N       -2.01000         0.39500        -0.07500
| 24>    N       -0.38800        -2.07400        -0.02700
| 25>    N        2.01000        -0.40100         0.06500
| 26>    C       -1.96000         2.86100         0.02400
| 27>    C       -2.62300         1.61500        -0.01800
| 28>    C       -5.57300        -4.32900         1.06600
| 29>    C       -4.07300         1.47100         0.05600
| 30>    C       -4.10600        -2.75600        -0.02600
| 31>    C       -4.99500        -2.75700        -1.11100
| 32>    C       -6.13200        -3.54200        -1.07600
| 33>    C       -7.65100        -5.11300         0.04000
| 34>    C       -4.32400         0.14100         0.03700
| 35>    C       -3.02500        -0.52000        -0.04800
| 36>    C       -4.42200        -3.56600         1.07500
| 37>    N       -6.40700        -4.31300         0.00100
| 38>    C       -2.86700        -1.92200        -0.04000
| 39>    C       -1.65000        -2.62400        -0.02700
| 40>    C        3.56800        -6.14200        -1.04000
| 41>    C       -1.47600        -4.04900        -0.03400
| 42>    C        2.80300        -4.09900        -0.00800
| 43>    C        3.65700        -4.38400         1.06900
| 44>    C        4.42700        -5.53000         1.05900
| 45>    C        5.24500        -7.58800         0.01400
| 46>    C       -0.13400        -4.31500        -0.02200
| 47>    C        0.56800        -3.06400        -0.02700
| 48>    C        2.77500        -5.01200        -1.07400
| 49>    N        4.37600        -6.39100         0.01700
| 50>    C        1.95900        -2.86900        -0.00900
| 51>    C        2.62100        -1.62200         0.00900
| 52>    C        5.54300         4.33900        -1.13000
| 53>    C        4.07000        -1.47900        -0.09400
| 54>    C        4.10400         2.75100        -0.02100
| 55>    C        5.02700         2.72900         1.03600
| 56>    C        6.16600         3.50900         0.97800
| 57>    C        7.61900         5.15300        -0.11500
| 58>    C        4.32100        -0.14800        -0.09200
| 59>    C        3.02500         0.51400         0.01500
| 60>    C        4.38700         3.58200        -1.11500
| 61>    C        2.86600         1.91600         0.01300
| 62>    N        6.41300         4.29600        -0.09500
| 63>    H       -4.59700         6.11900         2.12800
| 64>    H        2.27400         4.76600         0.08100
| 65>    H       -2.66600         4.48600        -2.08100
| 66>    H       -4.08600         6.52700        -1.96900
| 67>    H       -4.51800         8.47700         0.19400
| 68>    H       -5.74800         7.68600        -0.83700
| 69>    H       -5.87400         7.58100         0.94100
| 70>    H       -0.33200         5.28200         0.06900
| 71>    H       -3.19500         4.06500         2.18500
| 72>    H        0.18200         1.07200         0.00500
| 73>    H       -0.18300        -1.08000        -0.02100
| 74>    H       -5.86400        -4.96200         1.89500
| 75>    H       -4.79400         2.27200         0.13900
| 76>    H       -4.80000        -2.16000        -1.99400
| 77>    H       -6.84100        -3.58200        -1.89300
| 78>    H       -8.42800        -4.53600         0.54600
| 79>    H       -7.95600        -5.33700        -0.98100
| 80>    H       -7.45600        -6.03700         0.58400
| 81>    H       -5.28700        -0.34400         0.10000
| 82>    H       -3.78000        -3.60100         1.94700
| 83>    H        3.58700        -6.86800        -1.84300
| 84>    H       -2.27600        -4.77400        -0.05000
| 85>    H        3.71400        -3.72400         1.92600
| 86>    H        5.09200        -5.79500         1.87100
| 87>    H        6.20500        -7.32900        -0.43900
| 88>    H        5.39300        -7.91700         1.04200
| 89>    H        4.75900        -8.37300        -0.56400
| 90>    H        0.32900        -5.29000        -0.00800
| 91>    H        2.14600        -4.84200        -1.94000
| 92>    H        5.80800         4.98600        -1.95600
| 93>    H        4.78800        -2.28100        -0.18500
| 94>    H        4.86000         2.11400         1.91200
| 95>    H        6.90100         3.53100         1.77200
| 96>    H        7.38300         6.10900         0.35600
| 97>    H        8.41400         4.65200         0.43500
| 98>    H        7.92100         5.31000        -1.15000
| 99>    H        5.28300         0.33600        -0.17900
|100>    H        3.72000         3.63200        -1.96700
|101> *
|102>
|103>                          ****END OF INPUT****

CARTESIAN COORDINATES (ANGSTROEM)
---------------------------------
  C     -4.140000    5.716000    1.233000
  C      1.474000    4.041000    0.057000
  C     -2.802000    4.093000    0.049000
  C     -3.073000    4.806000   -1.129000
  C     -3.858000    5.940000   -1.089000
  C     -5.188000    7.620000    0.095000
  C      0.132000    4.307000    0.061000
  C     -0.569000    3.056000    0.047000
  C      1.649000    2.618000    0.023000
  C     -3.355000    4.579000    1.244000
  N     -4.382000    6.379000    0.079000
  N      0.388000    2.067000    0.025000
  N     -2.010000    0.395000   -0.075000
  N     -0.388000   -2.074000   -0.027000
  N      2.010000   -0.401000    0.065000
  C     -1.960000    2.861000    0.024000
  C     -2.623000    1.615000   -0.018000
  C     -5.573000   -4.329000    1.066000
  C     -4.073000    1.471000    0.056000
  C     -4.106000   -2.756000   -0.026000
  C     -4.995000   -2.757000   -1.111000
  C     -6.132000   -3.542000   -1.076000
  C     -7.651000   -5.113000    0.040000
  C     -4.324000    0.141000    0.037000
  C     -3.025000   -0.520000   -0.048000
  C     -4.422000   -3.566000    1.075000
  N     -6.407000   -4.313000    0.001000
  C     -2.867000   -1.922000   -0.040000
  C     -1.650000   -2.624000   -0.027000
  C      3.568000   -6.142000   -1.040000
  C     -1.476000   -4.049000   -0.034000
  C      2.803000   -4.099000   -0.008000
  C      3.657000   -4.384000    1.069000
  C      4.427000   -5.530000    1.059000
  C      5.245000   -7.588000    0.014000
  C     -0.134000   -4.315000   -0.022000
  C      0.568000   -3.064000   -0.027000
  C      2.775000   -5.012000   -1.074000
  N      4.376000   -6.391000    0.017000
  C      1.959000   -2.869000   -0.009000
  C      2.621000   -1.622000    0.009000
  C      5.543000    4.339000   -1.130000
  C      4.070000   -1.479000   -0.094000
  C      4.104000    2.751000   -0.021000
  C      5.027000    2.729000    1.036000
  C      6.166000    3.509000    0.978000
  C      7.619000    5.153000   -0.115000
  C      4.321000   -0.148000   -0.092000
  C      3.025000    0.514000    0.015000
  C      4.387000    3.582000   -1.115000
  C      2.866000    1.916000    0.013000
  N      6.413000    4.296000   -0.095000
  H     -4.597000    6.119000    2.128000
  H      2.274000    4.766000    0.081000
  H     -2.666000    4.486000   -2.081000
  H     -4.086000    6.527000   -1.969000
  H     -4.518000    8.477000    0.194000
  H     -5.748000    7.686000   -0.837000
  H     -5.874000    7.581000    0.941000
  H     -0.332000    5.282000    0.069000
  H     -3.195000    4.065000    2.185000
  H      0.182000    1.072000    0.005000
  H     -0.183000   -1.080000   -0.021000
  H     -5.864000   -4.962000    1.895000
  H     -4.794000    2.272000    0.139000
  H     -4.800000   -2.160000   -1.994000
  H     -6.841000   -3.582000   -1.893000
  H     -8.428000   -4.536000    0.546000
  H     -7.956000   -5.337000   -0.981000
  H     -7.456000   -6.037000    0.584000
  H     -5.287000   -0.344000    0.100000
  H     -3.780000   -3.601000    1.947000
  H      3.587000   -6.868000   -1.843000
  H     -2.276000   -4.774000   -0.050000
  H      3.714000   -3.724000    1.926000
  H      5.092000   -5.795000    1.871000
  H      6.205000   -7.329000   -0.439000
  H      5.393000   -7.917000    1.042000
  H      4.759000   -8.373000   -0.564000
  H      0.329000   -5.290000   -0.008000
  H      2.146000   -4.842000   -1.940000
  H      5.808000    4.986000   -1.956000
  H      4.788000   -2.281000   -0.185000
  H      4.860000    2.114000    1.912000
  H      6.901000    3.531000    1.772000
  H      7.383000    6.109000    0.356000
  H      8.414000    4.652000    0.435000
  H      7.921000    5.310000   -1.150000
  H      5.283000    0.336000   -0.179000
  H      3.720000    3.632000   -1.967000

 Total Charge           Charge          ....    0
 Multiplicity           Mult            ....    1
 Number of Electrons    NEL             ....  358
 Basis Dimension        Dim             ....  918

ORBITAL ENERGIES
----------------

  NO   OCC          E(Eh)            E(eV)
   0   2.0000     -15.713254      -427.5794
   1   2.0000     -15.630059      -425.3155
   2   2.0000     -15.618830      -425.0100
   3   2.0000     -15.579866      -423.9497
   4   2.0000     -15.520495      -422.3341
   5   2.0000     -15.504968      -421.9116
   6   2.0000     -15.450840      -420.4387
   7   2.0000     -15.427680      -419.8085
   8   2.0000     -11.352765      -308.9244
   9   2.0000     -11.352061      -308.9053
  10   2.0000     -11.346516      -308.7544
  11   2.0000     -11.308155      -307.7105
  12   2.0000     -11.297303      -307.4152
  13   2.0000     -11.291572      -307.2593
  14   2.0000     -11.289771      -307.2103
  15   2.0000     -11.282915      -307.0237
  16   2.0000     -11.282765      -307.0196
  17   2.0000     -11.282072      -307.0008
  18   2.0000     -11.281463      -306.9842
  19   2.0000     -11.271822      -306.7219
  20   2.0000     -11.265262      -306.5434
  21   2.0000     -11.245862      -306.0155
  22   2.0000     -11.242312      -305.9189
  23   2.0000     -11.233705      -305.6847
  24   2.0000     -11.227801      -305.5240
  25   2.0000     -11.226906      -305.4996
  26   2.0000     -11.223159      -305.3977
  27   2.0000     -11.219180      -305.2894
  28   2.0000     -11.218856      -305.2806
  29   2.0000     -11.209867      -305.0360
  30   2.0000     -11.208368      -304.9952
  31   2.0000     -11.193843      -304.6000
  32   2.0000     -11.192745      -304.5701
  33   2.0000     -11.191704      -304.5417
  34   2.0000     -11.190704      -304.5145
  35   2.0000     -11.189929      -304.4935
  36   2.0000     -11.186323      -304.3953
  37   2.0000     -11.180854      -304.2465
  38   2.0000     -11.180783      -304.2446
  39   2.0000     -11.176099      -304.1171
  40   2.0000     -11.168385      -303.9072
  41   2.0000     -11.165031      -303.8159
  42   2.0000     -11.164211      -303.7936
  43   2.0000     -11.160830      -303.7016
  44   2.0000     -11.160780      -303.7003
  45   2.0000     -11.146112      -303.3011
  46   2.0000     -11.145638      -303.2882
  47   2.0000     -11.141565      -303.1774
  48   2.0000     -11.139125      -303.1110
  49   2.0000     -11.132230      -302.9234
  50   2.0000     -11.118157      -302.5404
  51   2.0000     -11.112821      -302.3952
  52   2.0000      -1.386409       -37.7261
  53   2.0000      -1.318037       -35.8656
  54   2.0000      -1.307821       -35.5876
  55   2.0000      -1.274692       -34.6861
  56   2.0000      -1.223644       -33.2971
  57   2.0000      -1.201018       -32.6814
  58   2.0000      -1.176543       -32.0154
  59   2.0000      -1.161781       -31.6137
  60   2.0000      -1.138076       -30.9686
  61   2.0000      -1.107058       -30.1246
  62   2.0000      -1.104996       -30.0685
  63   2.0000      -1.097625       -29.8679
  64   2.0000      -1.068494       -29.0752
  65   2.0000      -1.054246       -28.6875
  66   2.0000      -1.042369       -28.3643
  67   2.0000      -1.032771       -28.1031
  68   2.0000      -1.014690       -27.6111
  69   2.0000      -1.004221       -27.3262
  70   2.0000      -1.001712       -27.2580
  71   2.0000      -0.993677       -27.0393
  72   2.0000      -0.984856       -26.7993
  73   2.0000      -0.977318       -26.5942
  74   2.0000      -0.963911       -26.2293
  75   2.0000      -0.962003       -26.1774
  76   2.0000      -0.951090       -25.8805
  77   2.0000      -0.940967       -25.6050
  78   2.0000      -0.930873       -25.3304
  79   2.0000      -0.920841       -25.0574
  80   2.0000      -0.913316       -24.8526
  81   2.0000      -0.890100       -24.2208
  82   2.0000      -0.885362       -24.0919
  83   2.0000      -0.869308       -23.6551
  84   2.0000      -0.860263       -23.4089
  85   2.0000      -0.847296       -23.0561
  86   2.0000      -0.830206       -22.5911
  87   2.0000      -0.827743       -22.5240
  88   2.0000      -0.820816       -22.3356
  89   2.0000      -0.794640       -21.6232
  90   2.0000      -0.786520       -21.4023
  91   2.0000      -0.769299       -20.9337
  92   2.0000      -0.736015       -20.0280
  93   2.0000      -0.733596       -19.9622
  94   2.0000      -0.728370       -19.8200
  95   2.0000      -0.722697       -19.6656
  96   2.0000      -0.716457       -19.4958
  97   2.0000      -0.708183       -19.2706
  98   2.0000      -0.705312       -19.1925
  99   2.0000      -0.703335       -19.1387
 100   2.0000      -0.695729       -18.9317
 101   2.0000      -0.688732       -18.7413
 102   2.0000      -0.684164       -18.6170
 103   2.0000      -0.675021       -18.3682
 104   2.0000      -0.673344       -18.3226
 105   2.0000      -0.667582       -18.1658
 106   2.0000      -0.667094       -18.1526
 107   2.0000      -0.662612       -18.0306
 108   2.0000      -0.652592       -17.7579
 109   2.0000      -0.649724       -17.6799
 110   2.0000      -0.648436       -17.6448
 111   2.0000      -0.642347       -17.4791
 112   2.0000      -0.640375       -17.4255
 113   2.0000      -0.635473       -17.2921
 114   2.0000      -0.631079       -17.1725
 115   2.0000      -0.630211       -17.1489
 116   2.0000      -0.626622       -17.0512
 117   2.0000      -0.616767       -16.7831
 118   2.0000      -0.611410       -16.6373
 119   2.0000      -0.609984       -16.5985
 120   2.0000      -0.609199       -16.5771
 121   2.0000      -0.600930       -16.3521
 122   2.0000      -0.589860       -16.0509
 123   2.0000      -0.589164       -16.0320
 124   2.0000      -0.584920       -15.9165
 125   2.0000      -0.578990       -15.7551
 126   2.0000      -0.575438       -15.6585
 127   2.0000      -0.572268       -15.5722
 128   2.0000      -0.570982       -15.5372
 129   2.0000      -0.566825       -15.4241
 130   2.0000      -0.556415       -15.1408
 131   2.0000      -0.545091       -14.8327
 132   2.0000      -0.541675       -14.7397
 133   2.0000      -0.539428       -14.6786
 134   2.0000      -0.533821       -14.5260
 135   2.0000      -0.529554       -14.4099
 136   2.0000      -0.518790       -14.1170
 137   2.0000      -0.516097       -14.0437
 138   2.0000      -0.513253       -13.9663
 139   2.0000      -0.512819       -13.9545
 140   2.0000      -0.510343       -13.8871
 141   2.0000      -0.503118       -13.6905
 142   2.0000      -0.501199       -13.6383
 143   2.0000      -0.498496       -13.5648
 144   2.0000      -0.495298       -13.4777
 145   2.0000      -0.493597       -13.4314
 146   2.0000      -0.489258       -13.3134
 147   2.0000      -0.474453       -12.9105
 148   2.0000      -0.471823       -12.8389
 149   2.0000      -0.466127       -12.6840
 150   2.0000      -0.461896       -12.5688
 151   2.0000      -0.460216       -12.5231
 152   2.0000      -0.451869       -12.2960
 153   2.0000      -0.441031       -12.0011
 154   2.0000      -0.433859       -11.8059
 155   2.0000      -0.432080       -11.7575
 156   2.0000      -0.418833       -11.3970
 157   2.0000      -0.415618       -11.3095
 158   2.0000      -0.412491       -11.2245
 159   2.0000      -0.406277       -11.0554
 160   2.0000      -0.381738       -10.3876
 161   2.0000      -0.369824       -10.0634
 162   2.0000      -0.354204        -9.6384
 163   2.0000      -0.352563        -9.5937
 164   2.0000      -0.345910        -9.4127
 165   2.0000      -0.340886        -9.2760
 166   2.0000      -0.338509        -9.2113
 167   2.0000      -0.319236        -8.6868
 168   2.0000      -0.312921        -8.5150
 169   2.0000      -0.303839        -8.2679
 170   2.0000      -0.298244        -8.1156
 171   2.0000      -0.282909        -7.6983
 172   2.0000      -0.276267        -7.5176
 173   2.0000      -0.266013        -7.2386
 174   2.0000      -0.230261        -6.2657
 175   2.0000      -0.183326        -4.9886
 176   2.0000      -0.173498        -4.7211
 177   2.0000      -0.062608        -1.7037
 178   2.0000      -0.050732        -1.3805
 179   0.0000       0.035358         0.9621
 180   0.0000       0.055655         1.5145
 181   0.0000       0.077987         2.1221
 182   0.0000       0.098231         2.6730
 183   0.0000       0.102087         2.7779

MULLIKEN ATOMIC CHARGES
-----------------------
   0 C :    0.236197
   1 N :   -0.413768
   2 C :   -0.066288
   3 N :   -0.343438
   4 C :   -0.066610
   5 N :   -0.566080
   6 C :   -0.028802
   7 N :   -0.336749
   8 C :    0.235116
   9 N :   -0.566432
  10 C :    0.103832
  11 N :   -0.439774
  12 C :   -0.059059
  13 N :   -0.451288
  14 C :    0.221252
  15 N :   -0.441845
  16 C :    0.256369
  17 C :   -0.032585
  18 C :   -0.179939
  19 C :    0.232769
  20 C :    0.187855
  21 C :   -0.069325
  22 C :   -0.091204
  23 C :   -0.067723
  24 C :    0.217424
  25 C :    0.114958
  26 C :   -0.065318
  27 C :    0.248273
  28 C :   -0.039560
  29 C :   -0.197194
  30 C :    0.220340
  31 C :    0.187229
  32 C :   -0.064915
  33 C :   -0.103089
  34 C :   -0.050633
  35 C :    0.177911
  36 C :    0.121198
  37 C :   -0.070806
  38 C :    0.244526
  39 C :   -0.065338
  40 C :   -0.204928
  41 C :    0.216468
  42 C :    0.211982
  43 C :   -0.077383
  44 C :   -0.092790
  45 C :   -0.037901
  46 C :    0.183111
  47 C :    0.116886
  48 C :   -0.081917
  49 C :    0.207491
  50 C :   -0.067996
  51 C :   -0.188730
  52 H :    0.082494
  53 H :   -0.006670
  54 H :    0.067386
  55 H :    0.080521
  56 H :    0.085236
  57 H :    0.076270
  58 H :    0.074883
  59 H :   -0.029278
  60 H :    0.068102
  61 H :    0.177309
  62 H :    0.167613
  63 H :    0.052478
  64 H :   -0.034312
  65 H :    0.040595
  66 H :    0.054721
  67 H :    0.057917
  68 H :    0.055862
  69 H :    0.058880
  70 H :   -0.013202
  71 H :    0.046454
  72 H :    0.036879
  73 H :   -0.019652
  74 H :    0.028865
  75 H :    0.035585
  76 H :    0.045725
  77 H :    0.045696
  78 H :    0.044942
  79 H :   -0.011751
  80 H :    0.028616
  81 H :    0.049836
  82 H :   -0.022911
  83 H :    0.042437
  84 H :    0.048865
  85 H :    0.053838
  86 H :    0.056184
  87 H :    0.054133
  88 H :   -0.030477
  89 H :    0.038151
Sum of atomic charges:   -0.0000000

LOEWDIN ATOMIC CHARGES
----------------------
   0 C :    0.039346
   1 N :    0.192568
   2 C :   -0.098617
   3 N :    0.171346
   4 C :    0.118907
   5 N :   -0.148244
   6 C :   -0.009890
   7 N :    0.177579
   8 C :    0.038310
   9 N :   -0.138702
  10 C :    0.040386
  11 N :    0.139077
  12 C :   -0.096760
  13 N :    0.112676
  14 C :   -0.062224
  15 N :    0.134035
  16 C :   -0.016261
  17 C :   -0.010737
  18 C :   -0.120866
  19 C :   -0.089212
  20 C :   -0.018768
  21 C :   -0.099201
  22 C :    0.032928
  23 C :   -0.034220
  24 C :    0.007498
  25 C :    0.029198
  26 C :   -0.091474
  27 C :   -0.053857
  28 C :   -0.014832
  29 C :   -0.118742
  30 C :   -0.065750
  31 C :   -0.027351
  32 C :   -0.101276
  33 C :   -0.007525
  34 C :   -0.027094
  35 C :   -0.035669
  36 C :    0.022920
  37 C :   -0.110620
  38 C :   -0.028947
  39 C :   -0.034706
  40 C :   -0.113792
  41 C :   -0.093225
  42 C :    0.000384
  43 C :   -0.114296
  44 C :    0.025867
  45 C :   -0.014122
  46 C :   -0.024697
  47 C :    0.028038
  48 C :   -0.114587
  49 C :   -0.118133
  50 C :   -0.034194
  51 C :   -0.108011
  52 H :    0.042272
  53 H :    0.007884
  54 H :    0.055849
  55 H :    0.041884
  56 H :    0.040159
  57 H :    0.039727
  58 H :    0.039793
  59 H :   -0.000868
  60 H :    0.055994
  61 H :    0.062727
  62 H :    0.057616
  63 H :    0.028553
  64 H :   -0.005483
  65 H :    0.041614
  66 H :    0.029836
  67 H :    0.026208
  68 H :    0.030959
  69 H :    0.031209
  70 H :    0.003273
  71 H :    0.045372
  72 H :    0.021765
  73 H :    0.001582
  74 H :    0.037509
  75 H :    0.020791
  76 H :    0.019771
  77 H :    0.025737
  78 H :    0.025430
  79 H :    0.005556
  80 H :    0.036601
  81 H :    0.027750
  82 H :   -0.001297
  83 H :    0.044033
  84 H :    0.026534
  85 H :    0.024064
  86 H :    0.030254
  87 H :    0.029930
  88 H :   -0.005250
  89 H :    0.040202

  Mayer bond orders larger than 0.100000
B(  0-C ,  1-N ) :   1.2035 B(  0-C , 17-C ) :   1.5187 B(  0-C , 52-H ) :   0.9669
B(  1-N ,  8-C ) :   1.2000 B(  1-N , 10-C ) :   0.9263 B(  2-C , 12-C ) :   1.5784
B(  2-C , 16-C ) :   1.2755 B(  2-C , 53-H ) :   0.9792 B(  3-N , 14-C ) :   1.1756
B(  3-N , 16-C ) :   1.2027 B(  3-N , 61-H ) :   0.8952 B(  4-C ,  6-C ) :   1.3523
B(  4-C , 17-C ) :   1.3599 B(  4-C , 18-C ) :   1.0615 B(  5-N , 19-C ) :   1.3664
B(  5-N , 27-C ) :   1.4469 B(  6-C ,  8-C ) :   1.5247 B(  6-C , 54-H ) :   0.9707
B(  7-N , 30-C ) :   1.1845 B(  7-N , 38-C ) :   1.2152 B(  7-N , 62-H ) :   0.9014
B(  8-C , 55-H ) :   0.9676 B(  9-N , 41-C ) :   1.4347 B(  9-N , 49-C ) :   1.3927
B( 10-C , 56-H ) :   0.9767 B( 10-C , 57-H ) :   0.9807 B( 10-C , 58-H ) :   0.9817
B( 11-N , 20-C ) :   1.0980 B( 11-N , 24-C ) :   1.1346 B( 11-N , 25-C ) :   0.9620
B( 12-C , 14-C ) :   1.2756 B( 12-C , 59-H ) :   0.9767 B( 13-N , 31-C ) :   1.0828
B( 13-N , 35-C ) :   1.0727 B( 13-N , 36-C ) :   0.9820 B( 14-C , 18-C ) :   1.2591
B( 15-N , 42-C ) :   1.1256 B( 15-N , 46-C ) :   1.0891 B( 15-N , 47-C ) :   0.9666
B( 16-C , 51-C ) :   1.2448 B( 17-C , 60-H ) :   0.9707 B( 18-C , 19-C ) :   1.3087
B( 19-C , 21-C ) :   1.1627 B( 20-C , 28-C ) :   1.6285 B( 20-C , 63-H ) :   0.9709
B( 21-C , 26-C ) :   1.6825 B( 21-C , 64-H ) :   0.9716 B( 22-C , 23-C ) :   1.2567
B( 22-C , 28-C ) :   1.2800 B( 22-C , 29-C ) :   1.2557 B( 23-C , 24-C ) :   1.6339
B( 23-C , 65-H ) :   0.9722 B( 24-C , 66-H ) :   0.9690 B( 25-C , 67-H ) :   0.9763
B( 25-C , 68-H ) :   0.9834 B( 25-C , 69-H ) :   0.9819 B( 26-C , 27-C ) :   1.1723
B( 26-C , 70-H ) :   0.9756 B( 27-C , 29-C ) :   1.2436 B( 28-C , 71-H ) :   0.9709
B( 29-C , 30-C ) :   1.1746 B( 30-C , 32-C ) :   1.3514 B( 31-C , 39-C ) :   1.6839
B( 31-C , 72-H ) :   0.9709 B( 32-C , 37-C ) :   1.5085 B( 32-C , 73-H ) :   0.9771
B( 33-C , 34-C ) :   1.2332 B( 33-C , 39-C ) :   1.2256 B( 33-C , 40-C ) :   1.3562
B( 34-C , 35-C ) :   1.6824 B( 34-C , 74-H ) :   0.9710 B( 35-C , 75-H ) :   0.9708
B( 36-C , 76-H ) :   0.9755 B( 36-C , 77-H ) :   0.9826 B( 36-C , 78-H ) :   0.9838
B( 37-C , 38-C ) :   1.3454 B( 37-C , 79-H ) :   0.9792 B( 38-C , 40-C ) :   1.1781
B( 39-C , 80-H ) :   0.9721 B( 40-C , 41-C ) :   1.1698 B( 41-C , 43-C ) :   1.2546
B( 42-C , 50-C ) :   1.6425 B( 42-C , 81-H ) :   0.9697 B( 43-C , 48-C ) :   1.5964
B( 43-C , 82-H ) :   0.9756 B( 44-C , 45-C ) :   1.2805 B( 44-C , 50-C ) :   1.2488
B( 44-C , 51-C ) :   1.2478 B( 45-C , 46-C ) :   1.6335 B( 45-C , 83-H ) :   0.9702
B( 46-C , 84-H ) :   0.9709 B( 47-C , 85-H ) :   0.9759 B( 47-C , 86-H ) :   0.9826
B( 47-C , 87-H ) :   0.9830 B( 48-C , 49-C ) :   1.2491 B( 48-C , 88-H ) :   0.9726
B( 49-C , 51-C ) :   1.1917 B( 50-C , 89-H ) :   0.9722

MP2 TOTAL ENERGY:    -2130.873882854 Eh
FINAL SINGLE POINT ENERGY     -2130.873882854487

DIPOLE MOMENT
-------------
                                X             Y             Z
Electronic contribution:     -4.54620       5.06226      -0.07311
Nuclear contribution   :      0.06273       0.22817       0.09858
                        -----------------------------------------
Total Dipole Moment    :     -4.48347       5.29043       0.02547
                        -----------------------------------------
Magnitude (a.u.)       :      6.93476
Magnitude (Debye)      :     17.62676

Rotational constants in cm-1:     0.001498     0.001472     0.000763
Rotational constants in MHz :    44.911401    44.134710    22.866000

                             ****ORCA TERMINATED NORMALLY****
TOTAL RUN TIME: 0 days 1 hours 16 minutes 2 seconds 992 msec
