                         Program Version 5.0.4 -  RELEASE  -
|  1> ! PAL2
|  2> ! mp2 cc-pvdz TightSCF  NoKeepInts
|  3>
|  4> %scf
|  5>   MaxCore 2000
|  6> end
|  7> %mp2
|  8>   MaxCore 2000
|  9> end
| 10> * xyz 0 1
| 11>    C       -4.20900         5.66900         1.21600
| 12>    C        1.47400         4.04100         0.05700
| 13>    C       -2.80200         4.09300         0.04900
| 14>    C       -3.00000         4.85500        -1.11300
| 15>    C       -3.78600         5.98900        -1.07300
| 16>    C       -5.18600         7.62100         0.09700
| 17>    C        0.13200         4.30700         0.06100
| 18>    C       -0.56900         3.05600         0.04700
| 19>    C        1.64900         2.61800         0.02300
| 20>    C       -3.42700         4.53000         1.22700
| 21>    N       -4.38100         6.38000         0.07800
| 22>    N        0.38800         2.06700         0.02500
| 23>    N       -2.01000         0.39500        -0.07500
| 24>    N       -0.38800        -2.07400        -0.02700
| 25>    N        2.01000        -0.40100         0.06500
| 26>    C       -1.96000         2.86100         0.02400
| 27>    C       -2.62300         1.61500        -0.01800
| 28>    C       -5.57300        -4.32900         1.06600
| 29>    C       -4.07300         1.47100         0.05600
| 30>    C       -4.10600        -2.75600        -0.02600
| 31>    C       -4.99500        -2.75700        -1.11100
| 32>    C       -6.13200        -3.54200        -1.07600
| 33>    C       -7.65100        -5.11300         0.04000
| 34>    C       -4.32400         0.14100         0.03700
| 35>    C       -3.02500        -0.52000        -0.04800
| 36>    C       -4.42200        -3.56600         1.07500
| 37>    N       -6.40700        -4.31300         0.00100
| 38>    C       -2.86700        -1.92200        -0.04000
| 39>    C       -1.65000        -2.62400        -0.02700
| 40>    C        3.56800        -6.14200        -1.04000
| 41>    C       -1.47600        -4.04900        -0.03400
| 42>    C        2.80300        -4.09900        -0.00800
| 43>    C        3.65700        -4.38400         1.06900
| 44>    C        4.42700        -5.53000         1.05900
| 45>    C        5.24500        -7.58800         0.01400
| 46>    C       -0.13400        -4.31500        -0.02200
| 47>    C        0.56800        -3.06400        -0.02700
| 48>    C        2.77500        -5.01200        -1.07400
| 49>    N        4.37600        -6.39100         0.01700
| 50>    C        1.95900        -2.86900        -0.00900
| 51>    C        2.62100        -1.62200         0.00900
| 52>    C        5.54300         4.33900        -1.13000
| 53>    C        4.07000        -1.47900        -0.09400
| 54>    C        4.10400         2.75100        -0.02100
| 55>    C        5.02700         2.72900         1.03600
| 56>    C        6.16600         3.50900         0.97800
| 57>    C        7.61900         5.15300        -0.11500
| 58>    C        4.32100        -0.14800        -0.09200
| 59>    C        3.02500         0.51400         0.01500
| 60>    C        4.38700         3.58200        -1.11500
| 61>    C        2.86600         1.91600         0.01300
| 62>    N        6.41300         4.29600        -0.09500
| 63>    H       -4.72000         6.03500         2.09800
| 64>    H        2.27400         4.76600         0.08100
| 65>    H       -2.53700         4.57400        -2.05100
| 66>    H       -3.96100         6.61200        -1.94000
| 67>    H       -4.52400         8.47200         0.27200
| 68>    H       -5.68800         7.72800        -0.86500
| 69>    H       -5.92300         7.54900         0.89700
| 70>    H       -0.33200         5.28200         0.06900
| 71>    H       -3.32400         3.97700         2.15400
| 72>    H        0.18200         1.07200         0.00500
| 73>    H       -0.18300        -1.08000        -0.02100
| 74>    H       -5.86400        -4.96200         1.89500
| 75>    H       -4.79400         2.27200         0.13900
| 76>    H       -4.80000        -2.16000        -1.99400
| 77>    H       -6.84100        -3.58200        -1.89300
| 78>    H       -8.42800        -4.53600         0.54600
| 79>    H       -7.95600        -5.33700        -0.98100
| 80>    H       -7.45600        -6.03700         0.58400
| 81>    H       -5.28700        -0.34400         0.10000
| 82>    H       -3.78000        -3.60100         1.94700
| 83>    H        3.58700        -6.86800        -1.84300
| 84>    H       -2.27600        -4.77400        -0.05000
| 85>    H        3.71400        -3.72400         1.92600
| 86>    H        5.09200        -5.79500         1.87100
| 87>    H        6.20500        -7.32900        -0.43900
| 88>    H        5.39300        -7.91700         1.04200
| 89>    H        4.75900        -8.37300        -0.56400
| 90>    H        0.32900        -5.29000        -0.00800
| 91>    H        2.14600        -4.84200        -1.94000
| 92>    H        5.80800         4.98600        -1.95600
| 93>    H        4.78800        -2.28100        -0.18500
| 94>    H        4.86000         2.11400         1.91200
| 95>    H        6.90100         3.53100         1.77200
| 96>    H        7.38300         6.10900         0.35600
| 97>    H        8.41400         4.65200         0.43500
| 98>    H        7.92100         5.31000        -1.15000
| 99>    H        5.28300         0.33600        -0.17900
|100>    H        3.72000         3.63200        -1.96700
|101> *
|102>
|103>                          ****END OF INPUT****

CARTESIAN COORDINATES (ANGSTROEM)
---------------------------------
  C     -4.209000    5.669000    1.216000
  C      1.474000    4.041000    0.057000
  C     -2.802000    4.093000    0.049000
  C     -3.000000    4.855000   -1.113000
  C     -3.786000    5.989000   -1.073000
  C     -5.186000    7.621000    0.097000
  C      0.132000    4.307000    0.061000
  C     -0.569000    3.056000    0.047000
  C      1.649000    2.618000    0.023000
  C     -3.427000    4.530000    1.227000
  N     -4.381000    6.380000    0.078000
  N      0.388000    2.067000    0.025000
  N     -2.010000    0.395000   -0.075000
  N     -0.388000   -2.074000   -0.027000
  N      2.010000   -0.401000    0.065000
  C     -1.960000    2.861000    0.024000
  C     -2.623000    1.615000   -0.018000
  C     -5.573000   -4.329000    1.066000
  C     -4.073000    1.471000    0.056000
  C     -4.106000   -2.756000   -0.026000
  C     -4.995000   -2.757000   -1.111000
  C     -6.132000   -3.542000   -1.076000
  C     -7.651000   -5.113000    0.040000
  C     -4.324000    0.141000    0.037000
  C     -3.025000   -0.520000   -0.048000
  C     -4.422000   -3.566000    1.075000
  N     -6.407000   -4.313000    0.001000
  C     -2.867000   -1.922000   -0.040000
  C     -1.650000   -2.624000   -0.027000
  C      3.568000   -6.142000   -1.040000
  C     -1.476000   -4.049000   -0.034000
  C      2.803000   -4.099000   -0.008000
  C      3.657000   -4.384000    1.069000
  C      4.427000   -5.530000    1.059000
  C      5.245000   -7.588000    0.014000
  C     -0.134000   -4.315000   -0.022000
  C      0.568000   -3.064000   -0.027000
  C      2.775000   -5.012000   -1.074000
  N      4.376000   -6.391000    0.017000
  C      1.959000   -2.869000   -0.009000
  C      2.621000   -1.622000    0.009000
  C      5.543000    4.339000   -1.130000
  C      4.070000   -1.479000   -0.094000
  C      4.104000    2.751000   -0.021000
  C      5.027000    2.729000    1.036000
  C      6.166000    3.509000    0.978000
  C      7.619000    5.153000   -0.115000
  C      4.321000   -0.148000   -0.092000
  C      3.025000    0.514000    0.015000
  C      4.387000    3.582000   -1.115000
  C      2.866000    1.916000    0.013000
  N      6.413000    4.296000   -0.095000
  H     -4.720000    6.035000    2.098000
  H      2.274000    4.766000    0.081000
  H     -2.537000    4.574000   -2.051000
  H     -3.961000    6.612000   -1.940000
  H     -4.524000    8.472000    0.272000
  H     -5.688000    7.728000   -0.865000
  H     -5.923000    7.549000    0.897000
  H     -0.332000    5.282000    0.069000
  H     -3.324000    3.977000    2.154000
  H      0.182000    1.072000    0.005000
  H     -0.183000   -1.080000   -0.021000
  H     -5.864000   -4.962000    1.895000
  H     -4.794000    2.272000    0.139000
  H     -4.800000   -2.160000   -1.994000
  H     -6.841000   -3.582000   -1.893000
  H     -8.428000   -4.536000    0.546000
  H     -7.956000   -5.337000   -0.981000
  H     -7.456000   -6.037000    0.584000
  H     -5.287000   -0.344000    0.100000
  H     -3.780000   -3.601000    1.947000
  H      3.587000   -6.868000   -1.843000
  H     -2.276000   -4.774000   -0.050000
  H      3.714000   -3.724000    1.926000
  H      5.092000   -5.795000    1.871000
  H      6.205000   -7.329000   -0.439000
  H      5.393000   -7.917000    1.042000
  H      4.759000   -8.373000   -0.564000
  H      0.329000   -5.290000   -0.008000
  H      2.146000   -4.842000   -1.940000
  H      5.808000    4.986000   -1.956000
  H      4.788000   -2.281000   -0.185000
  H      4.860000    2.114000    1.912000
  H      6.901000    3.531000    1.772000
  H      7.383000    6.109000    0.356000
  H      8.414000    4.652000    0.435000
  H      7.921000    5.310000   -1.150000
  H      5.283000    0.336000   -0.179000
  H      3.720000    3.632000   -1.967000

 Total Charge           Charge          ....    0
 Multiplicity           Mult            ....    1
 Number of Electrons    NEL             ....  358
 Basis Dimension        Dim             ....  918

ORBITAL ENERGIES
----------------

  NO   OCC          E(Eh)            E(eV)
   0   2.0000     -15.698618      -427.1811
   1   2.0000     -15.632907      -425.3930
   2   2.0000     -15.620840      -425.0647
   3   2.0000     -15.587720      -424.1634
   4   2.0000     -15.519804      -422.3153
   5   2.0000     -15.506973      -421.9662
   6   2.0000     -15.449723      -420.4083
   7   2.0000     -15.429989      -419.8714
   8   2.0000     -11.341772      -308.6253
   9   2.0000     -11.341101      -308.6070
  10   2.0000     -11.338093      -308.5252
  11   2.0000     -11.298950      -307.4600
  12   2.0000     -11.295307      -307.3609
  13   2.0000     -11.293140      -307.3020
  14   2.0000     -11.290995      -307.2436
  15   2.0000     -11.285179      -307.0853
  16   2.0000     -11.282534      -307.0133
  17   2.0000     -11.274321      -306.7899
  18   2.0000     -11.274134      -306.7848
  19   2.0000     -11.273748      -306.7743
  20   2.0000     -11.270269      -306.6796
  21   2.0000     -11.252485      -306.1957
  22   2.0000     -11.249151      -306.1050
  23   2.0000     -11.236398      -305.7579
  24   2.0000     -11.229705      -305.5758
  25   2.0000     -11.228819      -305.5517
  26   2.0000     -11.225128      -305.4513
  27   2.0000     -11.220645      -305.3293
  28   2.0000     -11.220341      -305.3210
  29   2.0000     -11.207064      -304.9597
  30   2.0000     -11.206227      -304.9369
  31   2.0000     -11.196647      -304.6763
  32   2.0000     -11.195855      -304.6547
  33   2.0000     -11.193807      -304.5990
  34   2.0000     -11.190040      -304.4965
  35   2.0000     -11.188854      -304.4642
  36   2.0000     -11.188624      -304.4579
  37   2.0000     -11.183575      -304.3205
  38   2.0000     -11.183354      -304.3145
  39   2.0000     -11.172308      -304.0140
  40   2.0000     -11.166045      -303.8435
  41   2.0000     -11.164251      -303.7947
  42   2.0000     -11.162195      -303.7388
  43   2.0000     -11.161757      -303.7268
  44   2.0000     -11.158027      -303.6254
  45   2.0000     -11.149839      -303.4026
  46   2.0000     -11.149454      -303.3921
  47   2.0000     -11.143975      -303.2430
  48   2.0000     -11.143613      -303.2331
  49   2.0000     -11.135866      -303.0223
  50   2.0000     -11.121723      -302.6375
  51   2.0000     -11.117203      -302.5145
  52   2.0000      -1.374643       -37.4059
  53   2.0000      -1.320411       -35.9302
  54   2.0000      -1.309567       -35.6351
  55   2.0000      -1.281472       -34.8706
  56   2.0000      -1.221864       -33.2486
  57   2.0000      -1.203178       -32.7401
  58   2.0000      -1.173232       -31.9253
  59   2.0000      -1.153220       -31.3807
  60   2.0000      -1.141105       -31.0510
  61   2.0000      -1.108945       -30.1759
  62   2.0000      -1.099230       -29.9116
  63   2.0000      -1.094396       -29.7800
  64   2.0000      -1.074442       -29.2371
  65   2.0000      -1.046755       -28.4836
  66   2.0000      -1.044534       -28.4232
  67   2.0000      -1.034421       -28.1480
  68   2.0000      -1.013976       -27.5917
  69   2.0000      -1.008226       -27.4352
  70   2.0000      -1.004765       -27.3410
  71   2.0000      -0.990600       -26.9556
  72   2.0000      -0.984099       -26.7787
  73   2.0000      -0.979367       -26.6499
  74   2.0000      -0.965530       -26.2734
  75   2.0000      -0.961038       -26.1512
  76   2.0000      -0.951691       -25.8968
  77   2.0000      -0.942632       -25.6503
  78   2.0000      -0.923634       -25.1334
  79   2.0000      -0.920665       -25.0526
  80   2.0000      -0.915844       -24.9214
  81   2.0000      -0.889170       -24.1955
  82   2.0000      -0.880197       -23.9514
  83   2.0000      -0.870998       -23.7011
  84   2.0000      -0.861782       -23.4503
  85   2.0000      -0.849383       -23.1129
  86   2.0000      -0.835712       -22.7409
  87   2.0000      -0.829034       -22.5592
  88   2.0000      -0.821938       -22.3661
  89   2.0000      -0.795396       -21.6438
  90   2.0000      -0.788972       -21.4690
  91   2.0000      -0.761618       -20.7247
  92   2.0000      -0.733876       -19.9698
  93   2.0000      -0.728030       -19.8107
  94   2.0000      -0.725593       -19.7444
  95   2.0000      -0.721260       -19.6265
  96   2.0000      -0.716590       -19.4994
  97   2.0000      -0.707352       -19.2480
  98   2.0000      -0.701655       -19.0930
  99   2.0000      -0.695930       -18.9372
 100   2.0000      -0.695455       -18.9243
 101   2.0000      -0.691359       -18.8128
 102   2.0000      -0.683522       -18.5996
 103   2.0000      -0.675546       -18.3825
 104   2.0000      -0.672661       -18.3040
 105   2.0000      -0.669455       -18.2168
 106   2.0000      -0.664678       -18.0868
 107   2.0000      -0.657410       -17.8890
 108   2.0000      -0.654063       -17.7980
 109   2.0000      -0.651629       -17.7317
 110   2.0000      -0.649060       -17.6618
 111   2.0000      -0.643933       -17.5223
 112   2.0000      -0.641394       -17.4532
 113   2.0000      -0.638548       -17.3758
 114   2.0000      -0.632486       -17.2108
 115   2.0000      -0.624901       -17.0044
 116   2.0000      -0.622021       -16.9260
 117   2.0000      -0.621691       -16.9171
 118   2.0000      -0.613804       -16.7025
 119   2.0000      -0.611704       -16.6453
 120   2.0000      -0.609710       -16.5911
 121   2.0000      -0.602451       -16.3935
 122   2.0000      -0.591879       -16.1058
 123   2.0000      -0.586520       -15.9600
 124   2.0000      -0.580956       -15.8086
 125   2.0000      -0.580081       -15.7848
 126   2.0000      -0.578104       -15.7310
 127   2.0000      -0.576171       -15.6784
 128   2.0000      -0.572309       -15.5733
 129   2.0000      -0.558462       -15.1965
 130   2.0000      -0.556418       -15.1409
 131   2.0000      -0.550154       -14.9704
 132   2.0000      -0.543256       -14.7827
 133   2.0000      -0.539306       -14.6753
 134   2.0000      -0.534691       -14.5497
 135   2.0000      -0.530460       -14.4345
 136   2.0000      -0.518776       -14.1166
 137   2.0000      -0.515549       -14.0288
 138   2.0000      -0.515449       -14.0261
 139   2.0000      -0.512878       -13.9561
 140   2.0000      -0.510359       -13.8876
 141   2.0000      -0.504374       -13.7247
 142   2.0000      -0.502001       -13.6602
 143   2.0000      -0.500335       -13.6148
 144   2.0000      -0.495764       -13.4904
 145   2.0000      -0.493865       -13.4387
 146   2.0000      -0.491391       -13.3714
 147   2.0000      -0.477681       -12.9984
 148   2.0000      -0.476775       -12.9737
 149   2.0000      -0.465190       -12.6585
 150   2.0000      -0.462492       -12.5850
 151   2.0000      -0.458727       -12.4826
 152   2.0000      -0.451230       -12.2786
 153   2.0000      -0.441627       -12.0173
 154   2.0000      -0.436373       -11.8743
 155   2.0000      -0.434609       -11.8263
 156   2.0000      -0.422343       -11.4925
 157   2.0000      -0.416160       -11.3243
 158   2.0000      -0.409583       -11.1453
 159   2.0000      -0.397478       -10.8159
 160   2.0000      -0.382421       -10.4062
 161   2.0000      -0.371151       -10.0995
 162   2.0000      -0.355932        -9.6854
 163   2.0000      -0.355381        -9.6704
 164   2.0000      -0.347268        -9.4496
 165   2.0000      -0.339338        -9.2339
 166   2.0000      -0.339139        -9.2284
 167   2.0000      -0.324695        -8.8354
 168   2.0000      -0.315492        -8.5850
 169   2.0000      -0.301498        -8.2042
 170   2.0000      -0.298640        -8.1264
 171   2.0000      -0.284017        -7.7285
 172   2.0000      -0.278579        -7.5805
 173   2.0000      -0.264446        -7.1959
 174   2.0000      -0.233377        -6.3505
 175   2.0000      -0.184157        -5.0112
 176   2.0000      -0.174212        -4.7405
 177   2.0000      -0.062599        -1.7034
 178   2.0000      -0.050956        -1.3866
 179   0.0000       0.034471         0.9380
 180   0.0000       0.058686         1.5969
 181   0.0000       0.086208         2.3458
 182   0.0000       0.097543         2.6543
 183   0.0000       0.102560         2.7908

MULLIKEN ATOMIC CHARGES
-----------------------
   0 C :    0.231060
   1 N :   -0.419232
   2 C :   -0.066484
   3 N :   -0.342228
   4 C :   -0.070256
   5 N :   -0.565656
   6 C :   -0.031025
   7 N :   -0.336803
   8 C :    0.229545
   9 N :   -0.566018
  10 C :    0.105165
  11 N :   -0.439063
  12 C :   -0.060110
  13 N :   -0.449718
  14 C :    0.224323
  15 N :   -0.441558
  16 C :    0.252987
  17 C :   -0.036148
  18 C :   -0.185326
  19 C :    0.234265
  20 C :    0.191791
  21 C :   -0.070915
  22 C :   -0.089296
  23 C :   -0.064647
  24 C :    0.216619
  25 C :    0.114562
  26 C :   -0.066910
  27 C :    0.244563
  28 C :   -0.041287
  29 C :   -0.195810
  30 C :    0.222634
  31 C :    0.190309
  32 C :   -0.065655
  33 C :   -0.100251
  34 C :   -0.050735
  35 C :    0.181657
  36 C :    0.120215
  37 C :   -0.070172
  38 C :    0.243210
  39 C :   -0.064625
  40 C :   -0.202674
  41 C :    0.217368
  42 C :    0.210966
  43 C :   -0.076577
  44 C :   -0.091756
  45 C :   -0.040011
  46 C :    0.186493
  47 C :    0.116617
  48 C :   -0.080778
  49 C :    0.210538
  50 C :   -0.065547
  51 C :   -0.189055
  52 H :    0.078124
  53 H :   -0.008041
  54 H :    0.063238
  55 H :    0.075828
  56 H :    0.080607
  57 H :    0.073104
  58 H :    0.071776
  59 H :   -0.026808
  60 H :    0.064333
  61 H :    0.176622
  62 H :    0.168416
  63 H :    0.053682
  64 H :   -0.031876
  65 H :    0.042268
  66 H :    0.055792
  67 H :    0.059168
  68 H :    0.056594
  69 H :    0.059259
  70 H :   -0.015365
  71 H :    0.047224
  72 H :    0.039632
  73 H :   -0.019337
  74 H :    0.031383
  75 H :    0.038423
  76 H :    0.047997
  77 H :    0.047437
  78 H :    0.046684
  79 H :   -0.012072
  80 H :    0.031230
  81 H :    0.050562
  82 H :   -0.022781
  83 H :    0.042776
  84 H :    0.049748
  85 H :    0.054830
  86 H :    0.056329
  87 H :    0.054620
  88 H :   -0.029194
  89 H :    0.039224
Sum of atomic charges:   -0.0000000

LOEWDIN ATOMIC CHARGES
----------------------
   0 C :    0.032257
   1 N :    0.182192
   2 C :   -0.099585
   3 N :    0.172732
   4 C :    0.103188
   5 N :   -0.146784
   6 C :   -0.010314
   7 N :    0.177724
   8 C :    0.031252
   9 N :   -0.138895
  10 C :    0.037916
  11 N :    0.140871
  12 C :   -0.097493
  13 N :    0.116725
  14 C :   -0.060168
  15 N :    0.135046
  16 C :   -0.020721
  17 C :   -0.011834
  18 C :   -0.118002
  19 C :   -0.089252
  20 C :   -0.014773
  21 C :   -0.099728
  22 C :    0.036597
  23 C :   -0.031707
  24 C :    0.007329
  25 C :    0.029597
  26 C :   -0.093753
  27 C :   -0.060097
  28 C :   -0.015452
  29 C :   -0.117744
  30 C :   -0.062873
  31 C :   -0.023513
  32 C :   -0.101787
  33 C :   -0.000935
  34 C :   -0.026161
  35 C :   -0.031193
  36 C :    0.023871
  37 C :   -0.109262
  38 C :   -0.031081
  39 C :   -0.033269
  40 C :   -0.113099
  41 C :   -0.092889
  42 C :   -0.000153
  43 C :   -0.112498
  44 C :    0.027829
  45 C :   -0.015211
  46 C :   -0.021380
  47 C :    0.028300
  48 C :   -0.112894
  49 C :   -0.113744
  50 C :   -0.032375
  51 C :   -0.108258
  52 H :    0.040288
  53 H :    0.007213
  54 H :    0.053695
  55 H :    0.039636
  56 H :    0.037656
  57 H :    0.038371
  58 H :    0.038297
  59 H :   -0.000087
  60 H :    0.054093
  61 H :    0.062411
  62 H :    0.058066
  63 H :    0.029208
  64 H :   -0.004748
  65 H :    0.042499
  66 H :    0.030245
  67 H :    0.026824
  68 H :    0.031301
  69 H :    0.031417
  70 H :    0.002230
  71 H :    0.045619
  72 H :    0.023012
  73 H :    0.001718
  74 H :    0.038537
  75 H :    0.022099
  76 H :    0.020931
  77 H :    0.026549
  78 H :    0.026239
  79 H :    0.005374
  80 H :    0.037719
  81 H :    0.028011
  82 H :   -0.001280
  83 H :    0.044066
  84 H :    0.027036
  85 H :    0.024542
  86 H :    0.030344
  87 H :    0.030162
  88 H :   -0.004633
  89 H :    0.040792

  Mayer bond orders larger than 0.100000
B(  0-C ,  1-N ) :   1.1853 B(  0-C , 17-C ) :   1.5410 B(  0-C , 52-H ) :   0.9674
B(  1-N ,  8-C ) :   1.1819 B(  1-N , 10-C ) :   0.9330 B(  2-C , 12-C ) :   1.5699
B(  2-C , 16-C ) :   1.2849 B(  2-C , 53-H ) :   0.9790 B(  3-N , 14-C ) :   1.1792
B(  3-N , 16-C ) :   1.2029 B(  3-N , 61-H ) :   0.8957 B(  4-C ,  6-C ) :   1.3367
B(  4-C , 17-C ) :   1.3442 B(  4-C , 18-C ) :   1.0928 B(  5-N , 19-C ) :   1.3731
B(  5-N , 27-C ) :   1.4418 B(  6-C ,  8-C ) :   1.5472 B(  6-C , 54-H ) :   0.9710
B(  7-N , 30-C ) :   1.1863 B(  7-N , 38-C ) :   1.2131 B(  7-N , 62-H ) :   0.9009
B(  8-C , 55-H ) :   0.9681 B(  9-N , 41-C ) :   1.4312 B(  9-N , 49-C ) :   1.3956
B( 10-C , 56-H ) :   0.9765 B( 10-C , 57-H ) :   0.9809 B( 10-C , 58-H ) :   0.9820
B( 11-N , 20-C ) :   1.1035 B( 11-N , 24-C ) :   1.1345 B( 11-N , 25-C ) :   0.9607
B( 12-C , 14-C ) :   1.2849 B( 12-C , 59-H ) :   0.9769 B( 13-N , 31-C ) :   1.0881
B( 13-N , 35-C ) :   1.0787 B( 13-N , 36-C ) :   0.9789 B( 14-C , 18-C ) :   1.2485
B( 15-N , 42-C ) :   1.1246 B( 15-N , 46-C ) :   1.0933 B( 15-N , 47-C ) :   0.9657
B( 16-C , 51-C ) :   1.2352 B( 17-C , 60-H ) :   0.9709 B( 18-C , 19-C ) :   1.2955
B( 19-C , 21-C ) :   1.1700 B( 20-C , 28-C ) :   1.6262 B( 20-C , 63-H ) :   0.9708
B( 21-C , 26-C ) :   1.6763 B( 21-C , 64-H ) :   0.9720 B( 22-C , 23-C ) :   1.2619
B( 22-C , 28-C ) :   1.2803 B( 22-C , 29-C ) :   1.2512 B( 23-C , 24-C ) :   1.6301
B( 23-C , 65-H ) :   0.9720 B( 24-C , 66-H ) :   0.9690 B( 25-C , 67-H ) :   0.9763
B( 25-C , 68-H ) :   0.9833 B( 25-C , 69-H ) :   0.9819 B( 26-C , 27-C ) :   1.1780
B( 26-C , 70-H ) :   0.9752 B( 27-C , 29-C ) :   1.2412 B( 28-C , 71-H ) :   0.9709
B( 29-C , 30-C ) :   1.1793 B( 30-C , 32-C ) :   1.3465 B( 31-C , 39-C ) :   1.6762
B( 31-C , 72-H ) :   0.9707 B( 32-C , 37-C ) :   1.5128 B( 32-C , 73-H ) :   0.9771
B( 33-C , 34-C ) :   1.2390 B( 33-C , 39-C ) :   1.2317 B( 33-C , 40-C ) :   1.3402
B( 34-C , 35-C ) :   1.6745 B( 34-C , 74-H ) :   0.9709 B( 35-C , 75-H ) :   0.9707
B( 36-C , 76-H ) :   0.9756 B( 36-C , 77-H ) :   0.9825 B( 36-C , 78-H ) :   0.9837
B( 37-C , 38-C ) :   1.3421 B( 37-C , 79-H ) :   0.9790 B( 38-C , 40-C ) :   1.1816
B( 39-C , 80-H ) :   0.9720 B( 40-C , 41-C ) :   1.1774 B( 41-C , 43-C ) :   1.2478
B( 42-C , 50-C ) :   1.6407 B( 42-C , 81-H ) :   0.9696 B( 43-C , 48-C ) :   1.6033
B( 43-C , 82-H ) :   0.9754 B( 44-C , 45-C ) :   1.2795 B( 44-C , 50-C ) :   1.2519
B( 44-C , 51-C ) :   1.2490 B( 45-C , 46-C ) :   1.6328 B( 45-C , 83-H ) :   0.9704
B( 46-C , 84-H ) :   0.9708 B( 47-C , 85-H ) :   0.9760 B( 47-C , 86-H ) :   0.9826
B( 47-C , 87-H ) :   0.9829 B( 48-C , 49-C ) :   1.2429 B( 48-C , 88-H ) :   0.9728
B( 49-C , 51-C ) :   1.1975 B( 50-C , 89-H ) :   0.9721

MP2 TOTAL ENERGY:    -2130.883209790 Eh
FINAL SINGLE POINT ENERGY     -2130.883209789965

DIPOLE MOMENT
-------------
                                X             Y             Z
Electronic contribution:     -3.92317       4.11436      -0.08095
Nuclear contribution   :      0.06440       0.23086       0.10285
                        -----------------------------------------
Total Dipole Moment    :     -3.85876       4.34522       0.02190
                        -----------------------------------------
Magnitude (a.u.)       :      5.81132
Magnitude (Debye)      :     14.77120

Rotational constants in cm-1:     0.001498     0.001473     0.000763
Rotational constants in MHz :    44.910992    44.144502    22.863616

                             ****ORCA TERMINATED NORMALLY****
TOTAL RUN TIME: 0 days 1 hours 17 minutes 0 seconds 400 msec
