                         Program Version 5.0.4 -  RELEASE  -
|  1> ! PAL2
|  2> ! mp2 cc-pvdz TightSCF  NoKeepInts
|  3>
|  4> %scf
|  5>   MaxCore 2000
|  6> end
|  7> %mp2
|  8>   MaxCore 2000
|  9> end
| 10> * xyz 0 1
| 11>    C       -4.25800         5.63500         1.20000
| 12>    C        1.47400         4.04100         0.05700
| 13>    C       -2.80200         4.09300         0.04900
| 14>    C       -2.94900         4.88900        -1.09700
| 15>    C       -3.73600         6.02300        -1.05800
| 16>    C       -5.18500         7.62100         0.09800
| 17>    C        0.13200         4.30700         0.06100
| 18>    C       -0.56900         3.05600         0.04700
| 19>    C        1.64900         2.61800         0.02300
| 20>    C       -3.47800         4.49600         1.21100
| 21>    N       -4.38000         6.38000         0.07800
| 22>    N        0.38800         2.06700         0.02500
| 23>    N       -2.01000         0.39500        -0.07500
| 24>    N       -0.38800        -2.07400        -0.02700
| 25>    N        2.01000        -0.40100         0.06500
| 26>    C       -1.96000         2.86100         0.02400
| 27>    C       -2.62300         1.61500        -0.01800
| 28>    C       -5.57300        -4.32900         1.06600
| 29>    C       -4.07300         1.47100         0.05600
| 30>    C       -4.10600        -2.75600        -0.02600
| 31>    C       -4.99500        -2.75700        -1.11100
| 32>    C       -6.13200        -3.54200        -1.07600
| 33>    C       -7.65100        -5.11300         0.04000
| 34>    C       -4.32400         0.14100         0.03700
| 35>    C       -3.02500        -0.52000        -0.04800
| 36>    C       -4.42200        -3.56600         1.07500
| 37>    N       -6.40700        -4.31300         0.00100
| 38>    C       -2.86700        -1.92200        -0.04000
| 39>    C       -1.65000        -2.62400        -0.02700
| 40>    C        3.56800        -6.14200        -1.04000
| 41>    C       -1.47600        -4.04900        -0.03400
| 42>    C        2.80300        -4.09900        -0.00800
| 43>    C        3.65700        -4.38400         1.06900
| 44>    C        4.42700        -5.53000         1.05900
| 45>    C        5.24500        -7.58800         0.01400
| 46>    C       -0.13400        -4.31500        -0.02200
| 47>    C        0.56800        -3.06400        -0.02700
| 48>    C        2.77500        -5.01200        -1.07400
| 49>    N        4.37600        -6.39100         0.01700
| 50>    C        1.95900        -2.86900        -0.00900
| 51>    C        2.62100        -1.62200         0.00900
| 52>    C        5.54300         4.33900        -1.13000
| 53>    C        4.07000        -1.47900        -0.09400
| 54>    C        4.10400         2.75100        -0.02100
| 55>    C        5.02700         2.72900         1.03600
| 56>    C        6.16600         3.50900         0.97800
| 57>    C        7.61900         5.15300        -0.11500
| 58>    C        4.32100        -0.14800        -0.09200
| 59>    C        3.02500         0.51400         0.01500
| 60>    C        4.38700         3.58200        -1.11500
| 61>    C        2.86600         1.91600         0.01300
| 62>    N        6.41300         4.29600        -0.09500
| 63>    H       -4.80700         5.97600         2.06900
| 64>    H        2.27400         4.76600         0.08100
| 65>    H       -2.44500         4.63600        -2.02200
| 66>    H       -3.87300         6.67200        -1.91300
| 67>    H       -4.53100         8.46600         0.32700
| 68>    H       -5.64500         7.75800        -0.88100
| 69>    H       -5.95600         7.52700         0.86300
| 70>    H       -0.33200         5.28200         0.06900
| 71>    H       -3.41500         3.91500         2.12500
| 72>    H        0.18200         1.07200         0.00500
| 73>    H       -0.18300        -1.08000        -0.02100
| 74>    H       -5.86400        -4.96200         1.89500
| 75>    H       -4.79400         2.27200         0.13900
| 76>    H       -4.80000        -2.16000        -1.99400
| 77>    H       -6.84100        -3.58200        -1.89300
| 78>    H       -8.42800        -4.53600         0.54600
| 79>    H       -7.95600        -5.33700        -0.98100
| 80>    H       -7.45600        -6.03700         0.58400
| 81>    H       -5.28700        -0.34400         0.10000
| 82>    H       -3.78000        -3.60100         1.94700
| 83>    H        3.58700        -6.86800        -1.84300
| 84>    H       -2.27600        -4.77400        -0.05000
| 85>    H        3.71400        -3.72400         1.92600
| 86>    H        5.09200        -5.79500         1.87100
| 87>    H        6.20500        -7.32900        -0.43900
| 88>    H        5.39300        -7.91700         1.04200
| 89>    H        4.75900        -8.37300        -0.56400
| 90>    H        0.32900        -5.29000        -0.00800
| 91>    H        2.14600        -4.84200        -1.94000
| 92>    H        5.80800         4.98600        -1.95600
| 93>    H        4.78800        -2.28100        -0.18500
| 94>    H        4.86000         2.11400         1.91200
| 95>    H        6.90100         3.53100         1.77200
| 96>    H        7.38300         6.10900         0.35600
| 97>    H        8.41400         4.65200         0.43500
| 98>    H        7.92100         5.31000        -1.15000
| 99>    H        5.28300         0.33600        -0.17900
|100>    H        3.72000         3.63200        -1.96700
|101> *
|102>
|103>                          ****END OF INPUT****

CARTESIAN COORDINATES (ANGSTROEM)
---------------------------------
  C     -4.258000    5.635000    1.200000
  C      1.474000    4.041000    0.057000
  C     -2.802000    4.093000    0.049000
  C     -2.949000    4.889000   -1.097000
  C     -3.736000    6.023000   -1.058000
  C     -5.185000    7.621000    0.098000
  C      0.132000    4.307000    0.061000
  C     -0.569000    3.056000    0.047000
  C      1.649000    2.618000    0.023000
  C     -3.478000    4.496000    1.211000
  N     -4.380000    6.380000    0.078000
  N      0.388000    2.067000    0.025000
  N     -2.010000    0.395000   -0.075000
  N     -0.388000   -2.074000   -0.027000
  N      2.010000   -0.401000    0.065000
  C     -1.960000    2.861000    0.024000
  C     -2.623000    1.615000   -0.018000
  C     -5.573000   -4.329000    1.066000
  C     -4.073000    1.471000    0.056000
  C     -4.106000   -2.756000   -0.026000
  C     -4.995000   -2.757000   -1.111000
  C     -6.132000   -3.542000   -1.076000
  C     -7.651000   -5.113000    0.040000
  C     -4.324000    0.141000    0.037000
  C     -3.025000   -0.520000   -0.048000
  C     -4.422000   -3.566000    1.075000
  N     -6.407000   -4.313000    0.001000
  C     -2.867000   -1.922000   -0.040000
  C     -1.650000   -2.624000   -0.027000
  C      3.568000   -6.142000   -1.040000
  C     -1.476000   -4.049000   -0.034000
  C      2.803000   -4.099000   -0.008000
  C      3.657000   -4.384000    1.069000
  C      4.427000   -5.530000    1.059000
  C      5.245000   -7.588000    0.014000
  C     -0.134000   -4.315000   -0.022000
  C      0.568000   -3.064000   -0.027000
  C      2.775000   -5.012000   -1.074000
  N      4.376000   -6.391000    0.017000
  C      1.959000   -2.869000   -0.009000
  C      2.621000   -1.622000    0.009000
  C      5.543000    4.339000   -1.130000
  C      4.070000   -1.479000   -0.094000
  C      4.104000    2.751000   -0.021000
  C      5.027000    2.729000    1.036000
  C      6.166000    3.509000    0.978000
  C      7.619000    5.153000   -0.115000
  C      4.321000   -0.148000   -0.092000
  C      3.025000    0.514000    0.015000
  C      4.387000    3.582000   -1.115000
  C      2.866000    1.916000    0.013000
  N      6.413000    4.296000   -0.095000
  H     -4.807000    5.976000    2.069000
  H      2.274000    4.766000    0.081000
  H     -2.445000    4.636000   -2.022000
  H     -3.873000    6.672000   -1.913000
  H     -4.531000    8.466000    0.327000
  H     -5.645000    7.758000   -0.881000
  H     -5.956000    7.527000    0.863000
  H     -0.332000    5.282000    0.069000
  H     -3.415000    3.915000    2.125000
  H      0.182000    1.072000    0.005000
  H     -0.183000   -1.080000   -0.021000
  H     -5.864000   -4.962000    1.895000
  H     -4.794000    2.272000    0.139000
  H     -4.800000   -2.160000   -1.994000
  H     -6.841000   -3.582000   -1.893000
  H     -8.428000   -4.536000    0.546000
  H     -7.956000   -5.337000   -0.981000
  H     -7.456000   -6.037000    0.584000
  H     -5.287000   -0.344000    0.100000
  H     -3.780000   -3.601000    1.947000
  H      3.587000   -6.868000   -1.843000
  H     -2.276000   -4.774000   -0.050000
  H      3.714000   -3.724000    1.926000
  H      5.092000   -5.795000    1.871000
  H      6.205000   -7.329000   -0.439000
  H      5.393000   -7.917000    1.042000
  H      4.759000   -8.373000   -0.564000
  H      0.329000   -5.290000   -0.008000
  H      2.146000   -4.842000   -1.940000
  H      5.808000    4.986000   -1.956000
  H      4.788000   -2.281000   -0.185000
  H      4.860000    2.114000    1.912000
  H      6.901000    3.531000    1.772000
  H      7.383000    6.109000    0.356000
  H      8.414000    4.652000    0.435000
  H      7.921000    5.310000   -1.150000
  H      5.283000    0.336000   -0.179000
  H      3.720000    3.632000   -1.967000

 Total Charge           Charge          ....    0
 Multiplicity           Mult            ....    1
 Number of Electrons    NEL             ....  358
 Basis Dimension        Dim             ....  918

ORBITAL ENERGIES
----------------

  NO   OCC          E(Eh)            E(eV)
   0   2.0000     -15.685994      -426.8376
   1   2.0000     -15.635153      -425.4542
   2   2.0000     -15.622598      -425.1125
   3   2.0000     -15.594898      -424.3587
   4   2.0000     -15.519131      -422.2970
   5   2.0000     -15.508788      -422.0156
   6   2.0000     -15.448768      -420.3824
   7   2.0000     -15.432064      -419.9278
   8   2.0000     -11.331923      -308.3573
   9   2.0000     -11.331377      -308.3425
  10   2.0000     -11.330709      -308.3243
  11   2.0000     -11.300242      -307.4952
  12   2.0000     -11.294280      -307.3330
  13   2.0000     -11.292072      -307.2729
  14   2.0000     -11.287702      -307.1540
  15   2.0000     -11.284156      -307.0575
  16   2.0000     -11.283454      -307.0384
  17   2.0000     -11.276520      -306.8497
  18   2.0000     -11.274834      -306.8038
  19   2.0000     -11.266140      -306.5673
  20   2.0000     -11.265497      -306.5498
  21   2.0000     -11.258544      -306.3606
  22   2.0000     -11.255365      -306.2741
  23   2.0000     -11.238524      -305.8158
  24   2.0000     -11.231230      -305.6173
  25   2.0000     -11.230356      -305.5935
  26   2.0000     -11.226861      -305.4984
  27   2.0000     -11.221921      -305.3640
  28   2.0000     -11.221639      -305.3563
  29   2.0000     -11.204746      -304.8966
  30   2.0000     -11.204334      -304.8854
  31   2.0000     -11.202196      -304.8272
  32   2.0000     -11.201376      -304.8049
  33   2.0000     -11.200375      -304.7777
  34   2.0000     -11.186830      -304.4091
  35   2.0000     -11.186044      -304.3877
  36   2.0000     -11.185886      -304.3834
  37   2.0000     -11.185753      -304.3798
  38   2.0000     -11.185358      -304.3691
  39   2.0000     -11.169011      -303.9242
  40   2.0000     -11.167038      -303.8706
  41   2.0000     -11.162576      -303.7491
  42   2.0000     -11.160598      -303.6953
  43   2.0000     -11.160496      -303.6925
  44   2.0000     -11.155624      -303.5600
  45   2.0000     -11.153106      -303.4914
  46   2.0000     -11.152786      -303.4827
  47   2.0000     -11.147674      -303.3436
  48   2.0000     -11.146234      -303.3044
  49   2.0000     -11.139193      -303.1128
  50   2.0000     -11.124830      -302.7220
  51   2.0000     -11.121046      -302.6191
  52   2.0000      -1.364400       -37.1272
  53   2.0000      -1.322279       -35.9810
  54   2.0000      -1.311097       -35.6768
  55   2.0000      -1.287660       -35.0390
  56   2.0000      -1.220341       -33.2072
  57   2.0000      -1.205198       -32.7951
  58   2.0000      -1.170794       -31.8589
  59   2.0000      -1.145424       -31.1686
  60   2.0000      -1.143647       -31.1202
  61   2.0000      -1.110444       -30.2167
  62   2.0000      -1.100646       -29.9501
  63   2.0000      -1.085193       -29.5296
  64   2.0000      -1.079876       -29.3849
  65   2.0000      -1.046250       -28.4699
  66   2.0000      -1.040603       -28.3162
  67   2.0000      -1.035862       -28.1872
  68   2.0000      -1.014048       -27.5936
  69   2.0000      -1.013716       -27.5846
  70   2.0000      -1.005357       -27.3572
  71   2.0000      -0.988717       -26.9044
  72   2.0000      -0.985059       -26.8048
  73   2.0000      -0.978505       -26.6265
  74   2.0000      -0.967769       -26.3343
  75   2.0000      -0.959989       -26.1226
  76   2.0000      -0.951691       -25.8968
  77   2.0000      -0.944353       -25.6971
  78   2.0000      -0.926197       -25.2031
  79   2.0000      -0.917957       -24.9789
  80   2.0000      -0.911761       -24.8103
  81   2.0000      -0.888952       -24.1896
  82   2.0000      -0.875826       -23.8324
  83   2.0000      -0.871345       -23.7105
  84   2.0000      -0.863106       -23.4863
  85   2.0000      -0.851188       -23.1620
  86   2.0000      -0.841019       -22.8853
  87   2.0000      -0.830744       -22.6057
  88   2.0000      -0.822374       -22.3779
  89   2.0000      -0.796028       -21.6610
  90   2.0000      -0.791266       -21.5315
  91   2.0000      -0.754695       -20.5363
  92   2.0000      -0.734111       -19.9762
  93   2.0000      -0.727319       -19.7913
  94   2.0000      -0.721747       -19.6397
  95   2.0000      -0.717470       -19.5234
  96   2.0000      -0.715781       -19.4774
  97   2.0000      -0.707805       -19.2603
  98   2.0000      -0.699097       -19.0234
  99   2.0000      -0.695635       -18.9292
 100   2.0000      -0.693782       -18.8788
 101   2.0000      -0.687933       -18.7196
 102   2.0000      -0.682187       -18.5632
 103   2.0000      -0.677017       -18.4226
 104   2.0000      -0.671854       -18.2821
 105   2.0000      -0.669702       -18.2235
 106   2.0000      -0.666038       -18.1238
 107   2.0000      -0.655486       -17.8367
 108   2.0000      -0.653375       -17.7792
 109   2.0000      -0.650386       -17.6979
 110   2.0000      -0.648809       -17.6550
 111   2.0000      -0.645596       -17.5676
 112   2.0000      -0.645177       -17.5562
 113   2.0000      -0.638708       -17.3801
 114   2.0000      -0.633962       -17.2510
 115   2.0000      -0.626308       -17.0427
 116   2.0000      -0.623130       -16.9562
 117   2.0000      -0.615840       -16.7579
 118   2.0000      -0.614354       -16.7174
 119   2.0000      -0.613108       -16.6835
 120   2.0000      -0.609274       -16.5792
 121   2.0000      -0.603779       -16.4297
 122   2.0000      -0.594069       -16.1654
 123   2.0000      -0.588168       -16.0049
 124   2.0000      -0.583443       -15.8763
 125   2.0000      -0.581994       -15.8369
 126   2.0000      -0.575914       -15.6714
 127   2.0000      -0.573395       -15.6029
 128   2.0000      -0.572770       -15.5859
 129   2.0000      -0.558583       -15.1998
 130   2.0000      -0.554632       -15.0923
 131   2.0000      -0.549240       -14.9456
 132   2.0000      -0.545225       -14.8363
 133   2.0000      -0.538875       -14.6635
 134   2.0000      -0.535054       -14.5596
 135   2.0000      -0.531138       -14.4530
 136   2.0000      -0.520120       -14.1532
 137   2.0000      -0.517616       -14.0850
 138   2.0000      -0.514016       -13.9871
 139   2.0000      -0.513424       -13.9710
 140   2.0000      -0.509843       -13.8735
 141   2.0000      -0.507491       -13.8095
 142   2.0000      -0.502429       -13.6718
 143   2.0000      -0.500257       -13.6127
 144   2.0000      -0.496092       -13.4994
 145   2.0000      -0.493723       -13.4349
 146   2.0000      -0.493437       -13.4271
 147   2.0000      -0.481939       -13.1142
 148   2.0000      -0.480234       -13.0678
 149   2.0000      -0.464363       -12.6360
 150   2.0000      -0.463364       -12.6088
 151   2.0000      -0.456884       -12.4324
 152   2.0000      -0.450372       -12.2553
 153   2.0000      -0.442065       -12.0292
 154   2.0000      -0.438440       -11.9305
 155   2.0000      -0.436774       -11.8852
 156   2.0000      -0.425483       -11.5780
 157   2.0000      -0.419056       -11.4031
 158   2.0000      -0.404519       -11.0075
 159   2.0000      -0.389784       -10.6066
 160   2.0000      -0.382876       -10.4186
 161   2.0000      -0.372302       -10.1308
 162   2.0000      -0.358788        -9.7631
 163   2.0000      -0.357190        -9.7196
 164   2.0000      -0.348393        -9.4803
 165   2.0000      -0.339186        -9.2297
 166   2.0000      -0.337941        -9.1958
 167   2.0000      -0.329676        -8.9709
 168   2.0000      -0.317767        -8.6469
 169   2.0000      -0.299682        -8.1548
 170   2.0000      -0.298825        -8.1315
 171   2.0000      -0.284947        -7.7538
 172   2.0000      -0.280831        -7.6418
 173   2.0000      -0.262842        -7.1523
 174   2.0000      -0.236090        -6.4243
 175   2.0000      -0.184865        -5.0304
 176   2.0000      -0.174812        -4.7569
 177   2.0000      -0.062727        -1.7069
 178   2.0000      -0.051262        -1.3949
 179   0.0000       0.033989         0.9249
 180   0.0000       0.061384         1.6703
 181   0.0000       0.090618         2.4658
 182   0.0000       0.096937         2.6378
 183   0.0000       0.105756         2.8778

MULLIKEN ATOMIC CHARGES
-----------------------
   0 C :    0.227615
   1 N :   -0.423490
   2 C :   -0.066541
   3 N :   -0.341347
   4 C :   -0.072404
   5 N :   -0.565311
   6 C :   -0.034192
   7 N :   -0.336884
   8 C :    0.223832
   9 N :   -0.565609
  10 C :    0.106519
  11 N :   -0.438495
  12 C :   -0.061173
  13 N :   -0.448266
  14 C :    0.227132
  15 N :   -0.441303
  16 C :    0.250016
  17 C :   -0.040845
  18 C :   -0.190061
  19 C :    0.235552
  20 C :    0.195126
  21 C :   -0.072313
  22 C :   -0.087897
  23 C :   -0.061925
  24 C :    0.215656
  25 C :    0.114252
  26 C :   -0.068142
  27 C :    0.241237
  28 C :   -0.042893
  29 C :   -0.194333
  30 C :    0.224634
  31 C :    0.193239
  32 C :   -0.066070
  33 C :   -0.097579
  34 C :   -0.050740
  35 C :    0.185047
  36 C :    0.119300
  37 C :   -0.069621
  38 C :    0.242141
  39 C :   -0.064053
  40 C :   -0.200616
  41 C :    0.218047
  42 C :    0.210049
  43 C :   -0.075944
  44 C :   -0.090864
  45 C :   -0.041908
  46 C :    0.189509
  47 C :    0.116373
  48 C :   -0.079851
  49 C :    0.213139
  50 C :   -0.063411
  51 C :   -0.189248
  52 H :    0.073914
  53 H :   -0.009198
  54 H :    0.059868
  55 H :    0.072023
  56 H :    0.076764
  57 H :    0.070281
  58 H :    0.068925
  59 H :   -0.024543
  60 H :    0.061206
  61 H :    0.176000
  62 H :    0.169141
  63 H :    0.054640
  64 H :   -0.029736
  65 H :    0.043606
  66 H :    0.056615
  67 H :    0.060179
  68 H :    0.057168
  69 H :    0.059517
  70 H :   -0.017171
  71 H :    0.047794
  72 H :    0.042151
  73 H :   -0.018899
  74 H :    0.033686
  75 H :    0.041001
  76 H :    0.050083
  77 H :    0.049036
  78 H :    0.048278
  79 H :   -0.012344
  80 H :    0.033612
  81 H :    0.051205
  82 H :   -0.022763
  83 H :    0.043060
  84 H :    0.050518
  85 H :    0.055703
  86 H :    0.056454
  87 H :    0.055053
  88 H :   -0.028101
  89 H :    0.040188
Sum of atomic charges:   -0.0000000

LOEWDIN ATOMIC CHARGES
----------------------
   0 C :    0.025772
   1 N :    0.173859
   2 C :   -0.100239
   3 N :    0.173780
   4 C :    0.090076
   5 N :   -0.145517
   6 C :   -0.011657
   7 N :    0.177820
   8 C :    0.024604
   9 N :   -0.139000
  10 C :    0.036051
  11 N :    0.142278
  12 C :   -0.098112
  13 N :    0.120445
  14 C :   -0.057996
  15 N :    0.135934
  16 C :   -0.024715
  17 C :   -0.013743
  18 C :   -0.115830
  19 C :   -0.088848
  20 C :   -0.011427
  21 C :   -0.100321
  22 C :    0.039364
  23 C :   -0.029526
  24 C :    0.006898
  25 C :    0.029906
  26 C :   -0.095580
  27 C :   -0.065721
  28 C :   -0.016082
  29 C :   -0.116523
  30 C :   -0.060305
  31 C :   -0.019906
  32 C :   -0.101948
  33 C :    0.005158
  34 C :   -0.025256
  35 C :   -0.027140
  36 C :    0.024738
  37 C :   -0.108025
  38 C :   -0.032856
  39 C :   -0.032003
  40 C :   -0.112451
  41 C :   -0.092791
  42 C :   -0.000650
  43 C :   -0.111035
  44 C :    0.029555
  45 C :   -0.016205
  46 C :   -0.018432
  47 C :    0.028526
  48 C :   -0.111544
  49 C :   -0.109885
  50 C :   -0.030786
  51 C :   -0.108459
  52 H :    0.038474
  53 H :    0.006647
  54 H :    0.051921
  55 H :    0.037789
  56 H :    0.035705
  57 H :    0.036978
  58 H :    0.036954
  59 H :    0.000641
  60 H :    0.052497
  61 H :    0.062114
  62 H :    0.058471
  63 H :    0.029737
  64 H :   -0.004071
  65 H :    0.043220
  66 H :    0.030546
  67 H :    0.027317
  68 H :    0.031570
  69 H :    0.031564
  70 H :    0.001364
  71 H :    0.045782
  72 H :    0.024158
  73 H :    0.001917
  74 H :    0.039486
  75 H :    0.023289
  76 H :    0.021997
  77 H :    0.027294
  78 H :    0.026980
  79 H :    0.005218
  80 H :    0.038736
  81 H :    0.028242
  82 H :   -0.001310
  83 H :    0.044087
  84 H :    0.027476
  85 H :    0.024962
  86 H :    0.030423
  87 H :    0.030368
  88 H :   -0.004109
  89 H :    0.041319

  Mayer bond orders larger than 0.100000
B(  0-C ,  1-N ) :   1.1714 B(  0-C , 17-C ) :   1.5592 B(  0-C , 52-H ) :   0.9679
B(  1-N ,  8-C ) :   1.1674 B(  1-N , 10-C ) :   0.9386 B(  2-C , 12-C ) :   1.5631
B(  2-C , 16-C ) :   1.2924 B(  2-C , 53-H ) :   0.9788 B(  3-N , 14-C ) :   1.1825
B(  3-N , 16-C ) :   1.2026 B(  3-N , 61-H ) :   0.8962 B(  4-C ,  6-C ) :   1.3248
B(  4-C , 17-C ) :   1.3299 B(  4-C , 18-C ) :   1.1212 B(  5-N , 19-C ) :   1.3801
B(  5-N , 27-C ) :   1.4363 B(  6-C ,  8-C ) :   1.5638 B(  6-C , 54-H ) :   0.9711
B(  7-N , 30-C ) :   1.1877 B(  7-N , 38-C ) :   1.2113 B(  7-N , 62-H ) :   0.9005
B(  8-C , 55-H ) :   0.9686 B(  9-N , 41-C ) :   1.4278 B(  9-N , 49-C ) :   1.3985
B( 10-C , 56-H ) :   0.9764 B( 10-C , 57-H ) :   0.9810 B( 10-C , 58-H ) :   0.9823
B( 11-N , 20-C ) :   1.1082 B( 11-N , 24-C ) :   1.1339 B( 11-N , 25-C ) :   0.9597
B( 12-C , 14-C ) :   1.2924 B( 12-C , 59-H ) :   0.9771 B( 13-N , 31-C ) :   1.0931
B( 13-N , 35-C ) :   1.0843 B( 13-N , 36-C ) :   0.9760 B( 14-C , 18-C ) :   1.2397
B( 15-N , 42-C ) :   1.1237 B( 15-N , 46-C ) :   1.0972 B( 15-N , 47-C ) :   0.9649
B( 16-C , 51-C ) :   1.2279 B( 17-C , 60-H ) :   0.9710 B( 18-C , 19-C ) :   1.2827
B( 19-C , 21-C ) :   1.1765 B( 20-C , 28-C ) :   1.6245 B( 20-C , 63-H ) :   0.9706
B( 21-C , 26-C ) :   1.6708 B( 21-C , 64-H ) :   0.9723 B( 22-C , 23-C ) :   1.2664
B( 22-C , 28-C ) :   1.2804 B( 22-C , 29-C ) :   1.2468 B( 23-C , 24-C ) :   1.6270
B( 23-C , 65-H ) :   0.9718 B( 24-C , 66-H ) :   0.9690 B( 25-C , 67-H ) :   0.9763
B( 25-C , 68-H ) :   0.9832 B( 25-C , 69-H ) :   0.9819 B( 26-C , 27-C ) :   1.1830
B( 26-C , 70-H ) :   0.9749 B( 27-C , 29-C ) :   1.2396 B( 28-C , 71-H ) :   0.9710
B( 29-C , 30-C ) :   1.1838 B( 30-C , 32-C ) :   1.3418 B( 31-C , 39-C ) :   1.6693
B( 31-C , 72-H ) :   0.9706 B( 32-C , 37-C ) :   1.5172 B( 32-C , 73-H ) :   0.9772
B( 33-C , 34-C ) :   1.2444 B( 33-C , 39-C ) :   1.2372 B( 33-C , 40-C ) :   1.3259
B( 34-C , 35-C ) :   1.6673 B( 34-C , 74-H ) :   0.9709 B( 35-C , 75-H ) :   0.9706
B( 36-C , 76-H ) :   0.9757 B( 36-C , 77-H ) :   0.9825 B( 36-C , 78-H ) :   0.9836
B( 37-C , 38-C ) :   1.3385 B( 37-C , 79-H ) :   0.9788 B( 38-C , 40-C ) :   1.1852
B( 39-C , 80-H ) :   0.9720 B( 40-C , 41-C ) :   1.1841 B( 41-C , 43-C ) :   1.2421
B( 42-C , 50-C ) :   1.6391 B( 42-C , 81-H ) :   0.9696 B( 43-C , 48-C ) :   1.6091
B( 43-C , 82-H ) :   0.9751 B( 44-C , 45-C ) :   1.2786 B( 44-C , 50-C ) :   1.2547
B( 44-C , 51-C ) :   1.2499 B( 45-C , 46-C ) :   1.6323 B( 45-C , 83-H ) :   0.9705
B( 46-C , 84-H ) :   0.9707 B( 47-C , 85-H ) :   0.9760 B( 47-C , 86-H ) :   0.9826
B( 47-C , 87-H ) :   0.9829 B( 48-C , 49-C ) :   1.2378 B( 48-C , 88-H ) :   0.9730
B( 49-C , 51-C ) :   1.2019 B( 50-C , 89-H ) :   0.9720

MP2 TOTAL ENERGY:    -2130.890695525 Eh
FINAL SINGLE POINT ENERGY     -2130.890695524931

DIPOLE MOMENT
-------------
                                X             Y             Z
Electronic contribution:     -3.35908       3.27489      -0.08672
Nuclear contribution   :      0.06684       0.23351       0.10550
                        -----------------------------------------
Total Dipole Moment    :     -3.29224       3.50840       0.01878
                        -----------------------------------------
Magnitude (a.u.)       :      4.81125
Magnitude (Debye)      :     12.22922

Rotational constants in cm-1:     0.001498     0.001473     0.000763
Rotational constants in MHz :    44.912900    44.152621    22.861678

                             ****ORCA TERMINATED NORMALLY****
TOTAL RUN TIME: 0 days 1 hours 22 minutes 26 seconds 883 msec
