                         Program Version 5.0.4 -  RELEASE  -
|  1> ! PAL2
|  2> ! mp2 cc-pvdz TightSCF  NoKeepInts
|  3>
|  4> %scf
|  5>   MaxCore 2000
|  6> end
|  7> %mp2
|  8>   MaxCore 2000
|  9> end
| 10> * xyz 0 1
| 11>    C       -3.09400         6.44500         0.50300
| 12>    C        1.47400         4.04100         0.05700
| 13>    C       -2.80200         4.09300         0.04900
| 14>    C       -4.14500         4.05700        -0.35600
| 15>    C       -4.91100         5.20500        -0.32200
| 16>    C       -5.22100         7.59700         0.09500
| 17>    C        0.13200         4.30700         0.06100
| 18>    C       -0.56900         3.05600         0.04700
| 19>    C        1.64900         2.61800         0.02300
| 20>    C       -2.28600         5.32500         0.48100
| 21>    N       -4.38500         6.37600         0.10600
| 22>    N        0.38800         2.06700         0.02500
| 23>    N       -2.01000         0.39500        -0.07500
| 24>    N       -0.38800        -2.07400        -0.02700
| 25>    N        2.01000        -0.40100         0.06500
| 26>    C       -1.96000         2.86100         0.02400
| 27>    C       -2.62300         1.61500        -0.01800
| 28>    C       -5.57300        -4.32900         1.06600
| 29>    C       -4.07300         1.47100         0.05600
| 30>    C       -4.10600        -2.75600        -0.02600
| 31>    C       -4.99500        -2.75700        -1.11100
| 32>    C       -6.13200        -3.54200        -1.07600
| 33>    C       -7.65100        -5.11300         0.04000
| 34>    C       -4.32400         0.14100         0.03700
| 35>    C       -3.02500        -0.52000        -0.04800
| 36>    C       -4.42200        -3.56600         1.07500
| 37>    N       -6.40700        -4.31300         0.00100
| 38>    C       -2.86700        -1.92200        -0.04000
| 39>    C       -1.65000        -2.62400        -0.02700
| 40>    C        3.56800        -6.14200        -1.04000
| 41>    C       -1.47600        -4.04900        -0.03400
| 42>    C        2.80300        -4.09900        -0.00800
| 43>    C        3.65700        -4.38400         1.06900
| 44>    C        4.42700        -5.53000         1.05900
| 45>    C        5.24500        -7.58800         0.01400
| 46>    C       -0.13400        -4.31500        -0.02200
| 47>    C        0.56800        -3.06400        -0.02700
| 48>    C        2.77500        -5.01200        -1.07400
| 49>    N        4.37600        -6.39100         0.01700
| 50>    C        1.95900        -2.86900        -0.00900
| 51>    C        2.62100        -1.62200         0.00900
| 52>    C        5.54300         4.33900        -1.13000
| 53>    C        4.07000        -1.47900        -0.09400
| 54>    C        4.10400         2.75100        -0.02100
| 55>    C        5.02700         2.72900         1.03600
| 56>    C        6.16600         3.50900         0.97800
| 57>    C        7.61900         5.15300        -0.11500
| 58>    C        4.32100        -0.14800        -0.09200
| 59>    C        3.02500         0.51400         0.01500
| 60>    C        4.38700         3.58200        -1.11500
| 61>    C        2.86600         1.91600         0.01300
| 62>    N        6.41300         4.29600        -0.09500
| 63>    H       -2.74200         7.41200         0.84000
| 64>    H        2.27400         4.76600         0.08100
| 65>    H       -4.59800         3.13800        -0.70900
| 66>    H       -5.94800         5.22800        -0.63300
| 67>    H       -5.16800         8.05500        -0.89500
| 68>    H       -6.25000         7.32000         0.32600
| 69>    H       -4.84300         8.28700         0.84800
| 70>    H       -0.33200         5.28200         0.06900
| 71>    H       -1.26100         5.41400         0.82000
| 72>    H        0.18200         1.07200         0.00500
| 73>    H       -0.18300        -1.08000        -0.02100
| 74>    H       -5.86400        -4.96200         1.89500
| 75>    H       -4.79400         2.27200         0.13900
| 76>    H       -4.80000        -2.16000        -1.99400
| 77>    H       -6.84100        -3.58200        -1.89300
| 78>    H       -8.42800        -4.53600         0.54600
| 79>    H       -7.95600        -5.33700        -0.98100
| 80>    H       -7.45600        -6.03700         0.58400
| 81>    H       -5.28700        -0.34400         0.10000
| 82>    H       -3.78000        -3.60100         1.94700
| 83>    H        3.58700        -6.86800        -1.84300
| 84>    H       -2.27600        -4.77400        -0.05000
| 85>    H        3.71400        -3.72400         1.92600
| 86>    H        5.09200        -5.79500         1.87100
| 87>    H        6.20500        -7.32900        -0.43900
| 88>    H        5.39300        -7.91700         1.04200
| 89>    H        4.75900        -8.37300        -0.56400
| 90>    H        0.32900        -5.29000        -0.00800
| 91>    H        2.14600        -4.84200        -1.94000
| 92>    H        5.80800         4.98600        -1.95600
| 93>    H        4.78800        -2.28100        -0.18500
| 94>    H        4.86000         2.11400         1.91200
| 95>    H        6.90100         3.53100         1.77200
| 96>    H        7.38300         6.10900         0.35600
| 97>    H        8.41400         4.65200         0.43500
| 98>    H        7.92100         5.31000        -1.15000
| 99>    H        5.28300         0.33600        -0.17900
|100>    H        3.72000         3.63200        -1.96700
|101> *
|102>
|103>                          ****END OF INPUT****

CARTESIAN COORDINATES (ANGSTROEM)
---------------------------------
  C     -3.094000    6.445000    0.503000
  C      1.474000    4.041000    0.057000
  C     -2.802000    4.093000    0.049000
  C     -4.145000    4.057000   -0.356000
  C     -4.911000    5.205000   -0.322000
  C     -5.221000    7.597000    0.095000
  C      0.132000    4.307000    0.061000
  C     -0.569000    3.056000    0.047000
  C      1.649000    2.618000    0.023000
  C     -2.286000    5.325000    0.481000
  N     -4.385000    6.376000    0.106000
  N      0.388000    2.067000    0.025000
  N     -2.010000    0.395000   -0.075000
  N     -0.388000   -2.074000   -0.027000
  N      2.010000   -0.401000    0.065000
  C     -1.960000    2.861000    0.024000
  C     -2.623000    1.615000   -0.018000
  C     -5.573000   -4.329000    1.066000
  C     -4.073000    1.471000    0.056000
  C     -4.106000   -2.756000   -0.026000
  C     -4.995000   -2.757000   -1.111000
  C     -6.132000   -3.542000   -1.076000
  C     -7.651000   -5.113000    0.040000
  C     -4.324000    0.141000    0.037000
  C     -3.025000   -0.520000   -0.048000
  C     -4.422000   -3.566000    1.075000
  N     -6.407000   -4.313000    0.001000
  C     -2.867000   -1.922000   -0.040000
  C     -1.650000   -2.624000   -0.027000
  C      3.568000   -6.142000   -1.040000
  C     -1.476000   -4.049000   -0.034000
  C      2.803000   -4.099000   -0.008000
  C      3.657000   -4.384000    1.069000
  C      4.427000   -5.530000    1.059000
  C      5.245000   -7.588000    0.014000
  C     -0.134000   -4.315000   -0.022000
  C      0.568000   -3.064000   -0.027000
  C      2.775000   -5.012000   -1.074000
  N      4.376000   -6.391000    0.017000
  C      1.959000   -2.869000   -0.009000
  C      2.621000   -1.622000    0.009000
  C      5.543000    4.339000   -1.130000
  C      4.070000   -1.479000   -0.094000
  C      4.104000    2.751000   -0.021000
  C      5.027000    2.729000    1.036000
  C      6.166000    3.509000    0.978000
  C      7.619000    5.153000   -0.115000
  C      4.321000   -0.148000   -0.092000
  C      3.025000    0.514000    0.015000
  C      4.387000    3.582000   -1.115000
  C      2.866000    1.916000    0.013000
  N      6.413000    4.296000   -0.095000
  H     -2.742000    7.412000    0.840000
  H      2.274000    4.766000    0.081000
  H     -4.598000    3.138000   -0.709000
  H     -5.948000    5.228000   -0.633000
  H     -5.168000    8.055000   -0.895000
  H     -6.250000    7.320000    0.326000
  H     -4.843000    8.287000    0.848000
  H     -0.332000    5.282000    0.069000
  H     -1.261000    5.414000    0.820000
  H      0.182000    1.072000    0.005000
  H     -0.183000   -1.080000   -0.021000
  H     -5.864000   -4.962000    1.895000
  H     -4.794000    2.272000    0.139000
  H     -4.800000   -2.160000   -1.994000
  H     -6.841000   -3.582000   -1.893000
  H     -8.428000   -4.536000    0.546000
  H     -7.956000   -5.337000   -0.981000
  H     -7.456000   -6.037000    0.584000
  H     -5.287000   -0.344000    0.100000
  H     -3.780000   -3.601000    1.947000
  H      3.587000   -6.868000   -1.843000
  H     -2.276000   -4.774000   -0.050000
  H      3.714000   -3.724000    1.926000
  H      5.092000   -5.795000    1.871000
  H      6.205000   -7.329000   -0.439000
  H      5.393000   -7.917000    1.042000
  H      4.759000   -8.373000   -0.564000
  H      0.329000   -5.290000   -0.008000
  H      2.146000   -4.842000   -1.940000
  H      5.808000    4.986000   -1.956000
  H      4.788000   -2.281000   -0.185000
  H      4.860000    2.114000    1.912000
  H      6.901000    3.531000    1.772000
  H      7.383000    6.109000    0.356000
  H      8.414000    4.652000    0.435000
  H      7.921000    5.310000   -1.150000
  H      5.283000    0.336000   -0.179000
  H      3.720000    3.632000   -1.967000

 Total Charge           Charge          ....    0
 Multiplicity           Mult            ....    1
 Number of Electrons    NEL             ....  358
 Basis Dimension        Dim             ....  918

ORBITAL ENERGIES
----------------

  NO   OCC          E(Eh)            E(eV)
   0   2.0000     -15.678520      -426.6342
   1   2.0000     -15.635784      -425.4713
   2   2.0000     -15.630092      -425.3164
   3   2.0000     -15.587494      -424.1573
   4   2.0000     -15.525603      -422.4731
   5   2.0000     -15.515474      -422.1975
   6   2.0000     -15.453191      -420.5027
   7   2.0000     -15.441251      -420.1778
   8   2.0000     -11.328621      -308.2675
   9   2.0000     -11.327146      -308.2273
  10   2.0000     -11.327017      -308.2238
  11   2.0000     -11.300462      -307.5012
  12   2.0000     -11.297260      -307.4141
  13   2.0000     -11.294442      -307.3374
  14   2.0000     -11.289651      -307.2070
  15   2.0000     -11.288301      -307.1703
  16   2.0000     -11.285123      -307.0838
  17   2.0000     -11.280878      -306.9683
  18   2.0000     -11.270274      -306.6797
  19   2.0000     -11.262512      -306.4685
  20   2.0000     -11.261539      -306.4420
  21   2.0000     -11.252946      -306.2082
  22   2.0000     -11.249485      -306.1141
  23   2.0000     -11.239515      -305.8427
  24   2.0000     -11.234925      -305.7179
  25   2.0000     -11.232560      -305.6535
  26   2.0000     -11.231939      -305.6366
  27   2.0000     -11.228453      -305.5417
  28   2.0000     -11.228127      -305.5329
  29   2.0000     -11.211654      -305.0846
  30   2.0000     -11.210174      -305.0444
  31   2.0000     -11.195024      -304.6321
  32   2.0000     -11.191094      -304.5251
  33   2.0000     -11.189801      -304.4900
  34   2.0000     -11.188158      -304.4453
  35   2.0000     -11.187179      -304.4186
  36   2.0000     -11.185897      -304.3837
  37   2.0000     -11.182396      -304.2885
  38   2.0000     -11.181051      -304.2519
  39   2.0000     -11.174953      -304.0859
  40   2.0000     -11.173685      -304.0514
  41   2.0000     -11.169442      -303.9360
  42   2.0000     -11.169256      -303.9309
  43   2.0000     -11.160739      -303.6991
  44   2.0000     -11.160508      -303.6929
  45   2.0000     -11.157928      -303.6227
  46   2.0000     -11.155308      -303.5513
  47   2.0000     -11.154965      -303.5420
  48   2.0000     -11.146190      -303.3032
  49   2.0000     -11.135949      -303.0246
  50   2.0000     -11.131024      -302.8906
  51   2.0000     -11.119389      -302.5740
  52   2.0000      -1.359298       -36.9884
  53   2.0000      -1.322798       -35.9952
  54   2.0000      -1.318116       -35.8678
  55   2.0000      -1.281117       -34.8610
  56   2.0000      -1.226680       -33.3797
  57   2.0000      -1.209853       -32.9218
  58   2.0000      -1.172574       -31.9074
  59   2.0000      -1.151640       -31.3377
  60   2.0000      -1.142744       -31.0957
  61   2.0000      -1.111502       -30.2455
  62   2.0000      -1.107789       -30.1445
  63   2.0000      -1.081079       -29.4177
  64   2.0000      -1.077568       -29.3221
  65   2.0000      -1.046936       -28.4886
  66   2.0000      -1.042838       -28.3771
  67   2.0000      -1.040610       -28.3164
  68   2.0000      -1.015244       -27.6262
  69   2.0000      -1.011935       -27.5362
  70   2.0000      -1.008755       -27.4496
  71   2.0000      -0.994026       -27.0488
  72   2.0000      -0.985773       -26.8243
  73   2.0000      -0.981535       -26.7089
  74   2.0000      -0.971979       -26.4489
  75   2.0000      -0.961254       -26.1571
  76   2.0000      -0.953929       -25.9577
  77   2.0000      -0.945643       -25.7323
  78   2.0000      -0.935469       -25.4554
  79   2.0000      -0.917677       -24.9713
  80   2.0000      -0.909599       -24.7515
  81   2.0000      -0.895566       -24.3696
  82   2.0000      -0.875944       -23.8356
  83   2.0000      -0.873415       -23.7668
  84   2.0000      -0.869107       -23.6496
  85   2.0000      -0.857815       -23.3423
  86   2.0000      -0.839493       -22.8438
  87   2.0000      -0.836330       -22.7577
  88   2.0000      -0.825395       -22.4601
  89   2.0000      -0.797070       -21.6894
  90   2.0000      -0.789666       -21.4879
  91   2.0000      -0.753740       -20.5103
  92   2.0000      -0.748993       -20.3811
  93   2.0000      -0.733841       -19.9688
  94   2.0000      -0.725516       -19.7423
  95   2.0000      -0.722901       -19.6711
  96   2.0000      -0.717393       -19.5213
  97   2.0000      -0.714436       -19.4408
  98   2.0000      -0.709232       -19.2992
  99   2.0000      -0.698087       -18.9959
 100   2.0000      -0.696447       -18.9513
 101   2.0000      -0.685921       -18.6649
 102   2.0000      -0.683434       -18.5972
 103   2.0000      -0.682522       -18.5724
 104   2.0000      -0.679265       -18.4838
 105   2.0000      -0.673375       -18.3235
 106   2.0000      -0.671246       -18.2655
 107   2.0000      -0.660502       -17.9732
 108   2.0000      -0.656281       -17.8583
 109   2.0000      -0.654093       -17.7988
 110   2.0000      -0.650446       -17.6995
 111   2.0000      -0.645222       -17.5574
 112   2.0000      -0.644406       -17.5352
 113   2.0000      -0.637885       -17.3577
 114   2.0000      -0.636812       -17.3285
 115   2.0000      -0.627250       -17.0683
 116   2.0000      -0.621665       -16.9164
 117   2.0000      -0.620348       -16.8805
 118   2.0000      -0.613926       -16.7058
 119   2.0000      -0.613246       -16.6873
 120   2.0000      -0.610627       -16.6160
 121   2.0000      -0.610039       -16.6000
 122   2.0000      -0.599694       -16.3185
 123   2.0000      -0.586757       -15.9665
 124   2.0000      -0.582646       -15.8546
 125   2.0000      -0.580500       -15.7962
 126   2.0000      -0.579174       -15.7601
 127   2.0000      -0.572541       -15.5796
 128   2.0000      -0.569242       -15.4899
 129   2.0000      -0.559368       -15.2212
 130   2.0000      -0.551835       -15.0162
 131   2.0000      -0.547813       -14.9068
 132   2.0000      -0.542924       -14.7737
 133   2.0000      -0.542420       -14.7600
 134   2.0000      -0.539352       -14.6765
 135   2.0000      -0.534965       -14.5571
 136   2.0000      -0.529390       -14.4054
 137   2.0000      -0.519875       -14.1465
 138   2.0000      -0.518268       -14.1028
 139   2.0000      -0.514408       -13.9978
 140   2.0000      -0.511908       -13.9297
 141   2.0000      -0.510664       -13.8959
 142   2.0000      -0.509758       -13.8712
 143   2.0000      -0.503938       -13.7129
 144   2.0000      -0.501075       -13.6350
 145   2.0000      -0.495545       -13.4845
 146   2.0000      -0.491780       -13.3820
 147   2.0000      -0.482013       -13.1162
 148   2.0000      -0.477755       -13.0004
 149   2.0000      -0.467387       -12.7182
 150   2.0000      -0.465982       -12.6800
 151   2.0000      -0.457034       -12.4365
 152   2.0000      -0.450876       -12.2690
 153   2.0000      -0.445655       -12.1269
 154   2.0000      -0.440017       -11.9735
 155   2.0000      -0.427745       -11.6395
 156   2.0000      -0.415100       -11.2954
 157   2.0000      -0.408125       -11.1056
 158   2.0000      -0.405555       -11.0357
 159   2.0000      -0.387186       -10.5359
 160   2.0000      -0.386749       -10.5240
 161   2.0000      -0.377851       -10.2818
 162   2.0000      -0.371393       -10.1061
 163   2.0000      -0.357936        -9.7399
 164   2.0000      -0.354660        -9.6508
 165   2.0000      -0.341158        -9.2834
 166   2.0000      -0.337888        -9.1944
 167   2.0000      -0.325949        -8.8695
 168   2.0000      -0.321032        -8.7357
 169   2.0000      -0.305863        -8.3229
 170   2.0000      -0.299299        -8.1444
 171   2.0000      -0.285031        -7.7561
 172   2.0000      -0.279613        -7.6087
 173   2.0000      -0.262984        -7.1562
 174   2.0000      -0.242006        -6.5853
 175   2.0000      -0.190113        -5.1732
 176   2.0000      -0.180779        -4.9192
 177   2.0000      -0.078657        -2.1404
 178   2.0000      -0.059289        -1.6133
 179   0.0000       0.028180         0.7668
 180   0.0000       0.065334         1.7778
 181   0.0000       0.090622         2.4660
 182   0.0000       0.107026         2.9123
 183   0.0000       0.113493         3.0883

MULLIKEN ATOMIC CHARGES
-----------------------
   0 C :    0.217744
   1 N :   -0.456715
   2 C :   -0.074247
   3 N :   -0.339572
   4 C :   -0.059095
   5 N :   -0.565097
   6 C :   -0.116351
   7 N :   -0.340807
   8 C :    0.207989
   9 N :   -0.562490
  10 C :    0.119316
  11 N :   -0.438114
  12 C :   -0.068690
  13 N :   -0.429641
  14 C :    0.214974
  15 N :   -0.441305
  16 C :    0.231969
  17 C :   -0.127592
  18 C :   -0.155460
  19 C :    0.202000
  20 C :    0.214326
  21 C :   -0.082298
  22 C :   -0.089312
  23 C :   -0.039964
  24 C :    0.194595
  25 C :    0.114366
  26 C :   -0.086114
  27 C :    0.212958
  28 C :   -0.061316
  29 C :   -0.182373
  30 C :    0.245897
  31 C :    0.230486
  32 C :   -0.061346
  33 C :   -0.060920
  34 C :   -0.050343
  35 C :    0.227045
  36 C :    0.108389
  37 C :   -0.064275
  38 C :    0.231907
  39 C :   -0.058433
  40 C :   -0.180928
  41 C :    0.224889
  42 C :    0.197103
  43 C :   -0.072615
  44 C :   -0.090596
  45 C :   -0.061441
  46 C :    0.210595
  47 C :    0.115555
  48 C :   -0.067277
  49 C :    0.238184
  50 C :   -0.046368
  51 C :   -0.194861
  52 H :    0.037434
  53 H :   -0.017712
  54 H :    0.052793
  55 H :    0.035621
  56 H :    0.048670
  57 H :    0.048259
  58 H :    0.046158
  59 H :   -0.002167
  60 H :    0.048296
  61 H :    0.170930
  62 H :    0.175673
  63 H :    0.055953
  64 H :   -0.007365
  65 H :    0.046991
  66 H :    0.056077
  67 H :    0.063014
  68 H :    0.057498
  69 H :    0.056785
  70 H :   -0.029481
  71 H :    0.045512
  72 H :    0.071074
  73 H :   -0.007953
  74 H :    0.060207
  75 H :    0.070421
  76 H :    0.074747
  77 H :    0.067821
  78 H :    0.067036
  79 H :   -0.016202
  80 H :    0.060955
  81 H :    0.054057
  82 H :   -0.025198
  83 H :    0.041275
  84 H :    0.053582
  85 H :    0.060406
  86 H :    0.055194
  87 H :    0.056969
  88 H :   -0.014572
  89 H :    0.046913
Sum of atomic charges:   -0.0000000

LOEWDIN ATOMIC CHARGES
----------------------
   0 C :   -0.018146
   1 N :    0.117582
   2 C :   -0.102515
   3 N :    0.183143
   4 C :   -0.013463
   5 N :   -0.131770
   6 C :   -0.038403
   7 N :    0.175221
   8 C :   -0.025987
   9 N :   -0.140610
  10 C :    0.023377
  11 N :    0.142794
  12 C :   -0.114953
  13 N :    0.165741
  14 C :   -0.023909
  15 N :    0.138000
  16 C :   -0.059012
  17 C :   -0.046298
  18 C :   -0.105261
  19 C :   -0.079235
  20 C :    0.005568
  21 C :   -0.122825
  22 C :    0.038387
  23 C :   -0.014644
  24 C :   -0.011582
  25 C :    0.030025
  26 C :   -0.109200
  27 C :   -0.117026
  28 C :   -0.027018
  29 C :   -0.098774
  30 C :   -0.030726
  31 C :    0.024466
  32 C :   -0.093629
  33 C :    0.081021
  34 C :   -0.014726
  35 C :    0.021752
  36 C :    0.035124
  37 C :   -0.094119
  38 C :   -0.050762
  39 C :   -0.018157
  40 C :   -0.108233
  41 C :   -0.092798
  42 C :   -0.010794
  43 C :   -0.099600
  44 C :    0.032235
  45 C :   -0.028469
  46 C :    0.000854
  47 C :    0.029323
  48 C :   -0.095616
  49 C :   -0.069380
  50 C :   -0.018907
  51 C :   -0.109913
  52 H :    0.022948
  53 H :    0.002551
  54 H :    0.034150
  55 H :    0.022564
  56 H :    0.021422
  57 H :    0.026659
  58 H :    0.026440
  59 H :    0.010879
  60 H :    0.030473
  61 H :    0.060003
  62 H :    0.061948
  63 H :    0.031042
  64 H :    0.008904
  65 H :    0.045841
  66 H :    0.029456
  67 H :    0.028511
  68 H :    0.031750
  69 H :    0.030495
  70 H :   -0.004555
  71 H :    0.043797
  72 H :    0.037626
  73 H :    0.007151
  74 H :    0.050645
  75 H :    0.037199
  76 H :    0.034705
  77 H :    0.036102
  78 H :    0.035753
  79 H :    0.003147
  80 H :    0.050557
  81 H :    0.028942
  82 H :   -0.002899
  83 H :    0.042228
  84 H :    0.029596
  85 H :    0.027152
  86 H :    0.030014
  87 H :    0.031292
  88 H :    0.002347
  89 H :    0.045012

  Mayer bond orders larger than 0.100000
B(  0-C ,  1-N ) :   1.0975 B(  0-C , 17-C ) :   1.7129 B(  0-C , 52-H ) :   0.9640
B(  1-N ,  8-C ) :   1.0847 B(  1-N , 10-C ) :   0.9784 B(  2-C , 12-C ) :   1.4955
B(  2-C , 16-C ) :   1.3657 B(  2-C , 53-H ) :   0.9745 B(  3-N , 14-C ) :   1.2195
B(  3-N , 16-C ) :   1.1867 B(  3-N , 61-H ) :   0.8992 B(  4-C ,  6-C ) :   1.2129
B(  4-C , 17-C ) :   1.2116 B(  4-C , 18-C ) :   1.4611 B(  5-N , 19-C ) :   1.4559
B(  5-N , 27-C ) :   1.3749 B(  6-C ,  8-C ) :   1.7178 B(  6-C , 54-H ) :   0.9316
B(  7-N , 30-C ) :   1.1946 B(  7-N , 38-C ) :   1.1906 B(  7-N , 62-H ) :   0.8967
B(  8-C , 55-H ) :   0.9656 B(  9-N , 41-C ) :   1.3925 B(  9-N , 49-C ) :   1.4275
B( 10-C , 56-H ) :   0.9773 B( 10-C , 57-H ) :   0.9832 B( 10-C , 58-H ) :   0.9835
B( 11-N , 20-C ) :   1.1320 B( 11-N , 24-C ) :   1.1085 B( 11-N , 25-C ) :   0.9595
B( 12-C , 14-C ) :   1.3582 B( 12-C , 59-H ) :   0.9613 B( 13-N , 31-C ) :   1.1615
B( 13-N , 35-C ) :   1.1582 B( 13-N , 36-C ) :   0.9418 B( 14-C , 18-C ) :   1.1212
B( 15-N , 42-C ) :   1.1069 B( 15-N , 46-C ) :   1.1229 B( 15-N , 47-C ) :   0.9619
B( 16-C , 51-C ) :   1.1681 B( 17-C , 60-H ) :   0.9317 B( 18-C , 19-C ) :   1.1204
B( 19-C , 21-C ) :   1.2503 B( 20-C , 28-C ) :   1.6271 B( 20-C , 63-H ) :   0.9702
B( 21-C , 26-C ) :   1.5948 B( 21-C , 64-H ) :   0.9603 B( 22-C , 23-C ) :   1.2906
B( 22-C , 28-C ) :   1.2655 B( 22-C , 29-C ) :   1.2231 B( 23-C , 24-C ) :   1.6186
B( 23-C , 65-H ) :   0.9704 B( 24-C , 66-H ) :   0.9695 B( 25-C , 67-H ) :   0.9760
B( 25-C , 68-H ) :   0.9828 B( 25-C , 69-H ) :   0.9823 B( 26-C , 27-C ) :   1.2504
B( 26-C , 70-H ) :   0.9686 B( 27-C , 29-C ) :   1.2086 B( 28-C , 71-H ) :   0.9719
B( 29-C , 30-C ) :   1.2466 B( 30-C , 32-C ) :   1.2784 B( 31-C , 39-C ) :   1.5889
B( 31-C , 72-H ) :   0.9681 B( 32-C , 37-C ) :   1.5808 B( 32-C , 73-H ) :   0.9785
B( 33-C , 34-C ) :   1.3073 B( 33-C , 39-C ) :   1.3026 B( 33-C , 40-C ) :   1.1766
B( 34-C , 35-C ) :   1.5859 B( 34-C , 74-H ) :   0.9696 B( 35-C , 75-H ) :   0.9682
B( 36-C , 76-H ) :   0.9767 B( 36-C , 77-H ) :   0.9816 B( 36-C , 78-H ) :   0.9823
B( 37-C , 38-C ) :   1.2837 B( 37-C , 79-H ) :   0.9765 B( 38-C , 40-C ) :   1.2347
B( 39-C , 80-H ) :   0.9706 B( 40-C , 41-C ) :   1.2499 B( 41-C , 43-C ) :   1.1864
B( 42-C , 50-C ) :   1.6349 B( 42-C , 81-H ) :   0.9696 B( 43-C , 48-C ) :   1.6660
B( 43-C , 82-H ) :   0.9721 B( 44-C , 45-C ) :   1.2624 B( 44-C , 50-C ) :   1.2706
B( 44-C , 51-C ) :   1.2639 B( 45-C , 46-C ) :   1.6361 B( 45-C , 83-H ) :   0.9718
B( 46-C , 84-H ) :   0.9701 B( 47-C , 85-H ) :   0.9762 B( 47-C , 86-H ) :   0.9829
B( 47-C , 87-H ) :   0.9825 B( 48-C , 49-C ) :   1.1899 B( 48-C , 88-H ) :   0.9749
B( 49-C , 51-C ) :   1.2416 B( 50-C , 89-H ) :   0.9709

MP2 TOTAL ENERGY:    -2130.852183868 Eh
FINAL SINGLE POINT ENERGY     -2130.852183867876

DIPOLE MOMENT
-------------
                                X             Y             Z
Electronic contribution:      2.60635      -4.34203      -0.07047
Nuclear contribution   :     -0.01945       0.17356       0.08102
                        -----------------------------------------
Total Dipole Moment    :      2.58689      -4.16846       0.01055
                        -----------------------------------------
Magnitude (a.u.)       :      4.90594
Magnitude (Debye)      :     12.46990

Rotational constants in cm-1:     0.001503     0.001477     0.000760
Rotational constants in MHz :    45.056394    44.278792    22.790985

                             ****ORCA TERMINATED NORMALLY****
TOTAL RUN TIME: 0 days 1 hours 4 minutes 26 seconds 919 msec
