                         Program Version 5.0.4 -  RELEASE  -
|  1> ! PAL2
|  2> ! mp2 cc-pvdz TightSCF  NoKeepInts
|  3>
|  4> %scf
|  5>   MaxCore 2000
|  6> end
|  7> %mp2
|  8>   MaxCore 2000
|  9> end
| 10> * xyz 0 1
| 11>    C       -4.09000         5.75000         1.24100
| 12>    C        1.47400         4.04100         0.05700
| 13>    C       -2.80200         4.09300         0.04900
| 14>    C       -3.12400         4.77100        -1.13700
| 15>    C       -3.90800         5.90600        -1.09600
| 16>    C       -5.18900         7.61900         0.09400
| 17>    C        0.13200         4.30700         0.06100
| 18>    C       -0.56900         3.05600         0.04700
| 19>    C        1.64900         2.61800         0.02300
| 20>    C       -3.30400         4.61300         1.25200
| 21>    N       -4.38200         6.37800         0.08000
| 22>    N        0.38800         2.06700         0.02500
| 23>    N       -2.01000         0.39500        -0.07500
| 24>    N       -0.38800        -2.07400        -0.02700
| 25>    N        2.01000        -0.40100         0.06500
| 26>    C       -1.96000         2.86100         0.02400
| 27>    C       -2.62300         1.61500        -0.01800
| 28>    C       -5.57300        -4.32900         1.06600
| 29>    C       -4.07300         1.47100         0.05600
| 30>    C       -4.10600        -2.75600        -0.02600
| 31>    C       -4.99500        -2.75700        -1.11100
| 32>    C       -6.13200        -3.54200        -1.07600
| 33>    C       -7.65100        -5.11300         0.04000
| 34>    C       -4.32400         0.14100         0.03700
| 35>    C       -3.02500        -0.52000        -0.04800
| 36>    C       -4.42200        -3.56600         1.07500
| 37>    N       -6.40700        -4.31300         0.00100
| 38>    C       -2.86700        -1.92200        -0.04000
| 39>    C       -1.65000        -2.62400        -0.02700
| 40>    C        3.56800        -6.14200        -1.04000
| 41>    C       -1.47600        -4.04900        -0.03400
| 42>    C        2.80300        -4.09900        -0.00800
| 43>    C        3.65700        -4.38400         1.06900
| 44>    C        4.42700        -5.53000         1.05900
| 45>    C        5.24500        -7.58800         0.01400
| 46>    C       -0.13400        -4.31500        -0.02200
| 47>    C        0.56800        -3.06400        -0.02700
| 48>    C        2.77500        -5.01200        -1.07400
| 49>    N        4.37600        -6.39100         0.01700
| 50>    C        1.95900        -2.86900        -0.00900
| 51>    C        2.62100        -1.62200         0.00900
| 52>    C        5.54300         4.33900        -1.13000
| 53>    C        4.07000        -1.47900        -0.09400
| 54>    C        4.10400         2.75100        -0.02100
| 55>    C        5.02700         2.72900         1.03600
| 56>    C        6.16600         3.50900         0.97800
| 57>    C        7.61900         5.15300        -0.11500
| 58>    C        4.32100        -0.14800        -0.09200
| 59>    C        3.02500         0.51400         0.01500
| 60>    C        4.38700         3.58200        -1.11500
| 61>    C        2.86600         1.91600         0.01300
| 62>    N        6.41300         4.29600        -0.09500
| 63>    H       -4.50900         6.17900         2.14300
| 64>    H        2.27400         4.76600         0.08100
| 65>    H       -2.75800         4.42400        -2.09600
| 66>    H       -4.17500         6.46700        -1.98300
| 67>    H       -4.51700         8.47900         0.13900
| 68>    H       -5.78800         7.65800        -0.81500
| 69>    H       -5.83800         7.60500         0.96900
| 70>    H       -0.33200         5.28200         0.06900
| 71>    H       -3.10300         4.12700         2.20000
| 72>    H        0.18200         1.07200         0.00500
| 73>    H       -0.18300        -1.08000        -0.02100
| 74>    H       -5.86400        -4.96200         1.89500
| 75>    H       -4.79400         2.27200         0.13900
| 76>    H       -4.80000        -2.16000        -1.99400
| 77>    H       -6.84100        -3.58200        -1.89300
| 78>    H       -8.42800        -4.53600         0.54600
| 79>    H       -7.95600        -5.33700        -0.98100
| 80>    H       -7.45600        -6.03700         0.58400
| 81>    H       -5.28700        -0.34400         0.10000
| 82>    H       -3.78000        -3.60100         1.94700
| 83>    H        3.58700        -6.86800        -1.84300
| 84>    H       -2.27600        -4.77400        -0.05000
| 85>    H        3.71400        -3.72400         1.92600
| 86>    H        5.09200        -5.79500         1.87100
| 87>    H        6.20500        -7.32900        -0.43900
| 88>    H        5.39300        -7.91700         1.04200
| 89>    H        4.75900        -8.37300        -0.56400
| 90>    H        0.32900        -5.29000        -0.00800
| 91>    H        2.14600        -4.84200        -1.94000
| 92>    H        5.80800         4.98600        -1.95600
| 93>    H        4.78800        -2.28100        -0.18500
| 94>    H        4.86000         2.11400         1.91200
| 95>    H        6.90100         3.53100         1.77200
| 96>    H        7.38300         6.10900         0.35600
| 97>    H        8.41400         4.65200         0.43500
| 98>    H        7.92100         5.31000        -1.15000
| 99>    H        5.28300         0.33600        -0.17900
|100>    H        3.72000         3.63200        -1.96700
|101> *
|102>
|103>                          ****END OF INPUT****

CARTESIAN COORDINATES (ANGSTROEM)
---------------------------------
  C     -4.090000    5.750000    1.241000
  C      1.474000    4.041000    0.057000
  C     -2.802000    4.093000    0.049000
  C     -3.124000    4.771000   -1.137000
  C     -3.908000    5.906000   -1.096000
  C     -5.189000    7.619000    0.094000
  C      0.132000    4.307000    0.061000
  C     -0.569000    3.056000    0.047000
  C      1.649000    2.618000    0.023000
  C     -3.304000    4.613000    1.252000
  N     -4.382000    6.378000    0.080000
  N      0.388000    2.067000    0.025000
  N     -2.010000    0.395000   -0.075000
  N     -0.388000   -2.074000   -0.027000
  N      2.010000   -0.401000    0.065000
  C     -1.960000    2.861000    0.024000
  C     -2.623000    1.615000   -0.018000
  C     -5.573000   -4.329000    1.066000
  C     -4.073000    1.471000    0.056000
  C     -4.106000   -2.756000   -0.026000
  C     -4.995000   -2.757000   -1.111000
  C     -6.132000   -3.542000   -1.076000
  C     -7.651000   -5.113000    0.040000
  C     -4.324000    0.141000    0.037000
  C     -3.025000   -0.520000   -0.048000
  C     -4.422000   -3.566000    1.075000
  N     -6.407000   -4.313000    0.001000
  C     -2.867000   -1.922000   -0.040000
  C     -1.650000   -2.624000   -0.027000
  C      3.568000   -6.142000   -1.040000
  C     -1.476000   -4.049000   -0.034000
  C      2.803000   -4.099000   -0.008000
  C      3.657000   -4.384000    1.069000
  C      4.427000   -5.530000    1.059000
  C      5.245000   -7.588000    0.014000
  C     -0.134000   -4.315000   -0.022000
  C      0.568000   -3.064000   -0.027000
  C      2.775000   -5.012000   -1.074000
  N      4.376000   -6.391000    0.017000
  C      1.959000   -2.869000   -0.009000
  C      2.621000   -1.622000    0.009000
  C      5.543000    4.339000   -1.130000
  C      4.070000   -1.479000   -0.094000
  C      4.104000    2.751000   -0.021000
  C      5.027000    2.729000    1.036000
  C      6.166000    3.509000    0.978000
  C      7.619000    5.153000   -0.115000
  C      4.321000   -0.148000   -0.092000
  C      3.025000    0.514000    0.015000
  C      4.387000    3.582000   -1.115000
  C      2.866000    1.916000    0.013000
  N      6.413000    4.296000   -0.095000
  H     -4.509000    6.179000    2.143000
  H      2.274000    4.766000    0.081000
  H     -2.758000    4.424000   -2.096000
  H     -4.175000    6.467000   -1.983000
  H     -4.517000    8.479000    0.139000
  H     -5.788000    7.658000   -0.815000
  H     -5.838000    7.605000    0.969000
  H     -0.332000    5.282000    0.069000
  H     -3.103000    4.127000    2.200000
  H      0.182000    1.072000    0.005000
  H     -0.183000   -1.080000   -0.021000
  H     -5.864000   -4.962000    1.895000
  H     -4.794000    2.272000    0.139000
  H     -4.800000   -2.160000   -1.994000
  H     -6.841000   -3.582000   -1.893000
  H     -8.428000   -4.536000    0.546000
  H     -7.956000   -5.337000   -0.981000
  H     -7.456000   -6.037000    0.584000
  H     -5.287000   -0.344000    0.100000
  H     -3.780000   -3.601000    1.947000
  H      3.587000   -6.868000   -1.843000
  H     -2.276000   -4.774000   -0.050000
  H      3.714000   -3.724000    1.926000
  H      5.092000   -5.795000    1.871000
  H      6.205000   -7.329000   -0.439000
  H      5.393000   -7.917000    1.042000
  H      4.759000   -8.373000   -0.564000
  H      0.329000   -5.290000   -0.008000
  H      2.146000   -4.842000   -1.940000
  H      5.808000    4.986000   -1.956000
  H      4.788000   -2.281000   -0.185000
  H      4.860000    2.114000    1.912000
  H      6.901000    3.531000    1.772000
  H      7.383000    6.109000    0.356000
  H      8.414000    4.652000    0.435000
  H      7.921000    5.310000   -1.150000
  H      5.283000    0.336000   -0.179000
  H      3.720000    3.632000   -1.967000

 Total Charge           Charge          ....    0
 Multiplicity           Mult            ....    1
 Number of Electrons    NEL             ....  358
 Basis Dimension        Dim             ....  918

ORBITAL ENERGIES
----------------

  NO   OCC          E(Eh)            E(eV)
   0   2.0000     -15.719249      -427.7425
   1   2.0000     -15.628716      -425.2790
   2   2.0000     -15.618272      -424.9948
   3   2.0000     -15.576747      -423.8648
   4   2.0000     -15.520777      -422.3418
   5   2.0000     -15.504183      -421.8903
   6   2.0000     -15.451281      -420.4507
   7   2.0000     -15.426825      -419.7852
   8   2.0000     -11.357032      -309.0406
   9   2.0000     -11.356233      -309.0188
  10   2.0000     -11.349892      -308.8463
  11   2.0000     -11.313151      -307.8465
  12   2.0000     -11.296525      -307.3941
  13   2.0000     -11.290795      -307.2382
  14   2.0000     -11.289428      -307.2010
  15   2.0000     -11.286286      -307.1155
  16   2.0000     -11.286233      -307.1140
  17   2.0000     -11.281240      -306.9782
  18   2.0000     -11.280660      -306.9624
  19   2.0000     -11.271034      -306.7004
  20   2.0000     -11.263280      -306.4894
  21   2.0000     -11.243245      -305.9442
  22   2.0000     -11.239601      -305.8451
  23   2.0000     -11.232454      -305.6506
  24   2.0000     -11.226916      -305.4999
  25   2.0000     -11.226020      -305.4755
  26   2.0000     -11.222600      -305.3825
  27   2.0000     -11.218758      -305.2779
  28   2.0000     -11.218430      -305.2690
  29   2.0000     -11.211100      -305.0695
  30   2.0000     -11.209318      -305.0210
  31   2.0000     -11.195364      -304.6413
  32   2.0000     -11.194268      -304.6115
  33   2.0000     -11.192976      -304.5764
  34   2.0000     -11.188363      -304.4508
  35   2.0000     -11.187600      -304.4301
  36   2.0000     -11.183325      -304.3138
  37   2.0000     -11.179811      -304.2181
  38   2.0000     -11.179776      -304.2172
  39   2.0000     -11.177711      -304.1610
  40   2.0000     -11.170054      -303.9526
  41   2.0000     -11.165126      -303.8185
  42   2.0000     -11.164595      -303.8041
  43   2.0000     -11.161834      -303.7290
  44   2.0000     -11.160565      -303.6944
  45   2.0000     -11.144691      -303.2625
  46   2.0000     -11.144142      -303.2475
  47   2.0000     -11.140617      -303.1516
  48   2.0000     -11.137405      -303.0642
  49   2.0000     -11.130822      -302.8851
  50   2.0000     -11.116778      -302.5029
  51   2.0000     -11.111108      -302.3486
  52   2.0000      -1.391303       -37.8593
  53   2.0000      -1.316923       -35.8353
  54   2.0000      -1.307330       -35.5743
  55   2.0000      -1.272005       -34.6130
  56   2.0000      -1.224424       -33.3183
  57   2.0000      -1.200199       -32.6591
  58   2.0000      -1.178103       -32.0578
  59   2.0000      -1.164749       -31.6944
  60   2.0000      -1.136922       -30.9372
  61   2.0000      -1.109039       -30.1785
  62   2.0000      -1.106178       -30.1006
  63   2.0000      -1.097155       -29.8551
  64   2.0000      -1.066170       -29.0120
  65   2.0000      -1.057249       -28.7692
  66   2.0000      -1.041356       -28.3367
  67   2.0000      -1.032302       -28.0904
  68   2.0000      -1.015182       -27.6245
  69   2.0000      -1.003940       -27.3186
  70   2.0000      -0.999214       -27.1900
  71   2.0000      -0.994935       -27.0736
  72   2.0000      -0.985453       -26.8155
  73   2.0000      -0.976154       -26.5625
  74   2.0000      -0.964312       -26.2403
  75   2.0000      -0.961399       -26.1610
  76   2.0000      -0.950781       -25.8721
  77   2.0000      -0.940425       -25.5903
  78   2.0000      -0.934979       -25.4421
  79   2.0000      -0.919803       -25.0291
  80   2.0000      -0.912303       -24.8250
  81   2.0000      -0.891029       -24.2461
  82   2.0000      -0.886602       -24.1257
  83   2.0000      -0.868438       -23.6314
  84   2.0000      -0.859832       -23.3972
  85   2.0000      -0.846442       -23.0328
  86   2.0000      -0.829025       -22.5589
  87   2.0000      -0.826558       -22.4918
  88   2.0000      -0.820190       -22.3185
  89   2.0000      -0.794335       -21.6150
  90   2.0000      -0.785776       -21.3820
  91   2.0000      -0.772024       -21.0078
  92   2.0000      -0.739909       -20.1340
  93   2.0000      -0.733561       -19.9612
  94   2.0000      -0.728814       -19.8320
  95   2.0000      -0.723815       -19.6960
  96   2.0000      -0.716153       -19.4875
  97   2.0000      -0.710369       -19.3301
  98   2.0000      -0.705818       -19.2063
  99   2.0000      -0.705360       -19.1938
 100   2.0000      -0.695778       -18.9331
 101   2.0000      -0.688089       -18.7238
 102   2.0000      -0.684027       -18.6133
 103   2.0000      -0.675592       -18.3838
 104   2.0000      -0.672553       -18.3011
 105   2.0000      -0.670891       -18.2559
 106   2.0000      -0.666747       -18.1431
 107   2.0000      -0.661710       -18.0060
 108   2.0000      -0.652124       -17.7452
 109   2.0000      -0.649010       -17.6605
 110   2.0000      -0.648364       -17.6429
 111   2.0000      -0.641867       -17.4661
 112   2.0000      -0.640428       -17.4269
 113   2.0000      -0.634491       -17.2654
 114   2.0000      -0.634008       -17.2522
 115   2.0000      -0.629322       -17.1247
 116   2.0000      -0.626978       -17.0609
 117   2.0000      -0.614942       -16.7334
 118   2.0000      -0.610806       -16.6209
 119   2.0000      -0.609063       -16.5734
 120   2.0000      -0.608508       -16.5584
 121   2.0000      -0.600494       -16.3403
 122   2.0000      -0.592518       -16.1232
 123   2.0000      -0.589248       -16.0342
 124   2.0000      -0.584286       -15.8992
 125   2.0000      -0.578310       -15.7366
 126   2.0000      -0.574765       -15.6401
 127   2.0000      -0.570743       -15.5307
 128   2.0000      -0.570388       -15.5210
 129   2.0000      -0.569951       -15.5091
 130   2.0000      -0.556254       -15.1364
 131   2.0000      -0.543134       -14.7794
 132   2.0000      -0.541978       -14.7480
 133   2.0000      -0.538512       -14.6537
 134   2.0000      -0.533537       -14.5183
 135   2.0000      -0.529182       -14.3998
 136   2.0000      -0.519321       -14.1314
 137   2.0000      -0.515730       -14.0337
 138   2.0000      -0.513564       -13.9748
 139   2.0000      -0.512098       -13.9349
 140   2.0000      -0.509875       -13.8744
 141   2.0000      -0.503274       -13.6948
 142   2.0000      -0.500982       -13.6324
 143   2.0000      -0.497617       -13.5409
 144   2.0000      -0.495278       -13.4772
 145   2.0000      -0.492847       -13.4111
 146   2.0000      -0.488465       -13.2918
 147   2.0000      -0.473302       -12.8792
 148   2.0000      -0.470200       -12.7948
 149   2.0000      -0.466089       -12.6829
 150   2.0000      -0.462496       -12.5852
 151   2.0000      -0.460045       -12.5185
 152   2.0000      -0.451944       -12.2980
 153   2.0000      -0.440800       -11.9948
 154   2.0000      -0.432874       -11.7791
 155   2.0000      -0.431107       -11.7310
 156   2.0000      -0.418263       -11.3815
 157   2.0000      -0.416823       -11.3423
 158   2.0000      -0.411265       -11.1911
 159   2.0000      -0.409549       -11.1444
 160   2.0000      -0.381435       -10.3794
 161   2.0000      -0.369370       -10.0511
 162   2.0000      -0.353443        -9.6177
 163   2.0000      -0.351762        -9.5719
 164   2.0000      -0.345464        -9.4005
 165   2.0000      -0.341524        -9.2933
 166   2.0000      -0.337989        -9.1971
 167   2.0000      -0.317086        -8.6284
 168   2.0000      -0.311951        -8.4886
 169   2.0000      -0.304850        -8.2954
 170   2.0000      -0.298091        -8.1115
 171   2.0000      -0.282482        -7.6867
 172   2.0000      -0.275447        -7.4953
 173   2.0000      -0.266502        -7.2519
 174   2.0000      -0.229050        -6.2328
 175   2.0000      -0.182984        -4.9793
 176   2.0000      -0.173202        -4.7131
 177   2.0000      -0.062684        -1.7057
 178   2.0000      -0.050689        -1.3793
 179   0.0000       0.036138         0.9834
 180   0.0000       0.054428         1.4811
 181   0.0000       0.074042         2.0148
 182   0.0000       0.098523         2.6809
 183   0.0000       0.102296         2.7836

MULLIKEN ATOMIC CHARGES
-----------------------
   0 C :    0.237283
   1 N :   -0.410288
   2 C :   -0.066238
   3 N :   -0.344055
   4 C :   -0.065308
   5 N :   -0.566292
   6 C :   -0.027712
   7 N :   -0.336740
   8 C :    0.235707
   9 N :   -0.566530
  10 C :    0.103109
  11 N :   -0.440100
  12 C :   -0.058396
  13 N :   -0.451905
  14 C :    0.219870
  15 N :   -0.441909
  16 C :    0.257817
  17 C :   -0.031256
  18 C :   -0.177084
  19 C :    0.231736
  20 C :    0.186167
  21 C :   -0.068243
  22 C :   -0.092085
  23 C :   -0.069017
  24 C :    0.217670
  25 C :    0.115144
  26 C :   -0.064751
  27 C :    0.249872
  28 C :   -0.038878
  29 C :   -0.197847
  30 C :    0.219513
  31 C :    0.186013
  32 C :   -0.064569
  33 C :   -0.104230
  34 C :   -0.050580
  35 C :    0.176416
  36 C :    0.121594
  37 C :   -0.070999
  38 C :    0.245028
  39 C :   -0.065633
  40 C :   -0.205749
  41 C :    0.216057
  42 C :    0.212512
  43 C :   -0.077690
  44 C :   -0.093079
  45 C :   -0.037051
  46 C :    0.181885
  47 C :    0.116965
  48 C :   -0.082457
  49 C :    0.206230
  50 C :   -0.068974
  51 C :   -0.188540
  52 H :    0.084434
  53 H :   -0.006111
  54 H :    0.068748
  55 H :    0.082666
  56 H :    0.087083
  57 H :    0.077631
  58 H :    0.076169
  59 H :   -0.030178
  60 H :    0.069629
  61 H :    0.177591
  62 H :    0.167291
  63 H :    0.051926
  64 H :   -0.035256
  65 H :    0.039812
  66 H :    0.054215
  67 H :    0.057364
  68 H :    0.055518
  69 H :    0.058681
  70 H :   -0.012271
  71 H :    0.046078
  72 H :    0.035784
  73 H :   -0.019708
  74 H :    0.027851
  75 H :    0.034447
  76 H :    0.044814
  77 H :    0.045003
  78 H :    0.044252
  79 H :   -0.011592
  80 H :    0.027571
  81 H :    0.049647
  82 H :   -0.022952
  83 H :    0.042369
  84 H :    0.048593
  85 H :    0.053515
  86 H :    0.056179
  87 H :    0.054000
  88 H :   -0.031039
  89 H :    0.037842
Sum of atomic charges:   -0.0000000

LOEWDIN ATOMIC CHARGES
----------------------
   0 C :    0.041610
   1 N :    0.197419
   2 C :   -0.098150
   3 N :    0.170674
   4 C :    0.125004
   5 N :   -0.148876
   6 C :   -0.009964
   7 N :    0.177507
   8 C :    0.040334
   9 N :   -0.138551
  10 C :    0.041500
  11 N :    0.138251
  12 C :   -0.096242
  13 N :    0.111071
  14 C :   -0.062839
  15 N :    0.133766
  16 C :   -0.014452
  17 C :   -0.010719
  18 C :   -0.121935
  19 C :   -0.089155
  20 C :   -0.020501
  21 C :   -0.098783
  22 C :    0.031208
  23 C :   -0.035308
  24 C :    0.007462
  25 C :    0.029015
  26 C :   -0.090607
  27 C :   -0.051181
  28 C :   -0.014619
  29 C :   -0.119169
  30 C :   -0.066780
  31 C :   -0.028873
  32 C :   -0.101012
  33 C :   -0.010178
  34 C :   -0.027457
  35 C :   -0.037464
  36 C :    0.022546
  37 C :   -0.111069
  38 C :   -0.028128
  39 C :   -0.035281
  40 C :   -0.113974
  41 C :   -0.093422
  42 C :    0.000747
  43 C :   -0.115014
  44 C :    0.025332
  45 C :   -0.013657
  46 C :   -0.025879
  47 C :    0.027967
  48 C :   -0.115373
  49 C :   -0.119910
  50 C :   -0.034878
  51 C :   -0.107925
  52 H :    0.043159
  53 H :    0.008155
  54 H :    0.056516
  55 H :    0.042897
  56 H :    0.041192
  57 H :    0.040374
  58 H :    0.040334
  59 H :   -0.001103
  60 H :    0.056743
  61 H :    0.062853
  62 H :    0.057435
  63 H :    0.028257
  64 H :   -0.005702
  65 H :    0.041209
  66 H :    0.029636
  67 H :    0.025934
  68 H :    0.030798
  69 H :    0.031104
  70 H :    0.003721
  71 H :    0.045244
  72 H :    0.021271
  73 H :    0.001560
  74 H :    0.037096
  75 H :    0.020268
  76 H :    0.019307
  77 H :    0.025415
  78 H :    0.025109
  79 H :    0.005644
  80 H :    0.036154
  81 H :    0.027693
  82 H :   -0.001299
  83 H :    0.044049
  84 H :    0.026372
  85 H :    0.023912
  86 H :    0.030243
  87 H :    0.029866
  88 H :   -0.005522
  89 H :    0.040015

  Mayer bond orders larger than 0.100000
B(  0-C ,  1-N ) :   1.2125 B(  0-C , 17-C ) :   1.5075 B(  0-C , 52-H ) :   0.9666
B(  1-N ,  8-C ) :   1.2080 B(  1-N , 10-C ) :   0.9235 B(  2-C , 12-C ) :   1.5823
B(  2-C , 16-C ) :   1.2710 B(  2-C , 53-H ) :   0.9793 B(  3-N , 14-C ) :   1.1742
B(  3-N , 16-C ) :   1.2023 B(  3-N , 61-H ) :   0.8951 B(  4-C ,  6-C ) :   1.3592
B(  4-C , 17-C ) :   1.3670 B(  4-C , 18-C ) :   1.0484 B(  5-N , 19-C ) :   1.3635
B(  5-N , 27-C ) :   1.4490 B(  6-C ,  8-C ) :   1.5136 B(  6-C , 54-H ) :   0.9706
B(  7-N , 30-C ) :   1.1838 B(  7-N , 38-C ) :   1.2160 B(  7-N , 62-H ) :   0.9016
B(  8-C , 55-H ) :   0.9674 B(  9-N , 41-C ) :   1.4360 B(  9-N , 49-C ) :   1.3917
B( 10-C , 56-H ) :   0.9768 B( 10-C , 57-H ) :   0.9807 B( 10-C , 58-H ) :   0.9815
B( 11-N , 20-C ) :   1.0956 B( 11-N , 24-C ) :   1.1345 B( 11-N , 25-C ) :   0.9626
B( 12-C , 14-C ) :   1.2714 B( 12-C , 59-H ) :   0.9766 B( 13-N , 31-C ) :   1.0807
B( 13-N , 35-C ) :   1.0704 B( 13-N , 36-C ) :   0.9832 B( 14-C , 18-C ) :   1.2640
B( 15-N , 42-C ) :   1.1262 B( 15-N , 46-C ) :   1.0876 B( 15-N , 47-C ) :   0.9668
B( 16-C , 51-C ) :   1.2495 B( 17-C , 60-H ) :   0.9706 B( 18-C , 19-C ) :   1.3142
B( 19-C , 21-C ) :   1.1597 B( 20-C , 28-C ) :   1.6296 B( 20-C , 63-H ) :   0.9710
B( 21-C , 26-C ) :   1.6851 B( 21-C , 64-H ) :   0.9715 B( 22-C , 23-C ) :   1.2544
B( 22-C , 28-C ) :   1.2797 B( 22-C , 29-C ) :   1.2577 B( 23-C , 24-C ) :   1.6357
B( 23-C , 65-H ) :   0.9723 B( 24-C , 66-H ) :   0.9691 B( 25-C , 67-H ) :   0.9762
B( 25-C , 68-H ) :   0.9834 B( 25-C , 69-H ) :   0.9819 B( 26-C , 27-C ) :   1.1699
B( 26-C , 70-H ) :   0.9758 B( 27-C , 29-C ) :   1.2445 B( 28-C , 71-H ) :   0.9709
B( 29-C , 30-C ) :   1.1727 B( 30-C , 32-C ) :   1.3532 B( 31-C , 39-C ) :   1.6869
B( 31-C , 72-H ) :   0.9709 B( 32-C , 37-C ) :   1.5069 B( 32-C , 73-H ) :   0.9771
B( 33-C , 34-C ) :   1.2309 B( 33-C , 39-C ) :   1.2232 B( 33-C , 40-C ) :   1.3625
B( 34-C , 35-C ) :   1.6855 B( 34-C , 74-H ) :   0.9710 B( 35-C , 75-H ) :   0.9709
B( 36-C , 76-H ) :   0.9755 B( 36-C , 77-H ) :   0.9826 B( 36-C , 78-H ) :   0.9838
B( 37-C , 38-C ) :   1.3465 B( 37-C , 79-H ) :   0.9793 B( 38-C , 40-C ) :   1.1768
B( 39-C , 80-H ) :   0.9721 B( 40-C , 41-C ) :   1.1668 B( 41-C , 43-C ) :   1.2575
B( 42-C , 50-C ) :   1.6430 B( 42-C , 81-H ) :   0.9697 B( 43-C , 48-C ) :   1.5936
B( 43-C , 82-H ) :   0.9757 B( 44-C , 45-C ) :   1.2810 B( 44-C , 50-C ) :   1.2477
B( 44-C , 51-C ) :   1.2469 B( 45-C , 46-C ) :   1.6335 B( 45-C , 83-H ) :   0.9702
B( 46-C , 84-H ) :   0.9709 B( 47-C , 85-H ) :   0.9759 B( 47-C , 86-H ) :   0.9825
B( 47-C , 87-H ) :   0.9830 B( 48-C , 49-C ) :   1.2517 B( 48-C , 88-H ) :   0.9726
B( 49-C , 51-C ) :   1.1890 B( 50-C , 89-H ) :   0.9723

MP2 TOTAL ENERGY:    -2130.870028491 Eh
FINAL SINGLE POINT ENERGY     -2130.870028490858

DIPOLE MOMENT
-------------
                                X             Y             Z
Electronic contribution:     -4.77038       5.44544      -0.06702
Nuclear contribution   :      0.05982       0.22839       0.09431
                        -----------------------------------------
Total Dipole Moment    :     -4.71056       5.67384       0.02728
                        -----------------------------------------
Magnitude (a.u.)       :      7.37445
Magnitude (Debye)      :     18.74436

Rotational constants in cm-1:     0.001498     0.001472     0.000763
Rotational constants in MHz :    44.911682    44.131328    22.867526

                             ****ORCA TERMINATED NORMALLY****
TOTAL RUN TIME: 0 days 1 hours 22 minutes 47 seconds 462 msec
