                         Program Version 5.0.4 -  RELEASE  -
|  1> ! PAL2
|  2> ! mp2 cc-pvdz TightSCF  NoKeepInts
|  3>
|  4> %scf
|  5>   MaxCore 2000
|  6> end
|  7> %mp2
|  8>   MaxCore 2000
|  9> end
| 10> * xyz 0 1
| 11>    C       -3.27200         6.31700         0.86100
| 12>    C        1.47400         4.04100         0.05700
| 13>    C       -2.80200         4.09300         0.04900
| 14>    C       -3.96600         4.18700        -0.73000
| 15>    C       -4.73600         5.33200        -0.69100
| 16>    C       -5.21300         7.60200         0.09000
| 17>    C        0.13200         4.30700         0.06100
| 18>    C       -0.56900         3.05600         0.04700
| 19>    C        1.64900         2.61800         0.02300
| 20>    C       -2.46600         5.19400         0.85100
| 21>    N       -4.38700         6.37500         0.09900
| 22>    N        0.38800         2.06700         0.02500
| 23>    N       -2.01000         0.39500        -0.07500
| 24>    N       -0.38800        -2.07400        -0.02700
| 25>    N        2.01000        -0.40100         0.06500
| 26>    C       -1.96000         2.86100         0.02400
| 27>    C       -2.62300         1.61500        -0.01800
| 28>    C       -5.57300        -4.32900         1.06600
| 29>    C       -4.07300         1.47100         0.05600
| 30>    C       -4.10600        -2.75600        -0.02600
| 31>    C       -4.99500        -2.75700        -1.11100
| 32>    C       -6.13200        -3.54200        -1.07600
| 33>    C       -7.65100        -5.11300         0.04000
| 34>    C       -4.32400         0.14100         0.03700
| 35>    C       -3.02500        -0.52000        -0.04800
| 36>    C       -4.42200        -3.56600         1.07500
| 37>    N       -6.40700        -4.31300         0.00100
| 38>    C       -2.86700        -1.92200        -0.04000
| 39>    C       -1.65000        -2.62400        -0.02700
| 40>    C        3.56800        -6.14200        -1.04000
| 41>    C       -1.47600        -4.04900        -0.03400
| 42>    C        2.80300        -4.09900        -0.00800
| 43>    C        3.65700        -4.38400         1.06900
| 44>    C        4.42700        -5.53000         1.05900
| 45>    C        5.24500        -7.58800         0.01400
| 46>    C       -0.13400        -4.31500        -0.02200
| 47>    C        0.56800        -3.06400        -0.02700
| 48>    C        2.77500        -5.01200        -1.07400
| 49>    N        4.37600        -6.39100         0.01700
| 50>    C        1.95900        -2.86900        -0.00900
| 51>    C        2.62100        -1.62200         0.00900
| 52>    C        5.54300         4.33900        -1.13000
| 53>    C        4.07000        -1.47900        -0.09400
| 54>    C        4.10400         2.75100        -0.02100
| 55>    C        5.02700         2.72900         1.03600
| 56>    C        6.16600         3.50900         0.97800
| 57>    C        7.61900         5.15300        -0.11500
| 58>    C        4.32100        -0.14800        -0.09200
| 59>    C        3.02500         0.51400         0.01500
| 60>    C        4.38700         3.58200        -1.11500
| 61>    C        2.86600         1.91600         0.01300
| 62>    N        6.41300         4.29600        -0.09500
| 63>    H       -3.05800         7.18400         1.47300
| 64>    H        2.27400         4.76600         0.08100
| 65>    H       -4.27300         3.37400        -1.37600
| 66>    H       -5.63600         5.45400        -1.27900
| 67>    H       -4.88300         8.24700        -0.72900
| 68>    H       -6.25700         7.32200        -0.05100
| 69>    H       -5.08900         8.11500         1.04300
| 70>    H       -0.33200         5.28200         0.06900
| 71>    H       -1.58700         5.17800         1.48600
| 72>    H        0.18200         1.07200         0.00500
| 73>    H       -0.18300        -1.08000        -0.02100
| 74>    H       -5.86400        -4.96200         1.89500
| 75>    H       -4.79400         2.27200         0.13900
| 76>    H       -4.80000        -2.16000        -1.99400
| 77>    H       -6.84100        -3.58200        -1.89300
| 78>    H       -8.42800        -4.53600         0.54600
| 79>    H       -7.95600        -5.33700        -0.98100
| 80>    H       -7.45600        -6.03700         0.58400
| 81>    H       -5.28700        -0.34400         0.10000
| 82>    H       -3.78000        -3.60100         1.94700
| 83>    H        3.58700        -6.86800        -1.84300
| 84>    H       -2.27600        -4.77400        -0.05000
| 85>    H        3.71400        -3.72400         1.92600
| 86>    H        5.09200        -5.79500         1.87100
| 87>    H        6.20500        -7.32900        -0.43900
| 88>    H        5.39300        -7.91700         1.04200
| 89>    H        4.75900        -8.37300        -0.56400
| 90>    H        0.32900        -5.29000        -0.00800
| 91>    H        2.14600        -4.84200        -1.94000
| 92>    H        5.80800         4.98600        -1.95600
| 93>    H        4.78800        -2.28100        -0.18500
| 94>    H        4.86000         2.11400         1.91200
| 95>    H        6.90100         3.53100         1.77200
| 96>    H        7.38300         6.10900         0.35600
| 97>    H        8.41400         4.65200         0.43500
| 98>    H        7.92100         5.31000        -1.15000
| 99>    H        5.28300         0.33600        -0.17900
|100>    H        3.72000         3.63200        -1.96700
|101> *
|102>
|103>                          ****END OF INPUT****

CARTESIAN COORDINATES (ANGSTROEM)
---------------------------------
  C     -3.272000    6.317000    0.861000
  C      1.474000    4.041000    0.057000
  C     -2.802000    4.093000    0.049000
  C     -3.966000    4.187000   -0.730000
  C     -4.736000    5.332000   -0.691000
  C     -5.213000    7.602000    0.090000
  C      0.132000    4.307000    0.061000
  C     -0.569000    3.056000    0.047000
  C      1.649000    2.618000    0.023000
  C     -2.466000    5.194000    0.851000
  N     -4.387000    6.375000    0.099000
  N      0.388000    2.067000    0.025000
  N     -2.010000    0.395000   -0.075000
  N     -0.388000   -2.074000   -0.027000
  N      2.010000   -0.401000    0.065000
  C     -1.960000    2.861000    0.024000
  C     -2.623000    1.615000   -0.018000
  C     -5.573000   -4.329000    1.066000
  C     -4.073000    1.471000    0.056000
  C     -4.106000   -2.756000   -0.026000
  C     -4.995000   -2.757000   -1.111000
  C     -6.132000   -3.542000   -1.076000
  C     -7.651000   -5.113000    0.040000
  C     -4.324000    0.141000    0.037000
  C     -3.025000   -0.520000   -0.048000
  C     -4.422000   -3.566000    1.075000
  N     -6.407000   -4.313000    0.001000
  C     -2.867000   -1.922000   -0.040000
  C     -1.650000   -2.624000   -0.027000
  C      3.568000   -6.142000   -1.040000
  C     -1.476000   -4.049000   -0.034000
  C      2.803000   -4.099000   -0.008000
  C      3.657000   -4.384000    1.069000
  C      4.427000   -5.530000    1.059000
  C      5.245000   -7.588000    0.014000
  C     -0.134000   -4.315000   -0.022000
  C      0.568000   -3.064000   -0.027000
  C      2.775000   -5.012000   -1.074000
  N      4.376000   -6.391000    0.017000
  C      1.959000   -2.869000   -0.009000
  C      2.621000   -1.622000    0.009000
  C      5.543000    4.339000   -1.130000
  C      4.070000   -1.479000   -0.094000
  C      4.104000    2.751000   -0.021000
  C      5.027000    2.729000    1.036000
  C      6.166000    3.509000    0.978000
  C      7.619000    5.153000   -0.115000
  C      4.321000   -0.148000   -0.092000
  C      3.025000    0.514000    0.015000
  C      4.387000    3.582000   -1.115000
  C      2.866000    1.916000    0.013000
  N      6.413000    4.296000   -0.095000
  H     -3.058000    7.184000    1.473000
  H      2.274000    4.766000    0.081000
  H     -4.273000    3.374000   -1.376000
  H     -5.636000    5.454000   -1.279000
  H     -4.883000    8.247000   -0.729000
  H     -6.257000    7.322000   -0.051000
  H     -5.089000    8.115000    1.043000
  H     -0.332000    5.282000    0.069000
  H     -1.587000    5.178000    1.486000
  H      0.182000    1.072000    0.005000
  H     -0.183000   -1.080000   -0.021000
  H     -5.864000   -4.962000    1.895000
  H     -4.794000    2.272000    0.139000
  H     -4.800000   -2.160000   -1.994000
  H     -6.841000   -3.582000   -1.893000
  H     -8.428000   -4.536000    0.546000
  H     -7.956000   -5.337000   -0.981000
  H     -7.456000   -6.037000    0.584000
  H     -5.287000   -0.344000    0.100000
  H     -3.780000   -3.601000    1.947000
  H      3.587000   -6.868000   -1.843000
  H     -2.276000   -4.774000   -0.050000
  H      3.714000   -3.724000    1.926000
  H      5.092000   -5.795000    1.871000
  H      6.205000   -7.329000   -0.439000
  H      5.393000   -7.917000    1.042000
  H      4.759000   -8.373000   -0.564000
  H      0.329000   -5.290000   -0.008000
  H      2.146000   -4.842000   -1.940000
  H      5.808000    4.986000   -1.956000
  H      4.788000   -2.281000   -0.185000
  H      4.860000    2.114000    1.912000
  H      6.901000    3.531000    1.772000
  H      7.383000    6.109000    0.356000
  H      8.414000    4.652000    0.435000
  H      7.921000    5.310000   -1.150000
  H      5.283000    0.336000   -0.179000
  H      3.720000    3.632000   -1.967000

 Total Charge           Charge          ....    0
 Multiplicity           Mult            ....    1
 Number of Electrons    NEL             ....  358
 Basis Dimension        Dim             ....  918

ORBITAL ENERGIES
----------------

  NO   OCC          E(Eh)            E(eV)
   0   2.0000     -15.665443      -426.2784
   1   2.0000     -15.638168      -425.5362
   2   2.0000     -15.628621      -425.2764
   3   2.0000     -15.596238      -424.3952
   4   2.0000     -15.524035      -422.4305
   5   2.0000     -15.515812      -422.2067
   6   2.0000     -15.450130      -420.4194
   7   2.0000     -15.443452      -420.2377
   8   2.0000     -11.319061      -308.0073
   9   2.0000     -11.317989      -307.9781
  10   2.0000     -11.315705      -307.9160
  11   2.0000     -11.301924      -307.5410
  12   2.0000     -11.296212      -307.3856
  13   2.0000     -11.295679      -307.3711
  14   2.0000     -11.291157      -307.2480
  15   2.0000     -11.287605      -307.1514
  16   2.0000     -11.284349      -307.0628
  17   2.0000     -11.276881      -306.8595
  18   2.0000     -11.268559      -306.6331
  19   2.0000     -11.261758      -306.4480
  20   2.0000     -11.259236      -306.3794
  21   2.0000     -11.253284      -306.2174
  22   2.0000     -11.252359      -306.1923
  23   2.0000     -11.241753      -305.9037
  24   2.0000     -11.234231      -305.6990
  25   2.0000     -11.233669      -305.6837
  26   2.0000     -11.233334      -305.6746
  27   2.0000     -11.227162      -305.5066
  28   2.0000     -11.226903      -305.4995
  29   2.0000     -11.208654      -305.0030
  30   2.0000     -11.207396      -304.9688
  31   2.0000     -11.206315      -304.9393
  32   2.0000     -11.201239      -304.8012
  33   2.0000     -11.200989      -304.7944
  34   2.0000     -11.190119      -304.4986
  35   2.0000     -11.189811      -304.4902
  36   2.0000     -11.185030      -304.3601
  37   2.0000     -11.181559      -304.2657
  38   2.0000     -11.180797      -304.2450
  39   2.0000     -11.174360      -304.0698
  40   2.0000     -11.170294      -303.9591
  41   2.0000     -11.168147      -303.9007
  42   2.0000     -11.166782      -303.8636
  43   2.0000     -11.163758      -303.7813
  44   2.0000     -11.162586      -303.7494
  45   2.0000     -11.160541      -303.6938
  46   2.0000     -11.154553      -303.5308
  47   2.0000     -11.150247      -303.4136
  48   2.0000     -11.148660      -303.3704
  49   2.0000     -11.143490      -303.2298
  50   2.0000     -11.136000      -303.0260
  51   2.0000     -11.129724      -302.8552
  52   2.0000      -1.348165       -36.6854
  53   2.0000      -1.324838       -36.0507
  54   2.0000      -1.316751       -35.8306
  55   2.0000      -1.289983       -35.1022
  56   2.0000      -1.224268       -33.3140
  57   2.0000      -1.210615       -32.9425
  58   2.0000      -1.168192       -31.7881
  59   2.0000      -1.154508       -31.4157
  60   2.0000      -1.133316       -30.8391
  61   2.0000      -1.113210       -30.2920
  62   2.0000      -1.106405       -30.1068
  63   2.0000      -1.084978       -29.5237
  64   2.0000      -1.070729       -29.1360
  65   2.0000      -1.048852       -28.5407
  66   2.0000      -1.041493       -28.3405
  67   2.0000      -1.034583       -28.1524
  68   2.0000      -1.017554       -27.6890
  69   2.0000      -1.014213       -27.5981
  70   2.0000      -1.009445       -27.4684
  71   2.0000      -0.992645       -27.0112
  72   2.0000      -0.987546       -26.8725
  73   2.0000      -0.977432       -26.5973
  74   2.0000      -0.972483       -26.4626
  75   2.0000      -0.959258       -26.1027
  76   2.0000      -0.951090       -25.8805
  77   2.0000      -0.947422       -25.7807
  78   2.0000      -0.936251       -25.4767
  79   2.0000      -0.920885       -25.0586
  80   2.0000      -0.901020       -24.5180
  81   2.0000      -0.891220       -24.2513
  82   2.0000      -0.875930       -23.8353
  83   2.0000      -0.870334       -23.6830
  84   2.0000      -0.865790       -23.5593
  85   2.0000      -0.855120       -23.2690
  86   2.0000      -0.842883       -22.9360
  87   2.0000      -0.838099       -22.8058
  88   2.0000      -0.822464       -22.3804
  89   2.0000      -0.798615       -21.7314
  90   2.0000      -0.794010       -21.6061
  91   2.0000      -0.745766       -20.2933
  92   2.0000      -0.737870       -20.0785
  93   2.0000      -0.732249       -19.9255
  94   2.0000      -0.723547       -19.6887
  95   2.0000      -0.719827       -19.5875
  96   2.0000      -0.714004       -19.4290
  97   2.0000      -0.706383       -19.2216
  98   2.0000      -0.702708       -19.1217
  99   2.0000      -0.696330       -18.9481
 100   2.0000      -0.694545       -18.8995
 101   2.0000      -0.682044       -18.5594
 102   2.0000      -0.679401       -18.4874
 103   2.0000      -0.674874       -18.3643
 104   2.0000      -0.674778       -18.3616
 105   2.0000      -0.670902       -18.2562
 106   2.0000      -0.665342       -18.1049
 107   2.0000      -0.662713       -18.0333
 108   2.0000      -0.656280       -17.8583
 109   2.0000      -0.653580       -17.7848
 110   2.0000      -0.649422       -17.6717
 111   2.0000      -0.645299       -17.5595
 112   2.0000      -0.642578       -17.4854
 113   2.0000      -0.636684       -17.3250
 114   2.0000      -0.635668       -17.2974
 115   2.0000      -0.628571       -17.1043
 116   2.0000      -0.624001       -16.9799
 117   2.0000      -0.615777       -16.7561
 118   2.0000      -0.614847       -16.7308
 119   2.0000      -0.612458       -16.6658
 120   2.0000      -0.608844       -16.5675
 121   2.0000      -0.602485       -16.3945
 122   2.0000      -0.600321       -16.3356
 123   2.0000      -0.587808       -15.9951
 124   2.0000      -0.585915       -15.9435
 125   2.0000      -0.583778       -15.8854
 126   2.0000      -0.578577       -15.7439
 127   2.0000      -0.577611       -15.7176
 128   2.0000      -0.563516       -15.3341
 129   2.0000      -0.558424       -15.1955
 130   2.0000      -0.553337       -15.0571
 131   2.0000      -0.548828       -14.9344
 132   2.0000      -0.542625       -14.7656
 133   2.0000      -0.539115       -14.6701
 134   2.0000      -0.536161       -14.5897
 135   2.0000      -0.534135       -14.5346
 136   2.0000      -0.525062       -14.2877
 137   2.0000      -0.524230       -14.2650
 138   2.0000      -0.517879       -14.0922
 139   2.0000      -0.514128       -13.9901
 140   2.0000      -0.510957       -13.9038
 141   2.0000      -0.510000       -13.8778
 142   2.0000      -0.509311       -13.8590
 143   2.0000      -0.502703       -13.6792
 144   2.0000      -0.500635       -13.6230
 145   2.0000      -0.496961       -13.5230
 146   2.0000      -0.494161       -13.4468
 147   2.0000      -0.485766       -13.2184
 148   2.0000      -0.483316       -13.1517
 149   2.0000      -0.468334       -12.7440
 150   2.0000      -0.464316       -12.6347
 151   2.0000      -0.456395       -12.4191
 152   2.0000      -0.448798       -12.2124
 153   2.0000      -0.446705       -12.1554
 154   2.0000      -0.444848       -12.1049
 155   2.0000      -0.440329       -11.9820
 156   2.0000      -0.431830       -11.7507
 157   2.0000      -0.427526       -11.6336
 158   2.0000      -0.401270       -10.9191
 159   2.0000      -0.385770       -10.4973
 160   2.0000      -0.379155       -10.3173
 161   2.0000      -0.377767       -10.2795
 162   2.0000      -0.370808       -10.0902
 163   2.0000      -0.359477        -9.7819
 164   2.0000      -0.353397        -9.6164
 165   2.0000      -0.337902        -9.1948
 166   2.0000      -0.337355        -9.1799
 167   2.0000      -0.330434        -8.9916
 168   2.0000      -0.328104        -8.9282
 169   2.0000      -0.302904        -8.2424
 170   2.0000      -0.299683        -8.1548
 171   2.0000      -0.286824        -7.8049
 172   2.0000      -0.283997        -7.7280
 173   2.0000      -0.260009        -7.0752
 174   2.0000      -0.245278        -6.6744
 175   2.0000      -0.189546        -5.1578
 176   2.0000      -0.179783        -4.8922
 177   2.0000      -0.072704        -1.9784
 178   2.0000      -0.057375        -1.5613
 179   0.0000       0.028946         0.7877
 180   0.0000       0.067605         1.8396
 181   0.0000       0.092117         2.5066
 182   0.0000       0.105938         2.8827
 183   0.0000       0.115741         3.1495

MULLIKEN ATOMIC CHARGES
-----------------------
   0 C :    0.207867
   1 N :   -0.452671
   2 C :   -0.064378
   3 N :   -0.336126
   4 C :   -0.054014
   5 N :   -0.560624
   6 C :   -0.102651
   7 N :   -0.339804
   8 C :    0.202702
   9 N :   -0.562698
  10 C :    0.117925
  11 N :   -0.437618
  12 C :   -0.079962
  13 N :   -0.432802
  14 C :    0.229331
  15 N :   -0.441379
  16 C :    0.229888
  17 C :   -0.112193
  18 C :   -0.178015
  19 C :    0.215427
  20 C :    0.213182
  21 C :   -0.091495
  22 C :   -0.088300
  23 C :   -0.042452
  24 C :    0.198402
  25 C :    0.114027
  26 C :   -0.074165
  27 C :    0.213265
  28 C :   -0.058527
  29 C :   -0.180985
  30 C :    0.242574
  31 C :    0.225074
  32 C :   -0.062216
  33 C :   -0.067320
  34 C :   -0.049623
  35 C :    0.219478
  36 C :    0.110131
  37 C :   -0.065029
  38 C :    0.234066
  39 C :   -0.059796
  40 C :   -0.182951
  41 C :    0.223016
  42 C :    0.198308
  43 C :   -0.073021
  44 C :   -0.090845
  45 C :   -0.059105
  46 C :    0.208028
  47 C :    0.115707
  48 C :   -0.069763
  49 C :    0.234572
  50 C :   -0.048307
  51 C :   -0.192512
  52 H :    0.042940
  53 H :   -0.015948
  54 H :    0.049958
  55 H :    0.040922
  56 H :    0.050339
  57 H :    0.049909
  58 H :    0.048697
  59 H :   -0.000997
  60 H :    0.049350
  61 H :    0.171287
  62 H :    0.174930
  63 H :    0.056751
  64 H :   -0.006526
  65 H :    0.046913
  66 H :    0.056939
  67 H :    0.063433
  68 H :    0.057957
  69 H :    0.057734
  70 H :   -0.027386
  71 H :    0.046781
  72 H :    0.066687
  73 H :   -0.009693
  74 H :    0.056158
  75 H :    0.065870
  76 H :    0.070890
  77 H :    0.064882
  78 H :    0.064036
  79 H :   -0.015191
  80 H :    0.056670
  81 H :    0.053608
  82 H :   -0.024897
  83 H :    0.041348
  84 H :    0.053057
  85 H :    0.059664
  86 H :    0.055261
  87 H :    0.056679
  88 H :   -0.016710
  89 H :    0.046073
Sum of atomic charges:    0.0000000

LOEWDIN ATOMIC CHARGES
----------------------
   0 C :   -0.017619
   1 N :    0.118223
   2 C :   -0.101355
   3 N :    0.182498
   4 C :   -0.000177
   5 N :   -0.131431
   6 C :   -0.032915
   7 N :    0.176117
   8 C :   -0.022305
   9 N :   -0.140005
  10 C :    0.024290
  11 N :    0.144111
  12 C :   -0.107177
  13 N :    0.158396
  14 C :   -0.035676
  15 N :    0.137564
  16 C :   -0.055759
  17 C :   -0.040701
  18 C :   -0.101296
  19 C :   -0.085669
  20 C :    0.004951
  21 C :   -0.111993
  22 C :    0.040436
  23 C :   -0.016161
  24 C :   -0.007952
  25 C :    0.030330
  26 C :   -0.106839
  27 C :   -0.111500
  28 C :   -0.024911
  29 C :   -0.100433
  30 C :   -0.035781
  31 C :    0.017961
  32 C :   -0.094731
  33 C :    0.068578
  34 C :   -0.015821
  35 C :    0.013287
  36 C :    0.033471
  37 C :   -0.096250
  38 C :   -0.047042
  39 C :   -0.020551
  40 C :   -0.108083
  41 C :   -0.094114
  42 C :   -0.009871
  43 C :   -0.101419
  44 C :    0.031412
  45 C :   -0.026969
  46 C :   -0.001533
  47 C :    0.029176
  48 C :   -0.098707
  49 C :   -0.075351
  50 C :   -0.020276
  51 C :   -0.109648
  52 H :    0.024727
  53 H :    0.003406
  54 H :    0.041439
  55 H :    0.024307
  56 H :    0.022278
  57 H :    0.027256
  58 H :    0.027607
  59 H :    0.008602
  60 H :    0.040677
  61 H :    0.060027
  62 H :    0.061563
  63 H :    0.031333
  64 H :    0.004258
  65 H :    0.045689
  66 H :    0.029963
  67 H :    0.028748
  68 H :    0.031960
  69 H :    0.030917
  70 H :   -0.003528
  71 H :    0.044481
  72 H :    0.035577
  73 H :    0.006301
  74 H :    0.048963
  75 H :    0.034981
  76 H :    0.032698
  77 H :    0.034717
  78 H :    0.034348
  79 H :    0.003646
  80 H :    0.048656
  81 H :    0.028798
  82 H :   -0.002694
  83 H :    0.042394
  84 H :    0.029275
  85 H :    0.026799
  86 H :    0.030021
  87 H :    0.031154
  88 H :    0.001327
  89 H :    0.044551

  Mayer bond orders larger than 0.100000
B(  0-C ,  1-N ) :   1.0970 B(  0-C , 17-C ) :   1.6917 B(  0-C , 52-H ) :   0.9678
B(  1-N ,  8-C ) :   1.0860 B(  1-N , 10-C ) :   0.9757 B(  2-C , 12-C ) :   1.5175
B(  2-C , 16-C ) :   1.3463 B(  2-C , 53-H ) :   0.9766 B(  3-N , 14-C ) :   1.2154
B(  3-N , 16-C ) :   1.1929 B(  3-N , 61-H ) :   0.8994 B(  4-C ,  6-C ) :   1.2184
B(  4-C , 17-C ) :   1.2183 B(  4-C , 18-C ) :   1.3990 B(  5-N , 19-C ) :   1.4465
B(  5-N , 27-C ) :   1.3849 B(  6-C ,  8-C ) :   1.6964 B(  6-C , 54-H ) :   0.9647
B(  7-N , 30-C ) :   1.1937 B(  7-N , 38-C ) :   1.1947 B(  7-N , 62-H ) :   0.8971
B(  8-C , 55-H ) :   0.9692 B(  9-N , 41-C ) :   1.3957 B(  9-N , 49-C ) :   1.4258
B( 10-C , 56-H ) :   0.9765 B( 10-C , 57-H ) :   0.9830 B( 10-C , 58-H ) :   0.9834
B( 11-N , 20-C ) :   1.1310 B( 11-N , 24-C ) :   1.1136 B( 11-N , 25-C ) :   0.9585
B( 12-C , 14-C ) :   1.3487 B( 12-C , 59-H ) :   0.9747 B( 13-N , 31-C ) :   1.1504
B( 13-N , 35-C ) :   1.1444 B( 13-N , 36-C ) :   0.9473 B( 14-C , 18-C ) :   1.1468
B( 15-N , 42-C ) :   1.1084 B( 15-N , 46-C ) :   1.1196 B( 15-N , 47-C ) :   0.9624
B( 16-C , 51-C ) :   1.1788 B( 17-C , 60-H ) :   0.9651 B( 18-C , 19-C ) :   1.1519
B( 19-C , 21-C ) :   1.2352 B( 20-C , 28-C ) :   1.6247 B( 20-C , 63-H ) :   0.9702
B( 21-C , 26-C ) :   1.6233 B( 21-C , 64-H ) :   0.9714 B( 22-C , 23-C ) :   1.2900
B( 22-C , 28-C ) :   1.2693 B( 22-C , 29-C ) :   1.2207 B( 23-C , 24-C ) :   1.6168
B( 23-C , 65-H ) :   0.9706 B( 24-C , 66-H ) :   0.9694 B( 25-C , 67-H ) :   0.9761
B( 25-C , 68-H ) :   0.9828 B( 25-C , 69-H ) :   0.9822 B( 26-C , 27-C ) :   1.2301
B( 26-C , 70-H ) :   0.9714 B( 27-C , 29-C ) :   1.2186 B( 28-C , 71-H ) :   0.9718
B( 29-C , 30-C ) :   1.2355 B( 30-C , 32-C ) :   1.2884 B( 31-C , 39-C ) :   1.6018
B( 31-C , 72-H ) :   0.9686 B( 32-C , 37-C ) :   1.5708 B( 32-C , 73-H ) :   0.9783
B( 33-C , 34-C ) :   1.2983 B( 33-C , 39-C ) :   1.2915 B( 33-C , 40-C ) :   1.1974
B( 34-C , 35-C ) :   1.5983 B( 34-C , 74-H ) :   0.9698 B( 35-C , 75-H ) :   0.9687
B( 36-C , 76-H ) :   0.9766 B( 36-C , 77-H ) :   0.9817 B( 36-C , 78-H ) :   0.9826
B( 37-C , 38-C ) :   1.2918 B( 37-C , 79-H ) :   0.9770 B( 38-C , 40-C ) :   1.2270
B( 39-C , 80-H ) :   0.9709 B( 40-C , 41-C ) :   1.2404 B( 41-C , 43-C ) :   1.1958
B( 42-C , 50-C ) :   1.6356 B( 42-C , 81-H ) :   0.9697 B( 43-C , 48-C ) :   1.6559
B( 43-C , 82-H ) :   0.9725 B( 44-C , 45-C ) :   1.2637 B( 44-C , 50-C ) :   1.2688
B( 44-C , 51-C ) :   1.2635 B( 45-C , 46-C ) :   1.6363 B( 45-C , 83-H ) :   0.9717
B( 46-C , 84-H ) :   0.9702 B( 47-C , 85-H ) :   0.9762 B( 47-C , 86-H ) :   0.9829
B( 47-C , 87-H ) :   0.9825 B( 48-C , 49-C ) :   1.1986 B( 48-C , 88-H ) :   0.9746
B( 49-C , 51-C ) :   1.2315 B( 50-C , 89-H ) :   0.9710

MP2 TOTAL ENERGY:    -2130.910337242 Eh
FINAL SINGLE POINT ENERGY     -2130.910337241502

DIPOLE MOMENT
-------------
                                X             Y             Z
Electronic contribution:      1.65014      -3.41322      -0.06187
Nuclear contribution   :      0.00338       0.19010       0.07222
                        -----------------------------------------
Total Dipole Moment    :      1.65352      -3.22311       0.01034
                        -----------------------------------------
Magnitude (a.u.)       :      3.62253
Magnitude (Debye)      :      9.20773

Rotational constants in cm-1:     0.001501     0.001475     0.000761
Rotational constants in MHz :    45.005894    44.223854    22.818414

                             ****ORCA TERMINATED NORMALLY****
TOTAL RUN TIME: 0 days 1 hours 7 minutes 47 seconds 105 msec
