                         Program Version 5.0.4 -  RELEASE  -
|  1> ! PAL2
|  2> ! mp2 cc-pvdz TightSCF  NoKeepInts
|  3>
|  4> %scf
|  5>   MaxCore 2000
|  6> end
|  7> %mp2
|  8>   MaxCore 2000
|  9> end
| 10> * xyz 0 1
| 11>    C       -4.00800         5.85300        -1.07900
| 12>    C        1.47400         4.04100         0.05700
| 13>    C       -2.80200         4.09300         0.04900
| 14>    C       -3.18100         4.68300         1.26500
| 15>    C       -3.95600         5.82500         1.26900
| 16>    C       -5.21700         7.59800         0.14900
| 17>    C        0.13200         4.30700         0.06100
| 18>    C       -0.56900         3.05600         0.04700
| 19>    C        1.64900         2.61800         0.02300
| 20>    C       -3.23900         4.70700        -1.13500
| 21>    N       -4.35600         6.39600         0.10900
| 22>    N        0.38800         2.06700         0.02500
| 23>    N       -2.01000         0.39500        -0.07500
| 24>    N       -0.38800        -2.07400        -0.02700
| 25>    N        2.01000        -0.40100         0.06500
| 26>    C       -1.96000         2.86100         0.02400
| 27>    C       -2.62300         1.61500        -0.01800
| 28>    C       -5.57300        -4.32900         1.06600
| 29>    C       -4.07300         1.47100         0.05600
| 30>    C       -4.10600        -2.75600        -0.02600
| 31>    C       -4.99500        -2.75700        -1.11100
| 32>    C       -6.13200        -3.54200        -1.07600
| 33>    C       -7.65100        -5.11300         0.04000
| 34>    C       -4.32400         0.14100         0.03700
| 35>    C       -3.02500        -0.52000        -0.04800
| 36>    C       -4.42200        -3.56600         1.07500
| 37>    N       -6.40700        -4.31300         0.00100
| 38>    C       -2.86700        -1.92200        -0.04000
| 39>    C       -1.65000        -2.62400        -0.02700
| 40>    C        3.56800        -6.14200        -1.04000
| 41>    C       -1.47600        -4.04900        -0.03400
| 42>    C        2.80300        -4.09900        -0.00800
| 43>    C        3.65700        -4.38400         1.06900
| 44>    C        4.42700        -5.53000         1.05900
| 45>    C        5.24500        -7.58800         0.01400
| 46>    C       -0.13400        -4.31500        -0.02200
| 47>    C        0.56800        -3.06400        -0.02700
| 48>    C        2.77500        -5.01200        -1.07400
| 49>    N        4.37600        -6.39100         0.01700
| 50>    C        1.95900        -2.86900        -0.00900
| 51>    C        2.62100        -1.62200         0.00900
| 52>    C        5.54300         4.33900        -1.13000
| 53>    C        4.07000        -1.47900        -0.09400
| 54>    C        4.10400         2.75100        -0.02100
| 55>    C        5.02700         2.72900         1.03600
| 56>    C        6.16600         3.50900         0.97800
| 57>    C        7.61900         5.15300        -0.11500
| 58>    C        4.32100        -0.14800        -0.09200
| 59>    C        3.02500         0.51400         0.01500
| 60>    C        4.38700         3.58200        -1.11500
| 61>    C        2.86600         1.91600         0.01300
| 62>    N        6.41300         4.29600        -0.09500
| 63>    H       -4.35600         6.36600        -1.96700
| 64>    H        2.27400         4.76600         0.08100
| 65>    H       -2.88400         4.25000         2.21200
| 66>    H       -4.28000         6.31000         2.18100
| 67>    H       -6.26000         7.28600         0.23300
| 68>    H       -4.93600         8.20400         1.01000
| 69>    H       -5.06900         8.16600        -0.77000
| 70>    H       -0.33200         5.28200         0.06900
| 71>    H       -2.96700         4.30800        -2.10600
| 72>    H        0.18200         1.07200         0.00500
| 73>    H       -0.18300        -1.08000        -0.02100
| 74>    H       -5.86400        -4.96200         1.89500
| 75>    H       -4.79400         2.27200         0.13900
| 76>    H       -4.80000        -2.16000        -1.99400
| 77>    H       -6.84100        -3.58200        -1.89300
| 78>    H       -8.42800        -4.53600         0.54600
| 79>    H       -7.95600        -5.33700        -0.98100
| 80>    H       -7.45600        -6.03700         0.58400
| 81>    H       -5.28700        -0.34400         0.10000
| 82>    H       -3.78000        -3.60100         1.94700
| 83>    H        3.58700        -6.86800        -1.84300
| 84>    H       -2.27600        -4.77400        -0.05000
| 85>    H        3.71400        -3.72400         1.92600
| 86>    H        5.09200        -5.79500         1.87100
| 87>    H        6.20500        -7.32900        -0.43900
| 88>    H        5.39300        -7.91700         1.04200
| 89>    H        4.75900        -8.37300        -0.56400
| 90>    H        0.32900        -5.29000        -0.00800
| 91>    H        2.14600        -4.84200        -1.94000
| 92>    H        5.80800         4.98600        -1.95600
| 93>    H        4.78800        -2.28100        -0.18500
| 94>    H        4.86000         2.11400         1.91200
| 95>    H        6.90100         3.53100         1.77200
| 96>    H        7.38300         6.10900         0.35600
| 97>    H        8.41400         4.65200         0.43500
| 98>    H        7.92100         5.31000        -1.15000
| 99>    H        5.28300         0.33600        -0.17900
|100>    H        3.72000         3.63200        -1.96700
|101> *
|102>
|103>                          ****END OF INPUT****

CARTESIAN COORDINATES (ANGSTROEM)
---------------------------------
  C     -4.008000    5.853000   -1.079000
  C      1.474000    4.041000    0.057000
  C     -2.802000    4.093000    0.049000
  C     -3.181000    4.683000    1.265000
  C     -3.956000    5.825000    1.269000
  C     -5.217000    7.598000    0.149000
  C      0.132000    4.307000    0.061000
  C     -0.569000    3.056000    0.047000
  C      1.649000    2.618000    0.023000
  C     -3.239000    4.707000   -1.135000
  N     -4.356000    6.396000    0.109000
  N      0.388000    2.067000    0.025000
  N     -2.010000    0.395000   -0.075000
  N     -0.388000   -2.074000   -0.027000
  N      2.010000   -0.401000    0.065000
  C     -1.960000    2.861000    0.024000
  C     -2.623000    1.615000   -0.018000
  C     -5.573000   -4.329000    1.066000
  C     -4.073000    1.471000    0.056000
  C     -4.106000   -2.756000   -0.026000
  C     -4.995000   -2.757000   -1.111000
  C     -6.132000   -3.542000   -1.076000
  C     -7.651000   -5.113000    0.040000
  C     -4.324000    0.141000    0.037000
  C     -3.025000   -0.520000   -0.048000
  C     -4.422000   -3.566000    1.075000
  N     -6.407000   -4.313000    0.001000
  C     -2.867000   -1.922000   -0.040000
  C     -1.650000   -2.624000   -0.027000
  C      3.568000   -6.142000   -1.040000
  C     -1.476000   -4.049000   -0.034000
  C      2.803000   -4.099000   -0.008000
  C      3.657000   -4.384000    1.069000
  C      4.427000   -5.530000    1.059000
  C      5.245000   -7.588000    0.014000
  C     -0.134000   -4.315000   -0.022000
  C      0.568000   -3.064000   -0.027000
  C      2.775000   -5.012000   -1.074000
  N      4.376000   -6.391000    0.017000
  C      1.959000   -2.869000   -0.009000
  C      2.621000   -1.622000    0.009000
  C      5.543000    4.339000   -1.130000
  C      4.070000   -1.479000   -0.094000
  C      4.104000    2.751000   -0.021000
  C      5.027000    2.729000    1.036000
  C      6.166000    3.509000    0.978000
  C      7.619000    5.153000   -0.115000
  C      4.321000   -0.148000   -0.092000
  C      3.025000    0.514000    0.015000
  C      4.387000    3.582000   -1.115000
  C      2.866000    1.916000    0.013000
  N      6.413000    4.296000   -0.095000
  H     -4.356000    6.366000   -1.967000
  H      2.274000    4.766000    0.081000
  H     -2.884000    4.250000    2.212000
  H     -4.280000    6.310000    2.181000
  H     -6.260000    7.286000    0.233000
  H     -4.936000    8.204000    1.010000
  H     -5.069000    8.166000   -0.770000
  H     -0.332000    5.282000    0.069000
  H     -2.967000    4.308000   -2.106000
  H      0.182000    1.072000    0.005000
  H     -0.183000   -1.080000   -0.021000
  H     -5.864000   -4.962000    1.895000
  H     -4.794000    2.272000    0.139000
  H     -4.800000   -2.160000   -1.994000
  H     -6.841000   -3.582000   -1.893000
  H     -8.428000   -4.536000    0.546000
  H     -7.956000   -5.337000   -0.981000
  H     -7.456000   -6.037000    0.584000
  H     -5.287000   -0.344000    0.100000
  H     -3.780000   -3.601000    1.947000
  H      3.587000   -6.868000   -1.843000
  H     -2.276000   -4.774000   -0.050000
  H      3.714000   -3.724000    1.926000
  H      5.092000   -5.795000    1.871000
  H      6.205000   -7.329000   -0.439000
  H      5.393000   -7.917000    1.042000
  H      4.759000   -8.373000   -0.564000
  H      0.329000   -5.290000   -0.008000
  H      2.146000   -4.842000   -1.940000
  H      5.808000    4.986000   -1.956000
  H      4.788000   -2.281000   -0.185000
  H      4.860000    2.114000    1.912000
  H      6.901000    3.531000    1.772000
  H      7.383000    6.109000    0.356000
  H      8.414000    4.652000    0.435000
  H      7.921000    5.310000   -1.150000
  H      5.283000    0.336000   -0.179000
  H      3.720000    3.632000   -1.967000

 Total Charge           Charge          ....    0
 Multiplicity           Mult            ....    1
 Number of Electrons    NEL             ....  358
 Basis Dimension        Dim             ....  918

ORBITAL ENERGIES
----------------

  NO   OCC          E(Eh)            E(eV)
   0   2.0000     -15.719932      -427.7611
   1   2.0000     -15.628513      -425.2734
   2   2.0000     -15.618357      -424.9971
   3   2.0000     -15.576459      -423.8570
   4   2.0000     -15.520637      -422.3380
   5   2.0000     -15.504159      -421.8896
   6   2.0000     -15.451395      -420.4538
   7   2.0000     -15.426691      -419.7816
   8   2.0000     -11.357918      -309.0647
   9   2.0000     -11.355934      -309.0107
  10   2.0000     -11.350154      -308.8534
  11   2.0000     -11.313683      -307.8610
  12   2.0000     -11.296408      -307.3909
  13   2.0000     -11.290715      -307.2360
  14   2.0000     -11.289468      -307.2020
  15   2.0000     -11.286531      -307.1221
  16   2.0000     -11.286353      -307.1173
  17   2.0000     -11.281294      -306.9796
  18   2.0000     -11.280421      -306.9559
  19   2.0000     -11.271088      -306.7019
  20   2.0000     -11.263095      -306.4844
  21   2.0000     -11.243048      -305.9389
  22   2.0000     -11.239295      -305.8368
  23   2.0000     -11.232269      -305.6456
  24   2.0000     -11.226822      -305.4974
  25   2.0000     -11.225921      -305.4728
  26   2.0000     -11.222668      -305.3843
  27   2.0000     -11.218746      -305.2776
  28   2.0000     -11.218453      -305.2696
  29   2.0000     -11.211206      -305.0724
  30   2.0000     -11.209395      -305.0231
  31   2.0000     -11.195510      -304.6453
  32   2.0000     -11.194349      -304.6137
  33   2.0000     -11.193202      -304.5825
  34   2.0000     -11.188146      -304.4449
  35   2.0000     -11.187391      -304.4244
  36   2.0000     -11.183047      -304.3062
  37   2.0000     -11.179928      -304.2213
  38   2.0000     -11.179784      -304.2174
  39   2.0000     -11.177879      -304.1656
  40   2.0000     -11.170288      -303.9590
  41   2.0000     -11.165191      -303.8203
  42   2.0000     -11.164809      -303.8099
  43   2.0000     -11.161962      -303.7324
  44   2.0000     -11.160425      -303.6906
  45   2.0000     -11.144374      -303.2538
  46   2.0000     -11.143743      -303.2367
  47   2.0000     -11.140797      -303.1565
  48   2.0000     -11.137251      -303.0600
  49   2.0000     -11.130861      -302.8861
  50   2.0000     -11.116390      -302.4923
  51   2.0000     -11.110727      -302.3383
  52   2.0000      -1.391889       -37.8752
  53   2.0000      -1.316757       -35.8308
  54   2.0000      -1.307390       -35.5759
  55   2.0000      -1.271755       -34.6062
  56   2.0000      -1.224431       -33.3184
  57   2.0000      -1.200237       -32.6601
  58   2.0000      -1.178305       -32.0633
  59   2.0000      -1.165132       -31.7049
  60   2.0000      -1.136669       -30.9303
  61   2.0000      -1.109460       -30.1900
  62   2.0000      -1.106081       -30.0980
  63   2.0000      -1.097161       -29.8553
  64   2.0000      -1.065957       -29.0062
  65   2.0000      -1.057558       -28.7776
  66   2.0000      -1.041217       -28.3330
  67   2.0000      -1.032340       -28.0914
  68   2.0000      -1.015242       -27.6261
  69   2.0000      -1.003917       -27.3180
  70   2.0000      -0.998980       -27.1836
  71   2.0000      -0.995013       -27.0757
  72   2.0000      -0.985505       -26.8170
  73   2.0000      -0.976069       -26.5602
  74   2.0000      -0.964407       -26.2428
  75   2.0000      -0.961451       -26.1624
  76   2.0000      -0.950774       -25.8719
  77   2.0000      -0.940397       -25.5895
  78   2.0000      -0.935307       -25.4510
  79   2.0000      -0.919591       -25.0233
  80   2.0000      -0.912162       -24.8212
  81   2.0000      -0.891160       -24.2497
  82   2.0000      -0.886727       -24.1291
  83   2.0000      -0.868322       -23.6282
  84   2.0000      -0.859864       -23.3981
  85   2.0000      -0.846368       -23.0308
  86   2.0000      -0.828996       -22.5581
  87   2.0000      -0.826405       -22.4876
  88   2.0000      -0.820125       -22.3167
  89   2.0000      -0.794300       -21.6140
  90   2.0000      -0.785744       -21.3812
  91   2.0000      -0.772339       -21.0164
  92   2.0000      -0.740299       -20.1446
  93   2.0000      -0.733540       -19.9606
  94   2.0000      -0.728832       -19.8325
  95   2.0000      -0.724096       -19.7037
  96   2.0000      -0.716318       -19.4920
  97   2.0000      -0.709850       -19.3160
  98   2.0000      -0.707404       -19.2494
  99   2.0000      -0.704635       -19.1741
 100   2.0000      -0.695795       -18.9335
 101   2.0000      -0.688202       -18.7269
 102   2.0000      -0.684084       -18.6149
 103   2.0000      -0.675552       -18.3827
 104   2.0000      -0.672434       -18.2979
 105   2.0000      -0.671092       -18.2614
 106   2.0000      -0.666754       -18.1433
 107   2.0000      -0.661654       -18.0045
 108   2.0000      -0.652105       -17.7447
 109   2.0000      -0.648922       -17.6581
 110   2.0000      -0.648409       -17.6441
 111   2.0000      -0.641884       -17.4666
 112   2.0000      -0.640443       -17.4273
 113   2.0000      -0.634422       -17.2635
 114   2.0000      -0.633893       -17.2491
 115   2.0000      -0.629238       -17.1224
 116   2.0000      -0.627065       -17.0633
 117   2.0000      -0.614802       -16.7296
 118   2.0000      -0.610840       -16.6218
 119   2.0000      -0.608942       -16.5701
 120   2.0000      -0.608403       -16.5555
 121   2.0000      -0.600526       -16.3411
 122   2.0000      -0.592588       -16.1251
 123   2.0000      -0.589224       -16.0336
 124   2.0000      -0.584150       -15.8955
 125   2.0000      -0.578215       -15.7340
 126   2.0000      -0.574747       -15.6396
 127   2.0000      -0.570868       -15.5341
 128   2.0000      -0.570466       -15.5232
 129   2.0000      -0.569736       -15.5033
 130   2.0000      -0.556303       -15.1378
 131   2.0000      -0.542969       -14.7749
 132   2.0000      -0.541965       -14.7476
 133   2.0000      -0.538395       -14.6505
 134   2.0000      -0.533514       -14.5177
 135   2.0000      -0.529167       -14.3994
 136   2.0000      -0.519393       -14.1334
 137   2.0000      -0.515613       -14.0306
 138   2.0000      -0.513653       -13.9772
 139   2.0000      -0.512120       -13.9355
 140   2.0000      -0.509767       -13.8715
 141   2.0000      -0.503284       -13.6951
 142   2.0000      -0.501120       -13.6362
 143   2.0000      -0.497447       -13.5362
 144   2.0000      -0.495275       -13.4771
 145   2.0000      -0.492748       -13.4084
 146   2.0000      -0.488480       -13.2922
 147   2.0000      -0.473239       -12.8775
 148   2.0000      -0.470110       -12.7923
 149   2.0000      -0.465819       -12.6756
 150   2.0000      -0.462826       -12.5941
 151   2.0000      -0.460035       -12.5182
 152   2.0000      -0.451940       -12.2979
 153   2.0000      -0.440860       -11.9964
 154   2.0000      -0.432650       -11.7730
 155   2.0000      -0.430918       -11.7259
 156   2.0000      -0.418355       -11.3840
 157   2.0000      -0.416619       -11.3368
 158   2.0000      -0.411026       -11.1846
 159   2.0000      -0.410040       -11.1577
 160   2.0000      -0.381529       -10.3819
 161   2.0000      -0.369282       -10.0487
 162   2.0000      -0.353352        -9.6152
 163   2.0000      -0.351684        -9.5698
 164   2.0000      -0.345472        -9.4008
 165   2.0000      -0.341690        -9.2979
 166   2.0000      -0.337933        -9.1956
 167   2.0000      -0.316885        -8.6229
 168   2.0000      -0.311763        -8.4835
 169   2.0000      -0.304915        -8.2972
 170   2.0000      -0.298108        -8.1119
 171   2.0000      -0.282410        -7.6848
 172   2.0000      -0.275508        -7.4970
 173   2.0000      -0.266575        -7.2539
 174   2.0000      -0.228769        -6.2251
 175   2.0000      -0.182953        -4.9784
 176   2.0000      -0.173136        -4.7113
 177   2.0000      -0.062639        -1.7045
 178   2.0000      -0.050795        -1.3822
 179   0.0000       0.036208         0.9853
 180   0.0000       0.054297         1.4775
 181   0.0000       0.073612         2.0031
 182   0.0000       0.098672         2.6850
 183   0.0000       0.102307         2.7839

MULLIKEN ATOMIC CHARGES
-----------------------
   0 C :    0.239555
   1 N :   -0.409626
   2 C :   -0.066427
   3 N :   -0.344370
   4 C :   -0.067349
   5 N :   -0.566124
   6 C :   -0.023765
   7 N :   -0.336813
   8 C :    0.233971
   9 N :   -0.566451
  10 C :    0.102512
  11 N :   -0.440176
  12 C :   -0.057957
  13 N :   -0.451958
  14 C :    0.218716
  15 N :   -0.441865
  16 C :    0.258314
  17 C :   -0.033131
  18 C :   -0.173966
  19 C :    0.229579
  20 C :    0.185792
  21 C :   -0.066739
  22 C :   -0.092301
  23 C :   -0.069334
  24 C :    0.217757
  25 C :    0.115178
  26 C :   -0.064886
  27 C :    0.249986
  28 C :   -0.038738
  29 C :   -0.197582
  30 C :    0.219362
  31 C :    0.186064
  32 C :   -0.064137
  33 C :   -0.104333
  34 C :   -0.050377
  35 C :    0.176104
  36 C :    0.121631
  37 C :   -0.070986
  38 C :    0.245387
  39 C :   -0.065847
  40 C :   -0.205745
  41 C :    0.215669
  42 C :    0.212666
  43 C :   -0.077842
  44 C :   -0.092896
  45 C :   -0.037001
  46 C :    0.181903
  47 C :    0.116946
  48 C :   -0.082823
  49 C :    0.205897
  50 C :   -0.069032
  51 C :   -0.188757
  52 H :    0.084196
  53 H :   -0.006110
  54 H :    0.069323
  55 H :    0.082826
  56 H :    0.087250
  57 H :    0.078022
  58 H :    0.076143
  59 H :   -0.030077
  60 H :    0.068758
  61 H :    0.177565
  62 H :    0.167308
  63 H :    0.051845
  64 H :   -0.035980
  65 H :    0.039568
  66 H :    0.054109
  67 H :    0.057296
  68 H :    0.055437
  69 H :    0.058638
  70 H :   -0.012102
  71 H :    0.046032
  72 H :    0.035699
  73 H :   -0.019518
  74 H :    0.027757
  75 H :    0.034319
  76 H :    0.044736
  77 H :    0.044939
  78 H :    0.044178
  79 H :   -0.011467
  80 H :    0.027464
  81 H :    0.049754
  82 H :   -0.023111
  83 H :    0.042371
  84 H :    0.048600
  85 H :    0.053525
  86 H :    0.056207
  87 H :    0.054059
  88 H :   -0.031303
  89 H :    0.038089
Sum of atomic charges:    0.0000000

LOEWDIN ATOMIC CHARGES
----------------------
   0 C :    0.043168
   1 N :    0.198262
   2 C :   -0.098111
   3 N :    0.170341
   4 C :    0.125959
   5 N :   -0.148817
   6 C :   -0.008637
   7 N :    0.177418
   8 C :    0.039373
   9 N :   -0.138397
  10 C :    0.040913
  11 N :    0.138086
  12 C :   -0.095895
  13 N :    0.110925
  14 C :   -0.062962
  15 N :    0.133856
  16 C :   -0.014178
  17 C :   -0.012738
  18 C :   -0.122231
  19 C :   -0.089215
  20 C :   -0.020889
  21 C :   -0.098579
  22 C :    0.030760
  23 C :   -0.035589
  24 C :    0.007484
  25 C :    0.028984
  26 C :   -0.090606
  27 C :   -0.050884
  28 C :   -0.014550
  29 C :   -0.118685
  30 C :   -0.067048
  31 C :   -0.028865
  32 C :   -0.100426
  33 C :   -0.010418
  34 C :   -0.027373
  35 C :   -0.037790
  36 C :    0.022510
  37 C :   -0.110997
  38 C :   -0.027625
  39 C :   -0.035443
  40 C :   -0.113935
  41 C :   -0.093920
  42 C :    0.000936
  43 C :   -0.115324
  44 C :    0.025617
  45 C :   -0.013617
  46 C :   -0.025845
  47 C :    0.027983
  48 C :   -0.115924
  49 C :   -0.120249
  50 C :   -0.034839
  51 C :   -0.108099
  52 H :    0.043152
  53 H :    0.008154
  54 H :    0.056872
  55 H :    0.042886
  56 H :    0.041199
  57 H :    0.040594
  58 H :    0.040539
  59 H :   -0.001000
  60 H :    0.056480
  61 H :    0.062828
  62 H :    0.057440
  63 H :    0.028211
  64 H :   -0.005718
  65 H :    0.041088
  66 H :    0.029597
  67 H :    0.025897
  68 H :    0.030761
  69 H :    0.031082
  70 H :    0.003802
  71 H :    0.045229
  72 H :    0.021238
  73 H :    0.001656
  74 H :    0.037070
  75 H :    0.020203
  76 H :    0.019267
  77 H :    0.025385
  78 H :    0.025076
  79 H :    0.005705
  80 H :    0.036098
  81 H :    0.027744
  82 H :   -0.001371
  83 H :    0.044055
  84 H :    0.026375
  85 H :    0.023921
  86 H :    0.030256
  87 H :    0.029894
  88 H :   -0.005649
  89 H :    0.040111

  Mayer bond orders larger than 0.100000
B(  0-C ,  1-N ) :   1.2159 B(  0-C , 17-C ) :   1.5074 B(  0-C , 52-H ) :   0.9665
B(  1-N ,  8-C ) :   1.2066 B(  1-N , 10-C ) :   0.9238 B(  2-C , 12-C ) :   1.5833
B(  2-C , 16-C ) :   1.2696 B(  2-C , 53-H ) :   0.9794 B(  3-N , 14-C ) :   1.1738
B(  3-N , 16-C ) :   1.2021 B(  3-N , 61-H ) :   0.8951 B(  4-C ,  6-C ) :   1.3636
B(  4-C , 17-C ) :   1.3646 B(  4-C , 18-C ) :   1.0452 B(  5-N , 19-C ) :   1.3631
B(  5-N , 27-C ) :   1.4494 B(  6-C ,  8-C ) :   1.5100 B(  6-C , 54-H ) :   0.9705
B(  7-N , 30-C ) :   1.1832 B(  7-N , 38-C ) :   1.2164 B(  7-N , 62-H ) :   0.9016
B(  8-C , 55-H ) :   0.9674 B(  9-N , 41-C ) :   1.4357 B(  9-N , 49-C ) :   1.3922
B( 10-C , 56-H ) :   0.9767 B( 10-C , 57-H ) :   0.9806 B( 10-C , 58-H ) :   0.9814
B( 11-N , 20-C ) :   1.0950 B( 11-N , 24-C ) :   1.1345 B( 11-N , 25-C ) :   0.9627
B( 12-C , 14-C ) :   1.2701 B( 12-C , 59-H ) :   0.9768 B( 13-N , 31-C ) :   1.0807
B( 13-N , 35-C ) :   1.0700 B( 13-N , 36-C ) :   0.9834 B( 14-C , 18-C ) :   1.2656
B( 15-N , 42-C ) :   1.1264 B( 15-N , 46-C ) :   1.0877 B( 15-N , 47-C ) :   0.9668
B( 16-C , 51-C ) :   1.2511 B( 17-C , 60-H ) :   0.9708 B( 18-C , 19-C ) :   1.3154
B( 19-C , 21-C ) :   1.1600 B( 20-C , 28-C ) :   1.6298 B( 20-C , 63-H ) :   0.9710
B( 21-C , 26-C ) :   1.6848 B( 21-C , 64-H ) :   0.9715 B( 22-C , 23-C ) :   1.2538
B( 22-C , 28-C ) :   1.2798 B( 22-C , 29-C ) :   1.2576 B( 23-C , 24-C ) :   1.6360
B( 23-C , 65-H ) :   0.9723 B( 24-C , 66-H ) :   0.9691 B( 25-C , 67-H ) :   0.9762
B( 25-C , 68-H ) :   0.9834 B( 25-C , 69-H ) :   0.9818 B( 26-C , 27-C ) :   1.1697
B( 26-C , 70-H ) :   0.9758 B( 27-C , 29-C ) :   1.2440 B( 28-C , 71-H ) :   0.9709
B( 29-C , 30-C ) :   1.1738 B( 30-C , 32-C ) :   1.3523 B( 31-C , 39-C ) :   1.6872
B( 31-C , 72-H ) :   0.9709 B( 32-C , 37-C ) :   1.5079 B( 32-C , 73-H ) :   0.9771
B( 33-C , 34-C ) :   1.2308 B( 33-C , 39-C ) :   1.2229 B( 33-C , 40-C ) :   1.3629
B( 34-C , 35-C ) :   1.6858 B( 34-C , 74-H ) :   0.9709 B( 35-C , 75-H ) :   0.9709
B( 36-C , 76-H ) :   0.9755 B( 36-C , 77-H ) :   0.9826 B( 36-C , 78-H ) :   0.9838
B( 37-C , 38-C ) :   1.3454 B( 37-C , 79-H ) :   0.9793 B( 38-C , 40-C ) :   1.1774
B( 39-C , 80-H ) :   0.9721 B( 40-C , 41-C ) :   1.1659 B( 41-C , 43-C ) :   1.2588
B( 42-C , 50-C ) :   1.6429 B( 42-C , 81-H ) :   0.9696 B( 43-C , 48-C ) :   1.5923
B( 43-C , 82-H ) :   0.9757 B( 44-C , 45-C ) :   1.2811 B( 44-C , 50-C ) :   1.2478
B( 44-C , 51-C ) :   1.2470 B( 45-C , 46-C ) :   1.6334 B( 45-C , 83-H ) :   0.9702
B( 46-C , 84-H ) :   0.9709 B( 47-C , 85-H ) :   0.9759 B( 47-C , 86-H ) :   0.9825
B( 47-C , 87-H ) :   0.9830 B( 48-C , 49-C ) :   1.2529 B( 48-C , 88-H ) :   0.9725
B( 49-C , 51-C ) :   1.1873 B( 50-C , 89-H ) :   0.9723

MP2 TOTAL ENERGY:    -2130.869676192 Eh
FINAL SINGLE POINT ENERGY     -2130.869676191752

DIPOLE MOMENT
-------------
                                X             Y             Z
Electronic contribution:     -4.70131       5.54172      -0.15273
Nuclear contribution   :     -0.02468       0.16744       0.20938
                        -----------------------------------------
Total Dipole Moment    :     -4.72599       5.70917       0.05665
                        -----------------------------------------
Magnitude (a.u.)       :      7.41167
Magnitude (Debye)      :     18.83896

Rotational constants in cm-1:     0.001498     0.001472     0.000763
Rotational constants in MHz :    44.900098    44.138246    22.868907

                             ****ORCA TERMINATED NORMALLY****
TOTAL RUN TIME: 0 days 1 hours 26 minutes 45 seconds 816 msec
