                         Program Version 5.0.4 -  RELEASE  -
|  1> ! PAL2
|  2> ! mp2 cc-pvdz TightSCF  NoKeepInts
|  3>
|  4> %scf
|  5>   MaxCore 2000
|  6> end
|  7> %mp2
|  8>   MaxCore 2000
|  9> end
| 10> * xyz 0 1
| 11>    C       -4.84900         5.26500        -0.46000
| 12>    C        1.47400         4.04100         0.05700
| 13>    C       -2.80200         4.09300         0.04900
| 14>    C       -2.31900         5.28500         0.61000
| 15>    C       -3.10900         6.41700         0.62000
| 16>    C       -5.19000         7.61700         0.14800
| 17>    C        0.13200         4.30700         0.06100
| 18>    C       -0.56900         3.05600         0.04700
| 19>    C        1.64900         2.61800         0.02300
| 20>    C       -4.09800         4.10600        -0.48900
| 21>    N       -4.35300         6.39800         0.08700
| 22>    N        0.38800         2.06700         0.02500
| 23>    N       -2.01000         0.39500        -0.07500
| 24>    N       -0.38800        -2.07400        -0.02700
| 25>    N        2.01000        -0.40100         0.06500
| 26>    C       -1.96000         2.86100         0.02400
| 27>    C       -2.62300         1.61500        -0.01800
| 28>    C       -5.57300        -4.32900         1.06600
| 29>    C       -4.07300         1.47100         0.05600
| 30>    C       -4.10600        -2.75600        -0.02600
| 31>    C       -4.99500        -2.75700        -1.11100
| 32>    C       -6.13200        -3.54200        -1.07600
| 33>    C       -7.65100        -5.11300         0.04000
| 34>    C       -4.32400         0.14100         0.03700
| 35>    C       -3.02500        -0.52000        -0.04800
| 36>    C       -4.42200        -3.56600         1.07500
| 37>    N       -6.40700        -4.31300         0.00100
| 38>    C       -2.86700        -1.92200        -0.04000
| 39>    C       -1.65000        -2.62400        -0.02700
| 40>    C        3.56800        -6.14200        -1.04000
| 41>    C       -1.47600        -4.04900        -0.03400
| 42>    C        2.80300        -4.09900        -0.00800
| 43>    C        3.65700        -4.38400         1.06900
| 44>    C        4.42700        -5.53000         1.05900
| 45>    C        5.24500        -7.58800         0.01400
| 46>    C       -0.13400        -4.31500        -0.02200
| 47>    C        0.56800        -3.06400        -0.02700
| 48>    C        2.77500        -5.01200        -1.07400
| 49>    N        4.37600        -6.39100         0.01700
| 50>    C        1.95900        -2.86900        -0.00900
| 51>    C        2.62100        -1.62200         0.00900
| 52>    C        5.54300         4.33900        -1.13000
| 53>    C        4.07000        -1.47900        -0.09400
| 54>    C        4.10400         2.75100        -0.02100
| 55>    C        5.02700         2.72900         1.03600
| 56>    C        6.16600         3.50900         0.97800
| 57>    C        7.61900         5.15300        -0.11500
| 58>    C        4.32100        -0.14800        -0.09200
| 59>    C        3.02500         0.51400         0.01500
| 60>    C        4.38700         3.58200        -1.11500
| 61>    C        2.86600         1.91600         0.01300
| 62>    N        6.41300         4.29600        -0.09500
| 63>    H       -5.84800         5.32500        -0.87400
| 64>    H        2.27400         4.76600         0.08100
| 65>    H       -1.33000         5.33600         1.04900
| 66>    H       -2.78400         7.35600         1.04800
| 67>    H       -5.71300         7.64200         1.10600
| 68>    H       -4.54500         8.49100         0.05000
| 69>    H       -5.90800         7.59000        -0.67100
| 70>    H       -0.33200         5.28200         0.06900
| 71>    H       -4.52300         3.22100        -0.94800
| 72>    H        0.18200         1.07200         0.00500
| 73>    H       -0.18300        -1.08000        -0.02100
| 74>    H       -5.86400        -4.96200         1.89500
| 75>    H       -4.79400         2.27200         0.13900
| 76>    H       -4.80000        -2.16000        -1.99400
| 77>    H       -6.84100        -3.58200        -1.89300
| 78>    H       -8.42800        -4.53600         0.54600
| 79>    H       -7.95600        -5.33700        -0.98100
| 80>    H       -7.45600        -6.03700         0.58400
| 81>    H       -5.28700        -0.34400         0.10000
| 82>    H       -3.78000        -3.60100         1.94700
| 83>    H        3.58700        -6.86800        -1.84300
| 84>    H       -2.27600        -4.77400        -0.05000
| 85>    H        3.71400        -3.72400         1.92600
| 86>    H        5.09200        -5.79500         1.87100
| 87>    H        6.20500        -7.32900        -0.43900
| 88>    H        5.39300        -7.91700         1.04200
| 89>    H        4.75900        -8.37300        -0.56400
| 90>    H        0.32900        -5.29000        -0.00800
| 91>    H        2.14600        -4.84200        -1.94000
| 92>    H        5.80800         4.98600        -1.95600
| 93>    H        4.78800        -2.28100        -0.18500
| 94>    H        4.86000         2.11400         1.91200
| 95>    H        6.90100         3.53100         1.77200
| 96>    H        7.38300         6.10900         0.35600
| 97>    H        8.41400         4.65200         0.43500
| 98>    H        7.92100         5.31000        -1.15000
| 99>    H        5.28300         0.33600        -0.17900
|100>    H        3.72000         3.63200        -1.96700
|101> *
|102>
|103>                          ****END OF INPUT****

CARTESIAN COORDINATES (ANGSTROEM)
---------------------------------
  C     -4.849000    5.265000   -0.460000
  C      1.474000    4.041000    0.057000
  C     -2.802000    4.093000    0.049000
  C     -2.319000    5.285000    0.610000
  C     -3.109000    6.417000    0.620000
  C     -5.190000    7.617000    0.148000
  C      0.132000    4.307000    0.061000
  C     -0.569000    3.056000    0.047000
  C      1.649000    2.618000    0.023000
  C     -4.098000    4.106000   -0.489000
  N     -4.353000    6.398000    0.087000
  N      0.388000    2.067000    0.025000
  N     -2.010000    0.395000   -0.075000
  N     -0.388000   -2.074000   -0.027000
  N      2.010000   -0.401000    0.065000
  C     -1.960000    2.861000    0.024000
  C     -2.623000    1.615000   -0.018000
  C     -5.573000   -4.329000    1.066000
  C     -4.073000    1.471000    0.056000
  C     -4.106000   -2.756000   -0.026000
  C     -4.995000   -2.757000   -1.111000
  C     -6.132000   -3.542000   -1.076000
  C     -7.651000   -5.113000    0.040000
  C     -4.324000    0.141000    0.037000
  C     -3.025000   -0.520000   -0.048000
  C     -4.422000   -3.566000    1.075000
  N     -6.407000   -4.313000    0.001000
  C     -2.867000   -1.922000   -0.040000
  C     -1.650000   -2.624000   -0.027000
  C      3.568000   -6.142000   -1.040000
  C     -1.476000   -4.049000   -0.034000
  C      2.803000   -4.099000   -0.008000
  C      3.657000   -4.384000    1.069000
  C      4.427000   -5.530000    1.059000
  C      5.245000   -7.588000    0.014000
  C     -0.134000   -4.315000   -0.022000
  C      0.568000   -3.064000   -0.027000
  C      2.775000   -5.012000   -1.074000
  N      4.376000   -6.391000    0.017000
  C      1.959000   -2.869000   -0.009000
  C      2.621000   -1.622000    0.009000
  C      5.543000    4.339000   -1.130000
  C      4.070000   -1.479000   -0.094000
  C      4.104000    2.751000   -0.021000
  C      5.027000    2.729000    1.036000
  C      6.166000    3.509000    0.978000
  C      7.619000    5.153000   -0.115000
  C      4.321000   -0.148000   -0.092000
  C      3.025000    0.514000    0.015000
  C      4.387000    3.582000   -1.115000
  C      2.866000    1.916000    0.013000
  N      6.413000    4.296000   -0.095000
  H     -5.848000    5.325000   -0.874000
  H      2.274000    4.766000    0.081000
  H     -1.330000    5.336000    1.049000
  H     -2.784000    7.356000    1.048000
  H     -5.713000    7.642000    1.106000
  H     -4.545000    8.491000    0.050000
  H     -5.908000    7.590000   -0.671000
  H     -0.332000    5.282000    0.069000
  H     -4.523000    3.221000   -0.948000
  H      0.182000    1.072000    0.005000
  H     -0.183000   -1.080000   -0.021000
  H     -5.864000   -4.962000    1.895000
  H     -4.794000    2.272000    0.139000
  H     -4.800000   -2.160000   -1.994000
  H     -6.841000   -3.582000   -1.893000
  H     -8.428000   -4.536000    0.546000
  H     -7.956000   -5.337000   -0.981000
  H     -7.456000   -6.037000    0.584000
  H     -5.287000   -0.344000    0.100000
  H     -3.780000   -3.601000    1.947000
  H      3.587000   -6.868000   -1.843000
  H     -2.276000   -4.774000   -0.050000
  H      3.714000   -3.724000    1.926000
  H      5.092000   -5.795000    1.871000
  H      6.205000   -7.329000   -0.439000
  H      5.393000   -7.917000    1.042000
  H      4.759000   -8.373000   -0.564000
  H      0.329000   -5.290000   -0.008000
  H      2.146000   -4.842000   -1.940000
  H      5.808000    4.986000   -1.956000
  H      4.788000   -2.281000   -0.185000
  H      4.860000    2.114000    1.912000
  H      6.901000    3.531000    1.772000
  H      7.383000    6.109000    0.356000
  H      8.414000    4.652000    0.435000
  H      7.921000    5.310000   -1.150000
  H      5.283000    0.336000   -0.179000
  H      3.720000    3.632000   -1.967000

 Total Charge           Charge          ....    0
 Multiplicity           Mult            ....    1
 Number of Electrons    NEL             ....  358
 Basis Dimension        Dim             ....  918

ORBITAL ENERGIES
----------------

  NO   OCC          E(Eh)            E(eV)
   0   2.0000     -15.675471      -426.5512
   1   2.0000     -15.636883      -425.5012
   2   2.0000     -15.629082      -425.2889
   3   2.0000     -15.588716      -424.1905
   4   2.0000     -15.525488      -422.4700
   5   2.0000     -15.515750      -422.2050
   6   2.0000     -15.452402      -420.4812
   7   2.0000     -15.442178      -420.2030
   8   2.0000     -11.326233      -308.2025
   9   2.0000     -11.325265      -308.1761
  10   2.0000     -11.324301      -308.1499
  11   2.0000     -11.301141      -307.5197
  12   2.0000     -11.296618      -307.3966
  13   2.0000     -11.295201      -307.3580
  14   2.0000     -11.289440      -307.2013
  15   2.0000     -11.288616      -307.1789
  16   2.0000     -11.284410      -307.0644
  17   2.0000     -11.278023      -306.8906
  18   2.0000     -11.271659      -306.7174
  19   2.0000     -11.260382      -306.4106
  20   2.0000     -11.259427      -306.3846
  21   2.0000     -11.253906      -306.2343
  22   2.0000     -11.252632      -306.1997
  23   2.0000     -11.240566      -305.8714
  24   2.0000     -11.233927      -305.6907
  25   2.0000     -11.233397      -305.6763
  26   2.0000     -11.232800      -305.6600
  27   2.0000     -11.227700      -305.5212
  28   2.0000     -11.227379      -305.5125
  29   2.0000     -11.211277      -305.0744
  30   2.0000     -11.209779      -305.0336
  31   2.0000     -11.197653      -304.7036
  32   2.0000     -11.189750      -304.4886
  33   2.0000     -11.189538      -304.4828
  34   2.0000     -11.188681      -304.4595
  35   2.0000     -11.188501      -304.4546
  36   2.0000     -11.188263      -304.4481
  37   2.0000     -11.185667      -304.3775
  38   2.0000     -11.184516      -304.3462
  39   2.0000     -11.174371      -304.0701
  40   2.0000     -11.174082      -304.0622
  41   2.0000     -11.169064      -303.9257
  42   2.0000     -11.168839      -303.9196
  43   2.0000     -11.161106      -303.7091
  44   2.0000     -11.159312      -303.6603
  45   2.0000     -11.159119      -303.6551
  46   2.0000     -11.157072      -303.5994
  47   2.0000     -11.153871      -303.5123
  48   2.0000     -11.146721      -303.3177
  49   2.0000     -11.138050      -303.0817
  50   2.0000     -11.132677      -302.9355
  51   2.0000     -11.123068      -302.6741
  52   2.0000      -1.356707       -36.9179
  53   2.0000      -1.323747       -36.0210
  54   2.0000      -1.317240       -35.8439
  55   2.0000      -1.282791       -34.9065
  56   2.0000      -1.226373       -33.3713
  57   2.0000      -1.210038       -32.9268
  58   2.0000      -1.171413       -31.8758
  59   2.0000      -1.152508       -31.3613
  60   2.0000      -1.140562       -31.0363
  61   2.0000      -1.112318       -30.2677
  62   2.0000      -1.107022       -30.1236
  63   2.0000      -1.079304       -29.3694
  64   2.0000      -1.078677       -29.3523
  65   2.0000      -1.047842       -28.5132
  66   2.0000      -1.042010       -28.3545
  67   2.0000      -1.039170       -28.2773
  68   2.0000      -1.015224       -27.6257
  69   2.0000      -1.012346       -27.5473
  70   2.0000      -1.009119       -27.4595
  71   2.0000      -0.993693       -27.0398
  72   2.0000      -0.986315       -26.8390
  73   2.0000      -0.980701       -26.6862
  74   2.0000      -0.971896       -26.4466
  75   2.0000      -0.960523       -26.1372
  76   2.0000      -0.953156       -25.9367
  77   2.0000      -0.946014       -25.7423
  78   2.0000      -0.935013       -25.4430
  79   2.0000      -0.918629       -24.9972
  80   2.0000      -0.907471       -24.6935
  81   2.0000      -0.894372       -24.3371
  82   2.0000      -0.875550       -23.8249
  83   2.0000      -0.873115       -23.7587
  84   2.0000      -0.868085       -23.6218
  85   2.0000      -0.856665       -23.3110
  86   2.0000      -0.839160       -22.8347
  87   2.0000      -0.836650       -22.7664
  88   2.0000      -0.824089       -22.4246
  89   2.0000      -0.797657       -21.7053
  90   2.0000      -0.790882       -21.5210
  91   2.0000      -0.751364       -20.4456
  92   2.0000      -0.743185       -20.2231
  93   2.0000      -0.733595       -19.9621
  94   2.0000      -0.724790       -19.7225
  95   2.0000      -0.721728       -19.6392
  96   2.0000      -0.716151       -19.4875
  97   2.0000      -0.712018       -19.3750
  98   2.0000      -0.706847       -19.2343
  99   2.0000      -0.697349       -18.9758
 100   2.0000      -0.696185       -18.9442
 101   2.0000      -0.684527       -18.6269
 102   2.0000      -0.681440       -18.5429
 103   2.0000      -0.679664       -18.4946
 104   2.0000      -0.677590       -18.4382
 105   2.0000      -0.672168       -18.2906
 106   2.0000      -0.669678       -18.2229
 107   2.0000      -0.661250       -17.9935
 108   2.0000      -0.655158       -17.8277
 109   2.0000      -0.654387       -17.8068
 110   2.0000      -0.649427       -17.6718
 111   2.0000      -0.643366       -17.5069
 112   2.0000      -0.642957       -17.4957
 113   2.0000      -0.639535       -17.4026
 114   2.0000      -0.637001       -17.3337
 115   2.0000      -0.626562       -17.0496
 116   2.0000      -0.623135       -16.9564
 117   2.0000      -0.618103       -16.8194
 118   2.0000      -0.614658       -16.7257
 119   2.0000      -0.613249       -16.6874
 120   2.0000      -0.609433       -16.5835
 121   2.0000      -0.608576       -16.5602
 122   2.0000      -0.599380       -16.3100
 123   2.0000      -0.586368       -15.9559
 124   2.0000      -0.583128       -15.8677
 125   2.0000      -0.580483       -15.7957
 126   2.0000      -0.578691       -15.7470
 127   2.0000      -0.575573       -15.6621
 128   2.0000      -0.567959       -15.4550
 129   2.0000      -0.558963       -15.2102
 130   2.0000      -0.550651       -14.9840
 131   2.0000      -0.547650       -14.9023
 132   2.0000      -0.543637       -14.7931
 133   2.0000      -0.541612       -14.7380
 134   2.0000      -0.539616       -14.6837
 135   2.0000      -0.534399       -14.5417
 136   2.0000      -0.527806       -14.3623
 137   2.0000      -0.521544       -14.1919
 138   2.0000      -0.518393       -14.1062
 139   2.0000      -0.513855       -13.9827
 140   2.0000      -0.512036       -13.9332
 141   2.0000      -0.510538       -13.8924
 142   2.0000      -0.510434       -13.8896
 143   2.0000      -0.503952       -13.7132
 144   2.0000      -0.500381       -13.6160
 145   2.0000      -0.496173       -13.5015
 146   2.0000      -0.493567       -13.4306
 147   2.0000      -0.483015       -13.1435
 148   2.0000      -0.478379       -13.0174
 149   2.0000      -0.466870       -12.7042
 150   2.0000      -0.466064       -12.6823
 151   2.0000      -0.457169       -12.4402
 152   2.0000      -0.450208       -12.2508
 153   2.0000      -0.445988       -12.1359
 154   2.0000      -0.441505       -12.0139
 155   2.0000      -0.428600       -11.6628
 156   2.0000      -0.427402       -11.6302
 157   2.0000      -0.417747       -11.3675
 158   2.0000      -0.406520       -11.0620
 159   2.0000      -0.387200       -10.5362
 160   2.0000      -0.384807       -10.4711
 161   2.0000      -0.378221       -10.2919
 162   2.0000      -0.371344       -10.1048
 163   2.0000      -0.358688        -9.7604
 164   2.0000      -0.353950        -9.6315
 165   2.0000      -0.340291        -9.2598
 166   2.0000      -0.337822        -9.1926
 167   2.0000      -0.326725        -8.8906
 168   2.0000      -0.323023        -8.7899
 169   2.0000      -0.305431        -8.3112
 170   2.0000      -0.299435        -8.1480
 171   2.0000      -0.285392        -7.7659
 172   2.0000      -0.281002        -7.6465
 173   2.0000      -0.262322        -7.1382
 174   2.0000      -0.242930        -6.6105
 175   2.0000      -0.190058        -5.1718
 176   2.0000      -0.180515        -4.9121
 177   2.0000      -0.077029        -2.0961
 178   2.0000      -0.058755        -1.5988
 179   0.0000       0.028281         0.7696
 180   0.0000       0.065815         1.7909
 181   0.0000       0.091131         2.4798
 182   0.0000       0.108919         2.9638
 183   0.0000       0.111355         3.0301

MULLIKEN ATOMIC CHARGES
-----------------------
   0 C :    0.209016
   1 N :   -0.456462
   2 C :   -0.069971
   3 N :   -0.337939
   4 C :   -0.055437
   5 N :   -0.563055
   6 C :   -0.122424
   7 N :   -0.340521
   8 C :    0.210914
   9 N :   -0.562627
  10 C :    0.119030
  11 N :   -0.437889
  12 C :   -0.076940
  13 N :   -0.430387
  14 C :    0.217900
  15 N :   -0.441496
  16 C :    0.230756
  17 C :   -0.118887
  18 C :   -0.158297
  19 C :    0.205107
  20 C :    0.214304
  21 C :   -0.089790
  22 C :   -0.089046
  23 C :   -0.040505
  24 C :    0.195718
  25 C :    0.114219
  26 C :   -0.080612
  27 C :    0.212547
  28 C :   -0.060634
  29 C :   -0.181362
  30 C :    0.245031
  31 C :    0.229472
  32 C :   -0.061390
  33 C :   -0.062469
  34 C :   -0.049903
  35 C :    0.224986
  36 C :    0.108799
  37 C :   -0.064474
  38 C :    0.232718
  39 C :   -0.058979
  40 C :   -0.181261
  41 C :    0.224190
  42 C :    0.197090
  43 C :   -0.072755
  44 C :   -0.091076
  45 C :   -0.060931
  46 C :    0.209611
  47 C :    0.115682
  48 C :   -0.067930
  49 C :    0.237379
  50 C :   -0.046907
  51 C :   -0.194343
  52 H :    0.038655
  53 H :   -0.017119
  54 H :    0.050984
  55 H :    0.037180
  56 H :    0.049185
  57 H :    0.047915
  58 H :    0.046849
  59 H :    0.001082
  60 H :    0.052539
  61 H :    0.170984
  62 H :    0.175552
  63 H :    0.056338
  64 H :   -0.004634
  65 H :    0.047105
  66 H :    0.056465
  67 H :    0.063290
  68 H :    0.057713
  69 H :    0.057123
  70 H :   -0.028803
  71 H :    0.045986
  72 H :    0.070069
  73 H :   -0.008296
  74 H :    0.059282
  75 H :    0.069348
  76 H :    0.073861
  77 H :    0.067137
  78 H :    0.066310
  79 H :   -0.015847
  80 H :    0.059928
  81 H :    0.053723
  82 H :   -0.025218
  83 H :    0.041037
  84 H :    0.053206
  85 H :    0.060010
  86 H :    0.055056
  87 H :    0.056752
  88 H :   -0.015020
  89 H :    0.046500
Sum of atomic charges:   -0.0000000

LOEWDIN ATOMIC CHARGES
----------------------
   0 C :   -0.024103
   1 N :    0.116071
   2 C :   -0.102519
   3 N :    0.183431
   4 C :   -0.011201
   5 N :   -0.130974
   6 C :   -0.043867
   7 N :    0.175493
   8 C :   -0.020550
   9 N :   -0.140498
  10 C :    0.023629
  11 N :    0.143382
  12 C :   -0.115197
  13 N :    0.164015
  14 C :   -0.028456
  15 N :    0.137490
  16 C :   -0.058090
  17 C :   -0.042064
  18 C :   -0.102438
  19 C :   -0.082137
  20 C :    0.005705
  21 C :   -0.120701
  22 C :    0.039081
  23 C :   -0.014918
  24 C :   -0.010467
  25 C :    0.030164
  26 C :   -0.108653
  27 C :   -0.115990
  28 C :   -0.026418
  29 C :   -0.098776
  30 C :   -0.032133
  31 C :    0.023171
  32 C :   -0.093593
  33 C :    0.078071
  34 C :   -0.014808
  35 C :    0.019515
  36 C :    0.034736
  37 C :   -0.094655
  38 C :   -0.049432
  39 C :   -0.018854
  40 C :   -0.108119
  41 C :   -0.093544
  42 C :   -0.010923
  43 C :   -0.100120
  44 C :    0.031272
  45 C :   -0.028238
  46 C :   -0.000151
  47 C :    0.029200
  48 C :   -0.096448
  49 C :   -0.070718
  50 C :   -0.019387
  51 C :   -0.110052
  52 H :    0.023142
  53 H :    0.002832
  54 H :    0.038510
  55 H :    0.023151
  56 H :    0.021510
  57 H :    0.026525
  58 H :    0.026816
  59 H :    0.011738
  60 H :    0.040655
  61 H :    0.059999
  62 H :    0.061881
  63 H :    0.031203
  64 H :    0.007917
  65 H :    0.045860
  66 H :    0.029661
  67 H :    0.028654
  68 H :    0.031849
  69 H :    0.030650
  70 H :   -0.004229
  71 H :    0.044027
  72 H :    0.037166
  73 H :    0.006981
  74 H :    0.050275
  75 H :    0.036663
  76 H :    0.034241
  77 H :    0.035780
  78 H :    0.035415
  79 H :    0.003316
  80 H :    0.050088
  81 H :    0.028802
  82 H :   -0.002896
  83 H :    0.042157
  84 H :    0.029401
  85 H :    0.026955
  86 H :    0.029942
  87 H :    0.031190
  88 H :    0.002133
  89 H :    0.044806

  Mayer bond orders larger than 0.100000
B(  0-C ,  1-N ) :   1.0878 B(  0-C , 17-C ) :   1.7117 B(  0-C , 52-H ) :   0.9659
B(  1-N ,  8-C ) :   1.0910 B(  1-N , 10-C ) :   0.9781 B(  2-C , 12-C ) :   1.5022
B(  2-C , 16-C ) :   1.3593 B(  2-C , 53-H ) :   0.9754 B(  3-N , 14-C ) :   1.2187
B(  3-N , 16-C ) :   1.1898 B(  3-N , 61-H ) :   0.8993 B(  4-C ,  6-C ) :   1.2112
B(  4-C , 17-C ) :   1.2116 B(  4-C , 18-C ) :   1.4435 B(  5-N , 19-C ) :   1.4535
B(  5-N , 27-C ) :   1.3782 B(  6-C ,  8-C ) :   1.7098 B(  6-C , 54-H ) :   0.9496
B(  7-N , 30-C ) :   1.1941 B(  7-N , 38-C ) :   1.1919 B(  7-N , 62-H ) :   0.8967
B(  8-C , 55-H ) :   0.9669 B(  9-N , 41-C ) :   1.3927 B(  9-N , 49-C ) :   1.4277
B( 10-C , 56-H ) :   0.9770 B( 10-C , 57-H ) :   0.9833 B( 10-C , 58-H ) :   0.9834
B( 11-N , 20-C ) :   1.1322 B( 11-N , 24-C ) :   1.1101 B( 11-N , 25-C ) :   0.9591
B( 12-C , 14-C ) :   1.3573 B( 12-C , 59-H ) :   0.9713 B( 13-N , 31-C ) :   1.1592
B( 13-N , 35-C ) :   1.1546 B( 13-N , 36-C ) :   0.9431 B( 14-C , 18-C ) :   1.1261
B( 15-N , 42-C ) :   1.1067 B( 15-N , 46-C ) :   1.1214 B( 15-N , 47-C ) :   0.9623
B( 16-C , 51-C ) :   1.1704 B( 17-C , 60-H ) :   0.9507 B( 18-C , 19-C ) :   1.1290
B( 19-C , 21-C ) :   1.2463 B( 20-C , 28-C ) :   1.6261 B( 20-C , 63-H ) :   0.9702
B( 21-C , 26-C ) :   1.6066 B( 21-C , 64-H ) :   0.9695 B( 22-C , 23-C ) :   1.2910
B( 22-C , 28-C ) :   1.2668 B( 22-C , 29-C ) :   1.2210 B( 23-C , 24-C ) :   1.6176
B( 23-C , 65-H ) :   0.9704 B( 24-C , 66-H ) :   0.9694 B( 25-C , 67-H ) :   0.9760
B( 25-C , 68-H ) :   0.9828 B( 25-C , 69-H ) :   0.9823 B( 26-C , 27-C ) :   1.2418
B( 26-C , 70-H ) :   0.9697 B( 27-C , 29-C ) :   1.2123 B( 28-C , 71-H ) :   0.9719
B( 29-C , 30-C ) :   1.2441 B( 30-C , 32-C ) :   1.2806 B( 31-C , 39-C ) :   1.5920
B( 31-C , 72-H ) :   0.9682 B( 32-C , 37-C ) :   1.5788 B( 32-C , 73-H ) :   0.9785
B( 33-C , 34-C ) :   1.3056 B( 33-C , 39-C ) :   1.2997 B( 33-C , 40-C ) :   1.1812
B( 34-C , 35-C ) :   1.5887 B( 34-C , 74-H ) :   0.9696 B( 35-C , 75-H ) :   0.9683
B( 36-C , 76-H ) :   0.9767 B( 36-C , 77-H ) :   0.9816 B( 36-C , 78-H ) :   0.9824
B( 37-C , 38-C ) :   1.2851 B( 37-C , 79-H ) :   0.9767 B( 38-C , 40-C ) :   1.2331
B( 39-C , 80-H ) :   0.9707 B( 40-C , 41-C ) :   1.2477 B( 41-C , 43-C ) :   1.1890
B( 42-C , 50-C ) :   1.6358 B( 42-C , 81-H ) :   0.9697 B( 43-C , 48-C ) :   1.6631
B( 43-C , 82-H ) :   0.9722 B( 44-C , 45-C ) :   1.2621 B( 44-C , 50-C ) :   1.2695
B( 44-C , 51-C ) :   1.2653 B( 45-C , 46-C ) :   1.6369 B( 45-C , 83-H ) :   0.9718
B( 46-C , 84-H ) :   0.9701 B( 47-C , 85-H ) :   0.9762 B( 47-C , 86-H ) :   0.9829
B( 47-C , 87-H ) :   0.9825 B( 48-C , 49-C ) :   1.1925 B( 48-C , 88-H ) :   0.9749
B( 49-C , 51-C ) :   1.2383 B( 50-C , 89-H ) :   0.9709

MP2 TOTAL ENERGY:    -2130.881646503 Eh
FINAL SINGLE POINT ENERGY     -2130.881646503172

DIPOLE MOMENT
-------------
                                X             Y             Z
Electronic contribution:      2.29518      -4.19643      -0.22282
Nuclear contribution   :      0.03979       0.21367       0.22151
                        -----------------------------------------
Total Dipole Moment    :      2.33497      -3.98276      -0.00130
                        -----------------------------------------
Magnitude (a.u.)       :      4.61676
Magnitude (Debye)      :     11.73487

Rotational constants in cm-1:     0.001500     0.001478     0.000760
Rotational constants in MHz :    44.982039    44.322089    22.799061

                             ****ORCA TERMINATED NORMALLY****
TOTAL RUN TIME: 0 days 1 hours 11 minutes 21 seconds 662 msec
