                         Program Version 5.0.4 -  RELEASE  -
|  1> ! PAL2
|  2> ! mp2 cc-pvdz TightSCF  NoKeepInts
|  3>
|  4> %scf
|  5>   MaxCore 2000
|  6> end
|  7> %mp2
|  8>   MaxCore 2000
|  9> end
| 10> * xyz 0 1
| 11>    C       -3.64500         6.05500         1.17300
| 12>    C        1.47400         4.04100         0.05700
| 13>    C       -2.80200         4.09300         0.04900
| 14>    C       -3.58300         4.45500        -1.05900
| 15>    C       -4.36000         5.59600        -1.01700
| 16>    C       -5.20000         7.61100         0.08800
| 17>    C        0.13200         4.30700         0.06100
| 18>    C       -0.56900         3.05600         0.04700
| 19>    C        1.64900         2.61800         0.02300
| 20>    C       -2.84800         4.92700         1.17700
| 21>    N       -4.38700         6.37500         0.08900
| 22>    N        0.38800         2.06700         0.02500
| 23>    N       -2.01000         0.39500        -0.07500
| 24>    N       -0.38800        -2.07400        -0.02700
| 25>    N        2.01000        -0.40100         0.06500
| 26>    C       -1.96000         2.86100         0.02400
| 27>    C       -2.62300         1.61500        -0.01800
| 28>    C       -5.57300        -4.32900         1.06600
| 29>    C       -4.07300         1.47100         0.05600
| 30>    C       -4.10600        -2.75600        -0.02600
| 31>    C       -4.99500        -2.75700        -1.11100
| 32>    C       -6.13200        -3.54200        -1.07600
| 33>    C       -7.65100        -5.11300         0.04000
| 34>    C       -4.32400         0.14100         0.03700
| 35>    C       -3.02500        -0.52000        -0.04800
| 36>    C       -4.42200        -3.56600         1.07500
| 37>    N       -6.40700        -4.31300         0.00100
| 38>    C       -2.86700        -1.92200        -0.04000
| 39>    C       -1.65000        -2.62400        -0.02700
| 40>    C        3.56800        -6.14200        -1.04000
| 41>    C       -1.47600        -4.04900        -0.03400
| 42>    C        2.80300        -4.09900        -0.00800
| 43>    C        3.65700        -4.38400         1.06900
| 44>    C        4.42700        -5.53000         1.05900
| 45>    C        5.24500        -7.58800         0.01400
| 46>    C       -0.13400        -4.31500        -0.02200
| 47>    C        0.56800        -3.06400        -0.02700
| 48>    C        2.77500        -5.01200        -1.07400
| 49>    N        4.37600        -6.39100         0.01700
| 50>    C        1.95900        -2.86900        -0.00900
| 51>    C        2.62100        -1.62200         0.00900
| 52>    C        5.54300         4.33900        -1.13000
| 53>    C        4.07000        -1.47900        -0.09400
| 54>    C        4.10400         2.75100        -0.02100
| 55>    C        5.02700         2.72900         1.03600
| 56>    C        6.16600         3.50900         0.97800
| 57>    C        7.61900         5.15300        -0.11500
| 58>    C        4.32100        -0.14800        -0.09200
| 59>    C        3.02500         0.51400         0.01500
| 60>    C        4.38700         3.58200        -1.11500
| 61>    C        2.86600         1.91600         0.01300
| 62>    N        6.41300         4.29600        -0.09500
| 63>    H       -3.72100         6.72000         2.02500
| 64>    H        2.27400         4.76600         0.08100
| 65>    H       -3.58300         3.85700        -1.96300
| 66>    H       -4.97100         5.92000        -1.84900
| 67>    H       -4.61200         8.42400        -0.34300
| 68>    H       -6.09800         7.44100        -0.50600
| 69>    H       -5.47300         7.85100         1.11600
| 70>    H       -0.33200         5.28200         0.06900
| 71>    H       -2.27800         4.69400         2.06900
| 72>    H        0.18200         1.07200         0.00500
| 73>    H       -0.18300        -1.08000        -0.02100
| 74>    H       -5.86400        -4.96200         1.89500
| 75>    H       -4.79400         2.27200         0.13900
| 76>    H       -4.80000        -2.16000        -1.99400
| 77>    H       -6.84100        -3.58200        -1.89300
| 78>    H       -8.42800        -4.53600         0.54600
| 79>    H       -7.95600        -5.33700        -0.98100
| 80>    H       -7.45600        -6.03700         0.58400
| 81>    H       -5.28700        -0.34400         0.10000
| 82>    H       -3.78000        -3.60100         1.94700
| 83>    H        3.58700        -6.86800        -1.84300
| 84>    H       -2.27600        -4.77400        -0.05000
| 85>    H        3.71400        -3.72400         1.92600
| 86>    H        5.09200        -5.79500         1.87100
| 87>    H        6.20500        -7.32900        -0.43900
| 88>    H        5.39300        -7.91700         1.04200
| 89>    H        4.75900        -8.37300        -0.56400
| 90>    H        0.32900        -5.29000        -0.00800
| 91>    H        2.14600        -4.84200        -1.94000
| 92>    H        5.80800         4.98600        -1.95600
| 93>    H        4.78800        -2.28100        -0.18500
| 94>    H        4.86000         2.11400         1.91200
| 95>    H        6.90100         3.53100         1.77200
| 96>    H        7.38300         6.10900         0.35600
| 97>    H        8.41400         4.65200         0.43500
| 98>    H        7.92100         5.31000        -1.15000
| 99>    H        5.28300         0.33600        -0.17900
|100>    H        3.72000         3.63200        -1.96700
|101> *
|102>
|103>                          ****END OF INPUT****

CARTESIAN COORDINATES (ANGSTROEM)
---------------------------------
  C     -3.645000    6.055000    1.173000
  C      1.474000    4.041000    0.057000
  C     -2.802000    4.093000    0.049000
  C     -3.583000    4.455000   -1.059000
  C     -4.360000    5.596000   -1.017000
  C     -5.200000    7.611000    0.088000
  C      0.132000    4.307000    0.061000
  C     -0.569000    3.056000    0.047000
  C      1.649000    2.618000    0.023000
  C     -2.848000    4.927000    1.177000
  N     -4.387000    6.375000    0.089000
  N      0.388000    2.067000    0.025000
  N     -2.010000    0.395000   -0.075000
  N     -0.388000   -2.074000   -0.027000
  N      2.010000   -0.401000    0.065000
  C     -1.960000    2.861000    0.024000
  C     -2.623000    1.615000   -0.018000
  C     -5.573000   -4.329000    1.066000
  C     -4.073000    1.471000    0.056000
  C     -4.106000   -2.756000   -0.026000
  C     -4.995000   -2.757000   -1.111000
  C     -6.132000   -3.542000   -1.076000
  C     -7.651000   -5.113000    0.040000
  C     -4.324000    0.141000    0.037000
  C     -3.025000   -0.520000   -0.048000
  C     -4.422000   -3.566000    1.075000
  N     -6.407000   -4.313000    0.001000
  C     -2.867000   -1.922000   -0.040000
  C     -1.650000   -2.624000   -0.027000
  C      3.568000   -6.142000   -1.040000
  C     -1.476000   -4.049000   -0.034000
  C      2.803000   -4.099000   -0.008000
  C      3.657000   -4.384000    1.069000
  C      4.427000   -5.530000    1.059000
  C      5.245000   -7.588000    0.014000
  C     -0.134000   -4.315000   -0.022000
  C      0.568000   -3.064000   -0.027000
  C      2.775000   -5.012000   -1.074000
  N      4.376000   -6.391000    0.017000
  C      1.959000   -2.869000   -0.009000
  C      2.621000   -1.622000    0.009000
  C      5.543000    4.339000   -1.130000
  C      4.070000   -1.479000   -0.094000
  C      4.104000    2.751000   -0.021000
  C      5.027000    2.729000    1.036000
  C      6.166000    3.509000    0.978000
  C      7.619000    5.153000   -0.115000
  C      4.321000   -0.148000   -0.092000
  C      3.025000    0.514000    0.015000
  C      4.387000    3.582000   -1.115000
  C      2.866000    1.916000    0.013000
  N      6.413000    4.296000   -0.095000
  H     -3.721000    6.720000    2.025000
  H      2.274000    4.766000    0.081000
  H     -3.583000    3.857000   -1.963000
  H     -4.971000    5.920000   -1.849000
  H     -4.612000    8.424000   -0.343000
  H     -6.098000    7.441000   -0.506000
  H     -5.473000    7.851000    1.116000
  H     -0.332000    5.282000    0.069000
  H     -2.278000    4.694000    2.069000
  H      0.182000    1.072000    0.005000
  H     -0.183000   -1.080000   -0.021000
  H     -5.864000   -4.962000    1.895000
  H     -4.794000    2.272000    0.139000
  H     -4.800000   -2.160000   -1.994000
  H     -6.841000   -3.582000   -1.893000
  H     -8.428000   -4.536000    0.546000
  H     -7.956000   -5.337000   -0.981000
  H     -7.456000   -6.037000    0.584000
  H     -5.287000   -0.344000    0.100000
  H     -3.780000   -3.601000    1.947000
  H      3.587000   -6.868000   -1.843000
  H     -2.276000   -4.774000   -0.050000
  H      3.714000   -3.724000    1.926000
  H      5.092000   -5.795000    1.871000
  H      6.205000   -7.329000   -0.439000
  H      5.393000   -7.917000    1.042000
  H      4.759000   -8.373000   -0.564000
  H      0.329000   -5.290000   -0.008000
  H      2.146000   -4.842000   -1.940000
  H      5.808000    4.986000   -1.956000
  H      4.788000   -2.281000   -0.185000
  H      4.860000    2.114000    1.912000
  H      6.901000    3.531000    1.772000
  H      7.383000    6.109000    0.356000
  H      8.414000    4.652000    0.435000
  H      7.921000    5.310000   -1.150000
  H      5.283000    0.336000   -0.179000
  H      3.720000    3.632000   -1.967000

 Total Charge           Charge          ....    0
 Multiplicity           Mult            ....    1
 Number of Electrons    NEL             ....  358
 Basis Dimension        Dim             ....  918

ORBITAL ENERGIES
----------------

  NO   OCC          E(Eh)            E(eV)
   0   2.0000     -15.648988      -425.8306
   1   2.0000     -15.639097      -425.5615
   2   2.0000     -15.627492      -425.2457
   3   2.0000     -15.619692      -425.0334
   4   2.0000     -15.516199      -422.2172
   5   2.0000     -15.514527      -422.1717
   6   2.0000     -15.445685      -420.2985
   7   2.0000     -15.438666      -420.1075
   8   2.0000     -11.308544      -307.7211
   9   2.0000     -11.302582      -307.5589
  10   2.0000     -11.302465      -307.5557
  11   2.0000     -11.301619      -307.5327
  12   2.0000     -11.295410      -307.3637
  13   2.0000     -11.295083      -307.3548
  14   2.0000     -11.293010      -307.2984
  15   2.0000     -11.290479      -307.2296
  16   2.0000     -11.285548      -307.0954
  17   2.0000     -11.283094      -307.0286
  18   2.0000     -11.279590      -306.9333
  19   2.0000     -11.276565      -306.8509
  20   2.0000     -11.251220      -306.1613
  21   2.0000     -11.242404      -305.9214
  22   2.0000     -11.240696      -305.8749
  23   2.0000     -11.240528      -305.8703
  24   2.0000     -11.234111      -305.6957
  25   2.0000     -11.233385      -305.6760
  26   2.0000     -11.231656      -305.6289
  27   2.0000     -11.225322      -305.4566
  28   2.0000     -11.225215      -305.4536
  29   2.0000     -11.224940      -305.4462
  30   2.0000     -11.220120      -305.3150
  31   2.0000     -11.219282      -305.2922
  32   2.0000     -11.197932      -304.7112
  33   2.0000     -11.197735      -304.7059
  34   2.0000     -11.194324      -304.6130
  35   2.0000     -11.194198      -304.6096
  36   2.0000     -11.176663      -304.1325
  37   2.0000     -11.176639      -304.1318
  38   2.0000     -11.173257      -304.0398
  39   2.0000     -11.170268      -303.9584
  40   2.0000     -11.164883      -303.8119
  41   2.0000     -11.162968      -303.7598
  42   2.0000     -11.162897      -303.7579
  43   2.0000     -11.161248      -303.7130
  44   2.0000     -11.158591      -303.6407
  45   2.0000     -11.155303      -303.5512
  46   2.0000     -11.154342      -303.5251
  47   2.0000     -11.150765      -303.4278
  48   2.0000     -11.148605      -303.3690
  49   2.0000     -11.146778      -303.3192
  50   2.0000     -11.134215      -302.9774
  51   2.0000     -11.132597      -302.9334
  52   2.0000      -1.333943       -36.2984
  53   2.0000      -1.325563       -36.0704
  54   2.0000      -1.315354       -35.7926
  55   2.0000      -1.308975       -35.6190
  56   2.0000      -1.215524       -33.0761
  57   2.0000      -1.211957       -32.9790
  58   2.0000      -1.163757       -31.6674
  59   2.0000      -1.151953       -31.3462
  60   2.0000      -1.120496       -30.4902
  61   2.0000      -1.112796       -30.2807
  62   2.0000      -1.104872       -30.0651
  63   2.0000      -1.098161       -29.8825
  64   2.0000      -1.056962       -28.7614
  65   2.0000      -1.049329       -28.5537
  66   2.0000      -1.039860       -28.2960
  67   2.0000      -1.034056       -28.1381
  68   2.0000      -1.027078       -27.9482
  69   2.0000      -1.011763       -27.5315
  70   2.0000      -1.006859       -27.3980
  71   2.0000      -0.996736       -27.1226
  72   2.0000      -0.979713       -26.6593
  73   2.0000      -0.975992       -26.5581
  74   2.0000      -0.969038       -26.3689
  75   2.0000      -0.961400       -26.1610
  76   2.0000      -0.950178       -25.8557
  77   2.0000      -0.946259       -25.7490
  78   2.0000      -0.934458       -25.4279
  79   2.0000      -0.922552       -25.1039
  80   2.0000      -0.891702       -24.2644
  81   2.0000      -0.882689       -24.0192
  82   2.0000      -0.875960       -23.8361
  83   2.0000      -0.867122       -23.5956
  84   2.0000      -0.861864       -23.4525
  85   2.0000      -0.857255       -23.3271
  86   2.0000      -0.852011       -23.1844
  87   2.0000      -0.839416       -22.8417
  88   2.0000      -0.822102       -22.3705
  89   2.0000      -0.797341       -21.6968
  90   2.0000      -0.796909       -21.6850
  91   2.0000      -0.739460       -20.1217
  92   2.0000      -0.729702       -19.8562
  93   2.0000      -0.727136       -19.7864
  94   2.0000      -0.723022       -19.6744
  95   2.0000      -0.716782       -19.5046
  96   2.0000      -0.710450       -19.3323
  97   2.0000      -0.709025       -19.2935
  98   2.0000      -0.697651       -18.9840
  99   2.0000      -0.690664       -18.7939
 100   2.0000      -0.687036       -18.6952
 101   2.0000      -0.682264       -18.5654
 102   2.0000      -0.679950       -18.5024
 103   2.0000      -0.671943       -18.2845
 104   2.0000      -0.669269       -18.2117
 105   2.0000      -0.665512       -18.1095
 106   2.0000      -0.663560       -18.0564
 107   2.0000      -0.659694       -17.9512
 108   2.0000      -0.659188       -17.9374
 109   2.0000      -0.656105       -17.8535
 110   2.0000      -0.650772       -17.7084
 111   2.0000      -0.648582       -17.6488
 112   2.0000      -0.647029       -17.6066
 113   2.0000      -0.642661       -17.4877
 114   2.0000      -0.633385       -17.2353
 115   2.0000      -0.623143       -16.9566
 116   2.0000      -0.622975       -16.9520
 117   2.0000      -0.616255       -16.7691
 118   2.0000      -0.611569       -16.6416
 119   2.0000      -0.607985       -16.5441
 120   2.0000      -0.607088       -16.5197
 121   2.0000      -0.602243       -16.3879
 122   2.0000      -0.600301       -16.3350
 123   2.0000      -0.593925       -16.1615
 124   2.0000      -0.590711       -16.0741
 125   2.0000      -0.584849       -15.9146
 126   2.0000      -0.577299       -15.7091
 127   2.0000      -0.572454       -15.5773
 128   2.0000      -0.568913       -15.4809
 129   2.0000      -0.564077       -15.3493
 130   2.0000      -0.553398       -15.0587
 131   2.0000      -0.545689       -14.8490
 132   2.0000      -0.540689       -14.7129
 133   2.0000      -0.534464       -14.5435
 134   2.0000      -0.531857       -14.4726
 135   2.0000      -0.528185       -14.3726
 136   2.0000      -0.524289       -14.2666
 137   2.0000      -0.523507       -14.2453
 138   2.0000      -0.519998       -14.1499
 139   2.0000      -0.514995       -14.0137
 140   2.0000      -0.509286       -13.8584
 141   2.0000      -0.504432       -13.7263
 142   2.0000      -0.503786       -13.7087
 143   2.0000      -0.501198       -13.6383
 144   2.0000      -0.497976       -13.5506
 145   2.0000      -0.496454       -13.5092
 146   2.0000      -0.495333       -13.4787
 147   2.0000      -0.493597       -13.4315
 148   2.0000      -0.489143       -13.3102
 149   2.0000      -0.467032       -12.7086
 150   2.0000      -0.459999       -12.5172
 151   2.0000      -0.451765       -12.2931
 152   2.0000      -0.446849       -12.1594
 153   2.0000      -0.444584       -12.0977
 154   2.0000      -0.442982       -12.0542
 155   2.0000      -0.439650       -11.9635
 156   2.0000      -0.434033       -11.8106
 157   2.0000      -0.427568       -11.6347
 158   2.0000      -0.389688       -10.6039
 159   2.0000      -0.384580       -10.4650
 160   2.0000      -0.374387       -10.1876
 161   2.0000      -0.371276       -10.1029
 162   2.0000      -0.366158        -9.9637
 163   2.0000      -0.359665        -9.7870
 164   2.0000      -0.351581        -9.5670
 165   2.0000      -0.346830        -9.4377
 166   2.0000      -0.337894        -9.1946
 167   2.0000      -0.333563        -9.0767
 168   2.0000      -0.324730        -8.8363
 169   2.0000      -0.300025        -8.1641
 170   2.0000      -0.292896        -7.9701
 171   2.0000      -0.289296        -7.8721
 172   2.0000      -0.286562        -7.7977
 173   2.0000      -0.256628        -6.9832
 174   2.0000      -0.243889        -6.6365
 175   2.0000      -0.186663        -5.0794
 176   2.0000      -0.176325        -4.7981
 177   2.0000      -0.063538        -1.7290
 178   2.0000      -0.053081        -1.4444
 179   0.0000       0.032486         0.8840
 180   0.0000       0.069000         1.8776
 181   0.0000       0.092522         2.5176
 182   0.0000       0.095477         2.5981
 183   0.0000       0.127742         3.4760

MULLIKEN ATOMIC CHARGES
-----------------------
   0 C :    0.211646
   1 N :   -0.434340
   2 C :   -0.066584
   3 N :   -0.339941
   4 C :   -0.083782
   5 N :   -0.563307
   6 C :   -0.045884
   7 N :   -0.337732
   8 C :    0.210410
   9 N :   -0.563701
  10 C :    0.111656
  11 N :   -0.437467
  12 C :   -0.063663
  13 N :   -0.443041
  14 C :    0.230370
  15 N :   -0.440588
  16 C :    0.241344
  17 C :   -0.048871
  18 C :   -0.188193
  19 C :    0.225907
  20 C :    0.203813
  21 C :   -0.070606
  22 C :   -0.085500
  23 C :   -0.053990
  24 C :    0.210866
  25 C :    0.113739
  26 C :   -0.072518
  27 C :    0.229945
  28 C :   -0.048201
  29 C :   -0.188806
  30 C :    0.231422
  31 C :    0.204298
  32 C :   -0.065349
  33 C :   -0.087731
  34 C :   -0.049935
  35 C :    0.196452
  36 C :    0.116124
  37 C :   -0.067507
  38 C :    0.239335
  39 C :   -0.062764
  40 C :   -0.193157
  41 C :    0.218867
  42 C :    0.206348
  43 C :   -0.074682
  44 C :   -0.088597
  45 C :   -0.048664
  46 C :    0.199002
  47 C :    0.115720
  48 C :   -0.077558
  49 C :    0.220642
  50 C :   -0.056403
  51 C :   -0.189938
  52 H :    0.061569
  53 H :   -0.012740
  54 H :    0.049067
  55 H :    0.059573
  56 H :    0.065426
  57 H :    0.061608
  58 H :    0.060895
  59 H :   -0.018517
  60 H :    0.050272
  61 H :    0.173836
  62 H :    0.171597
  63 H :    0.056624
  64 H :   -0.024653
  65 H :    0.045558
  66 H :    0.057741
  67 H :    0.062508
  68 H :    0.058072
  69 H :    0.059549
  70 H :   -0.022215
  71 H :    0.048674
  72 H :    0.050885
  73 H :   -0.016069
  74 H :    0.041675
  75 H :    0.049803
  76 H :    0.057353
  77 H :    0.054594
  78 H :    0.053781
  79 H :   -0.013017
  80 H :    0.041771
  81 H :    0.053239
  82 H :   -0.023589
  83 H :    0.043400
  84 H :    0.052552
  85 H :    0.058114
  86 H :    0.056614
  87 H :    0.056419
  88 H :   -0.024939
  89 H :    0.044069
Sum of atomic charges:   -0.0000000

LOEWDIN ATOMIC CHARGES
----------------------
   0 C :    0.005757
   1 N :    0.150919
   2 C :   -0.100704
   3 N :    0.175741
   4 C :    0.053167
   5 N :   -0.140699
   6 C :   -0.018327
   7 N :    0.177447
   8 C :    0.004957
   9 N :   -0.138564
  10 C :    0.031421
  11 N :    0.144818
  12 C :   -0.100126
  13 N :    0.133561
  14 C :   -0.049734
  15 N :    0.138370
  16 C :   -0.038447
  17 C :   -0.020359
  18 C :   -0.111502
  19 C :   -0.088590
  20 C :   -0.003047
  21 C :   -0.102637
  22 C :    0.043952
  23 C :   -0.023831
  24 C :    0.003311
  25 C :    0.030470
  26 C :   -0.102052
  27 C :   -0.083756
  28 C :   -0.018564
  29 C :   -0.110354
  30 C :   -0.051602
  31 C :   -0.006634
  32 C :   -0.099750
  33 C :    0.026861
  34 C :   -0.021620
  35 C :   -0.013460
  36 C :    0.027778
  37 C :   -0.103175
  38 C :   -0.037698
  39 C :   -0.028022
  40 C :   -0.109918
  41 C :   -0.094493
  42 C :   -0.002925
  43 C :   -0.107545
  44 C :    0.034303
  45 C :   -0.019971
  46 C :   -0.009285
  47 C :    0.029154
  48 C :   -0.108578
  49 C :   -0.097626
  50 C :   -0.025385
  51 C :   -0.109018
  52 H :    0.032657
  53 H :    0.004943
  54 H :    0.046587
  55 H :    0.032224
  56 H :    0.029759
  57 H :    0.032722
  58 H :    0.033429
  59 H :    0.002878
  60 H :    0.046786
  61 H :    0.061029
  62 H :    0.059799
  63 H :    0.030914
  64 H :   -0.001859
  65 H :    0.044522
  66 H :    0.030809
  67 H :    0.028412
  68 H :    0.032001
  69 H :    0.031659
  70 H :   -0.001091
  71 H :    0.045882
  72 H :    0.028186
  73 H :    0.003258
  74 H :    0.042849
  75 H :    0.027367
  76 H :    0.025720
  77 H :    0.029889
  78 H :    0.029548
  79 H :    0.004821
  80 H :    0.042205
  81 H :    0.028946
  82 H :   -0.001824
  83 H :    0.043868
  84 H :    0.028699
  85 H :    0.026130
  86 H :    0.030563
  87 H :    0.031016
  88 H :   -0.002596
  89 H :    0.043309

  Mayer bond orders larger than 0.100000
B(  0-C ,  1-N ) :   1.1351 B(  0-C , 17-C ) :   1.6097 B(  0-C , 52-H ) :   0.9687
B(  1-N ,  8-C ) :   1.1317 B(  1-N , 10-C ) :   0.9541 B(  2-C , 12-C ) :   1.5462
B(  2-C , 16-C ) :   1.3103 B(  2-C , 53-H ) :   0.9783 B(  3-N , 14-C ) :   1.1947
B(  3-N , 16-C ) :   1.1973 B(  3-N , 61-H ) :   0.8977 B(  4-C ,  6-C ) :   1.2897
B(  4-C , 17-C ) :   1.2866 B(  4-C , 18-C ) :   1.2095 B(  5-N , 19-C ) :   1.4034
B(  5-N , 27-C ) :   1.4182 B(  6-C ,  8-C ) :   1.6085 B(  6-C , 54-H ) :   0.9710
B(  7-N , 30-C ) :   1.1902 B(  7-N , 38-C ) :   1.2057 B(  7-N , 62-H ) :   0.8990
B(  8-C , 55-H ) :   0.9700 B(  9-N , 41-C ) :   1.4146 B(  9-N , 49-C ) :   1.4109
B( 10-C , 56-H ) :   0.9762 B( 10-C , 57-H ) :   0.9820 B( 10-C , 58-H ) :   0.9827
B( 11-N , 20-C ) :   1.1197 B( 11-N , 24-C ) :   1.1293 B( 11-N , 25-C ) :   0.9579
B( 12-C , 14-C ) :   1.3116 B( 12-C , 59-H ) :   0.9779 B( 13-N , 31-C ) :   1.1122
B( 13-N , 35-C ) :   1.1037 B( 13-N , 36-C ) :   0.9661 B( 14-C , 18-C ) :   1.2163
B( 15-N , 42-C ) :   1.1197 B( 15-N , 46-C ) :   1.1095 B( 15-N , 47-C ) :   0.9627
B( 16-C , 51-C ) :   1.2129 B( 17-C , 60-H ) :   0.9715 B( 18-C , 19-C ) :   1.2391
B( 19-C , 21-C ) :   1.2014 B( 20-C , 28-C ) :   1.6219 B( 20-C , 63-H ) :   0.9703
B( 21-C , 26-C ) :   1.6496 B( 21-C , 64-H ) :   0.9739 B( 22-C , 23-C ) :   1.2779
B( 22-C , 28-C ) :   1.2786 B( 22-C , 29-C ) :   1.2345 B( 23-C , 24-C ) :   1.6200
B( 23-C , 65-H ) :   0.9712 B( 24-C , 66-H ) :   0.9690 B( 25-C , 67-H ) :   0.9762
B( 25-C , 68-H ) :   0.9830 B( 25-C , 69-H ) :   0.9820 B( 26-C , 27-C ) :   1.2014
B( 26-C , 70-H ) :   0.9738 B( 27-C , 29-C ) :   1.2301 B( 28-C , 71-H ) :   0.9712
B( 29-C , 30-C ) :   1.2042 B( 30-C , 32-C ) :   1.3209 B( 31-C , 39-C ) :   1.6452
B( 31-C , 72-H ) :   0.9700 B( 32-C , 37-C ) :   1.5374 B( 32-C , 73-H ) :   0.9775
B( 33-C , 34-C ) :   1.2636 B( 33-C , 39-C ) :   1.2560 B( 33-C , 40-C ) :   1.2773
B( 34-C , 35-C ) :   1.6426 B( 34-C , 74-H ) :   0.9706 B( 35-C , 75-H ) :   0.9700
B( 36-C , 76-H ) :   0.9761 B( 36-C , 77-H ) :   0.9822 B( 36-C , 78-H ) :   0.9833
B( 37-C , 38-C ) :   1.3209 B( 37-C , 79-H ) :   0.9782 B( 38-C , 40-C ) :   1.2013
B( 39-C , 80-H ) :   0.9717 B( 40-C , 41-C ) :   1.2040 B( 41-C , 43-C ) :   1.2270
B( 42-C , 50-C ) :   1.6343 B( 42-C , 81-H ) :   0.9695 B( 43-C , 48-C ) :   1.6243
B( 43-C , 82-H ) :   0.9742 B( 44-C , 45-C ) :   1.2742 B( 44-C , 50-C ) :   1.2637
B( 44-C , 51-C ) :   1.2531 B( 45-C , 46-C ) :   1.6313 B( 45-C , 83-H ) :   0.9709
B( 46-C , 84-H ) :   0.9704 B( 47-C , 85-H ) :   0.9761 B( 47-C , 86-H ) :   0.9827
B( 47-C , 87-H ) :   0.9827 B( 48-C , 49-C ) :   1.2250 B( 48-C , 88-H ) :   0.9734
B( 49-C , 51-C ) :   1.2094 B( 50-C , 89-H ) :   0.9715

MP2 TOTAL ENERGY:    -2130.908947907 Eh
FINAL SINGLE POINT ENERGY     -2130.908947907078

DIPOLE MOMENT
-------------
                                X             Y             Z
Electronic contribution:     -1.44270       0.69193      -0.06030
Nuclear contribution   :      0.03425       0.21174       0.07559
                        -----------------------------------------
Total Dipole Moment    :     -1.40845       0.90367       0.01529
                        -----------------------------------------
Magnitude (a.u.)       :      1.67350
Magnitude (Debye)      :      4.25369

Rotational constants in cm-1:     0.001499     0.001472     0.000762
Rotational constants in MHz :    44.939834    44.144177    22.856814

                             ****ORCA TERMINATED NORMALLY****
TOTAL RUN TIME: 0 days 0 hours 57 minutes 14 seconds 322 msec
