                         Program Version 5.0.4 -  RELEASE  -
|  1> ! PAL2
|  2> ! mp2 cc-pvdz TightSCF  NoKeepInts
|  3>
|  4> %scf
|  5>   MaxCore 2000
|  6> end
|  7> %mp2
|  8>   MaxCore 2000
|  9> end
| 10> * xyz 0 1
| 11>    C       -3.20800         6.38900        -0.57300
| 12>    C        1.47400         4.04100         0.05700
| 13>    C       -2.80200         4.09300         0.04900
| 14>    C       -4.01500         4.12300         0.75500
| 15>    C       -4.77900         5.27300         0.77100
| 16>    C       -5.23100         7.59000         0.12300
| 17>    C        0.13200         4.30700         0.06100
| 18>    C       -0.56900         3.05600         0.04700
| 19>    C        1.64900         2.61800         0.02300
| 20>    C       -2.41200         5.26100        -0.62400
| 21>    N       -4.37100         6.38500         0.11700
| 22>    N        0.38800         2.06700         0.02500
| 23>    N       -2.01000         0.39500        -0.07500
| 24>    N       -0.38800        -2.07400        -0.02700
| 25>    N        2.01000        -0.40100         0.06500
| 26>    C       -1.96000         2.86100         0.02400
| 27>    C       -2.62300         1.61500        -0.01800
| 28>    C       -5.57300        -4.32900         1.06600
| 29>    C       -4.07300         1.47100         0.05600
| 30>    C       -4.10600        -2.75600        -0.02600
| 31>    C       -4.99500        -2.75700        -1.11100
| 32>    C       -6.13200        -3.54200        -1.07600
| 33>    C       -7.65100        -5.11300         0.04000
| 34>    C       -4.32400         0.14100         0.03700
| 35>    C       -3.02500        -0.52000        -0.04800
| 36>    C       -4.42200        -3.56600         1.07500
| 37>    N       -6.40700        -4.31300         0.00100
| 38>    C       -2.86700        -1.92200        -0.04000
| 39>    C       -1.65000        -2.62400        -0.02700
| 40>    C        3.56800        -6.14200        -1.04000
| 41>    C       -1.47600        -4.04900        -0.03400
| 42>    C        2.80300        -4.09900        -0.00800
| 43>    C        3.65700        -4.38400         1.06900
| 44>    C        4.42700        -5.53000         1.05900
| 45>    C        5.24500        -7.58800         0.01400
| 46>    C       -0.13400        -4.31500        -0.02200
| 47>    C        0.56800        -3.06400        -0.02700
| 48>    C        2.77500        -5.01200        -1.07400
| 49>    N        4.37600        -6.39100         0.01700
| 50>    C        1.95900        -2.86900        -0.00900
| 51>    C        2.62100        -1.62200         0.00900
| 52>    C        5.54300         4.33900        -1.13000
| 53>    C        4.07000        -1.47900        -0.09400
| 54>    C        4.10400         2.75100        -0.02100
| 55>    C        5.02700         2.72900         1.03600
| 56>    C        6.16600         3.50900         0.97800
| 57>    C        7.61900         5.15300        -0.11500
| 58>    C        4.32100        -0.14800        -0.09200
| 59>    C        3.02500         0.51400         0.01500
| 60>    C        4.38700         3.58200        -1.11500
| 61>    C        2.86600         1.91600         0.01300
| 62>    N        6.41300         4.29600        -0.09500
| 63>    H       -2.94100         7.31600        -1.06600
| 64>    H        2.27400         4.76600         0.08100
| 65>    H       -4.37400         3.25000         1.28600
| 66>    H       -5.72400         5.34200         1.29400
| 67>    H       -5.96200         7.50900        -0.68500
| 68>    H       -5.74000         7.65300         1.08400
| 69>    H       -4.60400         8.46900        -0.02600
| 70>    H       -0.33200         5.28200         0.06900
| 71>    H       -1.47900         5.30600        -1.17400
| 72>    H        0.18200         1.07200         0.00500
| 73>    H       -0.18300        -1.08000        -0.02100
| 74>    H       -5.86400        -4.96200         1.89500
| 75>    H       -4.79400         2.27200         0.13900
| 76>    H       -4.80000        -2.16000        -1.99400
| 77>    H       -6.84100        -3.58200        -1.89300
| 78>    H       -8.42800        -4.53600         0.54600
| 79>    H       -7.95600        -5.33700        -0.98100
| 80>    H       -7.45600        -6.03700         0.58400
| 81>    H       -5.28700        -0.34400         0.10000
| 82>    H       -3.78000        -3.60100         1.94700
| 83>    H        3.58700        -6.86800        -1.84300
| 84>    H       -2.27600        -4.77400        -0.05000
| 85>    H        3.71400        -3.72400         1.92600
| 86>    H        5.09200        -5.79500         1.87100
| 87>    H        6.20500        -7.32900        -0.43900
| 88>    H        5.39300        -7.91700         1.04200
| 89>    H        4.75900        -8.37300        -0.56400
| 90>    H        0.32900        -5.29000        -0.00800
| 91>    H        2.14600        -4.84200        -1.94000
| 92>    H        5.80800         4.98600        -1.95600
| 93>    H        4.78800        -2.28100        -0.18500
| 94>    H        4.86000         2.11400         1.91200
| 95>    H        6.90100         3.53100         1.77200
| 96>    H        7.38300         6.10900         0.35600
| 97>    H        8.41400         4.65200         0.43500
| 98>    H        7.92100         5.31000        -1.15000
| 99>    H        5.28300         0.33600        -0.17900
|100>    H        3.72000         3.63200        -1.96700
|101> *
|102>
|103>                          ****END OF INPUT****

CARTESIAN COORDINATES (ANGSTROEM)
---------------------------------
  C     -3.208000    6.389000   -0.573000
  C      1.474000    4.041000    0.057000
  C     -2.802000    4.093000    0.049000
  C     -4.015000    4.123000    0.755000
  C     -4.779000    5.273000    0.771000
  C     -5.231000    7.590000    0.123000
  C      0.132000    4.307000    0.061000
  C     -0.569000    3.056000    0.047000
  C      1.649000    2.618000    0.023000
  C     -2.412000    5.261000   -0.624000
  N     -4.371000    6.385000    0.117000
  N      0.388000    2.067000    0.025000
  N     -2.010000    0.395000   -0.075000
  N     -0.388000   -2.074000   -0.027000
  N      2.010000   -0.401000    0.065000
  C     -1.960000    2.861000    0.024000
  C     -2.623000    1.615000   -0.018000
  C     -5.573000   -4.329000    1.066000
  C     -4.073000    1.471000    0.056000
  C     -4.106000   -2.756000   -0.026000
  C     -4.995000   -2.757000   -1.111000
  C     -6.132000   -3.542000   -1.076000
  C     -7.651000   -5.113000    0.040000
  C     -4.324000    0.141000    0.037000
  C     -3.025000   -0.520000   -0.048000
  C     -4.422000   -3.566000    1.075000
  N     -6.407000   -4.313000    0.001000
  C     -2.867000   -1.922000   -0.040000
  C     -1.650000   -2.624000   -0.027000
  C      3.568000   -6.142000   -1.040000
  C     -1.476000   -4.049000   -0.034000
  C      2.803000   -4.099000   -0.008000
  C      3.657000   -4.384000    1.069000
  C      4.427000   -5.530000    1.059000
  C      5.245000   -7.588000    0.014000
  C     -0.134000   -4.315000   -0.022000
  C      0.568000   -3.064000   -0.027000
  C      2.775000   -5.012000   -1.074000
  N      4.376000   -6.391000    0.017000
  C      1.959000   -2.869000   -0.009000
  C      2.621000   -1.622000    0.009000
  C      5.543000    4.339000   -1.130000
  C      4.070000   -1.479000   -0.094000
  C      4.104000    2.751000   -0.021000
  C      5.027000    2.729000    1.036000
  C      6.166000    3.509000    0.978000
  C      7.619000    5.153000   -0.115000
  C      4.321000   -0.148000   -0.092000
  C      3.025000    0.514000    0.015000
  C      4.387000    3.582000   -1.115000
  C      2.866000    1.916000    0.013000
  N      6.413000    4.296000   -0.095000
  H     -2.941000    7.316000   -1.066000
  H      2.274000    4.766000    0.081000
  H     -4.374000    3.250000    1.286000
  H     -5.724000    5.342000    1.294000
  H     -5.962000    7.509000   -0.685000
  H     -5.740000    7.653000    1.084000
  H     -4.604000    8.469000   -0.026000
  H     -0.332000    5.282000    0.069000
  H     -1.479000    5.306000   -1.174000
  H      0.182000    1.072000    0.005000
  H     -0.183000   -1.080000   -0.021000
  H     -5.864000   -4.962000    1.895000
  H     -4.794000    2.272000    0.139000
  H     -4.800000   -2.160000   -1.994000
  H     -6.841000   -3.582000   -1.893000
  H     -8.428000   -4.536000    0.546000
  H     -7.956000   -5.337000   -0.981000
  H     -7.456000   -6.037000    0.584000
  H     -5.287000   -0.344000    0.100000
  H     -3.780000   -3.601000    1.947000
  H      3.587000   -6.868000   -1.843000
  H     -2.276000   -4.774000   -0.050000
  H      3.714000   -3.724000    1.926000
  H      5.092000   -5.795000    1.871000
  H      6.205000   -7.329000   -0.439000
  H      5.393000   -7.917000    1.042000
  H      4.759000   -8.373000   -0.564000
  H      0.329000   -5.290000   -0.008000
  H      2.146000   -4.842000   -1.940000
  H      5.808000    4.986000   -1.956000
  H      4.788000   -2.281000   -0.185000
  H      4.860000    2.114000    1.912000
  H      6.901000    3.531000    1.772000
  H      7.383000    6.109000    0.356000
  H      8.414000    4.652000    0.435000
  H      7.921000    5.310000   -1.150000
  H      5.283000    0.336000   -0.179000
  H      3.720000    3.632000   -1.967000

 Total Charge           Charge          ....    0
 Multiplicity           Mult            ....    1
 Number of Electrons    NEL             ....  358
 Basis Dimension        Dim             ....  918

ORBITAL ENERGIES
----------------

  NO   OCC          E(Eh)            E(eV)
   0   2.0000     -15.668618      -426.3648
   1   2.0000     -15.635173      -425.4547
   2   2.0000     -15.630682      -425.3325
   3   2.0000     -15.595180      -424.3664
   4   2.0000     -15.523944      -422.4280
   5   2.0000     -15.516346      -422.2212
   6   2.0000     -15.451442      -420.4551
   7   2.0000     -15.441941      -420.1966
   8   2.0000     -11.321032      -308.0609
   9   2.0000     -11.320331      -308.0419
  10   2.0000     -11.318749      -307.9988
  11   2.0000     -11.300067      -307.4905
  12   2.0000     -11.297567      -307.4224
  13   2.0000     -11.293416      -307.3095
  14   2.0000     -11.289532      -307.2038
  15   2.0000     -11.288206      -307.1677
  16   2.0000     -11.286098      -307.1103
  17   2.0000     -11.275978      -306.8349
  18   2.0000     -11.271559      -306.7147
  19   2.0000     -11.260168      -306.4047
  20   2.0000     -11.258160      -306.3501
  21   2.0000     -11.255527      -306.2785
  22   2.0000     -11.254583      -306.2528
  23   2.0000     -11.238774      -305.8226
  24   2.0000     -11.235413      -305.7311
  25   2.0000     -11.232049      -305.6396
  26   2.0000     -11.231245      -305.6177
  27   2.0000     -11.228830      -305.5520
  28   2.0000     -11.228735      -305.5494
  29   2.0000     -11.208434      -304.9970
  30   2.0000     -11.207313      -304.9665
  31   2.0000     -11.204401      -304.8872
  32   2.0000     -11.198626      -304.7301
  33   2.0000     -11.196790      -304.6801
  34   2.0000     -11.190770      -304.5163
  35   2.0000     -11.189928      -304.4934
  36   2.0000     -11.186513      -304.4005
  37   2.0000     -11.183997      -304.3320
  38   2.0000     -11.183015      -304.3053
  39   2.0000     -11.172559      -304.0208
  40   2.0000     -11.170626      -303.9682
  41   2.0000     -11.169891      -303.9482
  42   2.0000     -11.166092      -303.8448
  43   2.0000     -11.162553      -303.7485
  44   2.0000     -11.160604      -303.6955
  45   2.0000     -11.159248      -303.6586
  46   2.0000     -11.156989      -303.5971
  47   2.0000     -11.152746      -303.4816
  48   2.0000     -11.149114      -303.3828
  49   2.0000     -11.142314      -303.1978
  50   2.0000     -11.134101      -302.9743
  51   2.0000     -11.126007      -302.7540
  52   2.0000      -1.350880       -36.7593
  53   2.0000      -1.322252       -35.9803
  54   2.0000      -1.318574       -35.8802
  55   2.0000      -1.288696       -35.0672
  56   2.0000      -1.224175       -33.3115
  57   2.0000      -1.211011       -32.9533
  58   2.0000      -1.169994       -31.8372
  59   2.0000      -1.153110       -31.3777
  60   2.0000      -1.135659       -30.9028
  61   2.0000      -1.110994       -30.2317
  62   2.0000      -1.108084       -30.1525
  63   2.0000      -1.083840       -29.4928
  64   2.0000      -1.073256       -29.2048
  65   2.0000      -1.046374       -28.4733
  66   2.0000      -1.043284       -28.3892
  67   2.0000      -1.035876       -28.1876
  68   2.0000      -1.016827       -27.6693
  69   2.0000      -1.013911       -27.5899
  70   2.0000      -1.009848       -27.4794
  71   2.0000      -0.992333       -27.0028
  72   2.0000      -0.987377       -26.8679
  73   2.0000      -0.978166       -26.6172
  74   2.0000      -0.972736       -26.4695
  75   2.0000      -0.960237       -26.1294
  76   2.0000      -0.952105       -25.9081
  77   2.0000      -0.947363       -25.7791
  78   2.0000      -0.935573       -25.4582
  79   2.0000      -0.920502       -25.0481
  80   2.0000      -0.902929       -24.5699
  81   2.0000      -0.892321       -24.2813
  82   2.0000      -0.874283       -23.7905
  83   2.0000      -0.871276       -23.7086
  84   2.0000      -0.867327       -23.6012
  85   2.0000      -0.856164       -23.2974
  86   2.0000      -0.842898       -22.9364
  87   2.0000      -0.837013       -22.7763
  88   2.0000      -0.823324       -22.4038
  89   2.0000      -0.798327       -21.7236
  90   2.0000      -0.793306       -21.5869
  91   2.0000      -0.747447       -20.3391
  92   2.0000      -0.739621       -20.1261
  93   2.0000      -0.732081       -19.9209
  94   2.0000      -0.723138       -19.6776
  95   2.0000      -0.721251       -19.6262
  96   2.0000      -0.714642       -19.4464
  97   2.0000      -0.708541       -19.2804
  98   2.0000      -0.704592       -19.1729
  99   2.0000      -0.696029       -18.9399
 100   2.0000      -0.695290       -18.9198
 101   2.0000      -0.683046       -18.5866
 102   2.0000      -0.678668       -18.4675
 103   2.0000      -0.677060       -18.4237
 104   2.0000      -0.676973       -18.4214
 105   2.0000      -0.672411       -18.2972
 106   2.0000      -0.667121       -18.1533
 107   2.0000      -0.661645       -18.0043
 108   2.0000      -0.655247       -17.8302
 109   2.0000      -0.653951       -17.7949
 110   2.0000      -0.650293       -17.6954
 111   2.0000      -0.644444       -17.5362
 112   2.0000      -0.641465       -17.4551
 113   2.0000      -0.638231       -17.3671
 114   2.0000      -0.637970       -17.3600
 115   2.0000      -0.627511       -17.0755
 116   2.0000      -0.626522       -17.0485
 117   2.0000      -0.617238       -16.7959
 118   2.0000      -0.613311       -16.6890
 119   2.0000      -0.611834       -16.6489
 120   2.0000      -0.610504       -16.6127
 121   2.0000      -0.604419       -16.4471
 122   2.0000      -0.600743       -16.3470
 123   2.0000      -0.587402       -15.9840
 124   2.0000      -0.583342       -15.8735
 125   2.0000      -0.581350       -15.8193
 126   2.0000      -0.579593       -15.7715
 127   2.0000      -0.577244       -15.7076
 128   2.0000      -0.564963       -15.3734
 129   2.0000      -0.558793       -15.2055
 130   2.0000      -0.552875       -15.0445
 131   2.0000      -0.548110       -14.9148
 132   2.0000      -0.541959       -14.7475
 133   2.0000      -0.538279       -14.6473
 134   2.0000      -0.537731       -14.6324
 135   2.0000      -0.535384       -14.5685
 136   2.0000      -0.526570       -14.3287
 137   2.0000      -0.524072       -14.2607
 138   2.0000      -0.516560       -14.0563
 139   2.0000      -0.514554       -14.0017
 140   2.0000      -0.511934       -13.9304
 141   2.0000      -0.511179       -13.9099
 142   2.0000      -0.508740       -13.8435
 143   2.0000      -0.503265       -13.6945
 144   2.0000      -0.501369       -13.6429
 145   2.0000      -0.497599       -13.5404
 146   2.0000      -0.493962       -13.4414
 147   2.0000      -0.485258       -13.2045
 148   2.0000      -0.481889       -13.1129
 149   2.0000      -0.467520       -12.7219
 150   2.0000      -0.465018       -12.6538
 151   2.0000      -0.456848       -12.4315
 152   2.0000      -0.449667       -12.2361
 153   2.0000      -0.445768       -12.1300
 154   2.0000      -0.442665       -12.0455
 155   2.0000      -0.438707       -11.9378
 156   2.0000      -0.430335       -11.7100
 157   2.0000      -0.422133       -11.4868
 158   2.0000      -0.402451       -10.9513
 159   2.0000      -0.387855       -10.5541
 160   2.0000      -0.380435       -10.3522
 161   2.0000      -0.378130       -10.2894
 162   2.0000      -0.370110       -10.0712
 163   2.0000      -0.357397        -9.7253
 164   2.0000      -0.354980        -9.6595
 165   2.0000      -0.339320        -9.2334
 166   2.0000      -0.337243        -9.1768
 167   2.0000      -0.328590        -8.9414
 168   2.0000      -0.326629        -8.8880
 169   2.0000      -0.302807        -8.2398
 170   2.0000      -0.299835        -8.1589
 171   2.0000      -0.286620        -7.7993
 172   2.0000      -0.283410        -7.7120
 173   2.0000      -0.261619        -7.1190
 174   2.0000      -0.244078        -6.6417
 175   2.0000      -0.189660        -5.1609
 176   2.0000      -0.179941        -4.8964
 177   2.0000      -0.073817        -2.0087
 178   2.0000      -0.057683        -1.5696
 179   0.0000       0.028829         0.7845
 180   0.0000       0.067255         1.8301
 181   0.0000       0.091720         2.4958
 182   0.0000       0.107462         2.9242
 183   0.0000       0.113596         3.0911

MULLIKEN ATOMIC CHARGES
-----------------------
   0 C :    0.208036
   1 N :   -0.453632
   2 C :   -0.063488
   3 N :   -0.336385
   4 C :   -0.048977
   5 N :   -0.563453
   6 C :   -0.105405
   7 N :   -0.339803
   8 C :    0.205809
   9 N :   -0.562464
  10 C :    0.118352
  11 N :   -0.438193
  12 C :   -0.083592
  13 N :   -0.432087
  14 C :    0.237552
  15 N :   -0.441046
  16 C :    0.227962
  17 C :   -0.115409
  18 C :   -0.201265
  19 C :    0.230216
  20 C :    0.212261
  21 C :   -0.095607
  22 C :   -0.090730
  23 C :   -0.041468
  24 C :    0.196190
  25 C :    0.114441
  26 C :   -0.077528
  27 C :    0.213584
  28 C :   -0.059762
  29 C :   -0.180532
  30 C :    0.243695
  31 C :    0.225602
  32 C :   -0.062566
  33 C :   -0.065616
  34 C :   -0.050715
  35 C :    0.222218
  36 C :    0.109697
  37 C :   -0.064956
  38 C :    0.232718
  39 C :   -0.058658
  40 C :   -0.183134
  41 C :    0.224778
  42 C :    0.198476
  43 C :   -0.072543
  44 C :   -0.089716
  45 C :   -0.059350
  46 C :    0.209566
  47 C :    0.115461
  48 C :   -0.068622
  49 C :    0.235991
  50 C :   -0.047973
  51 C :   -0.190905
  52 H :    0.041624
  53 H :   -0.016079
  54 H :    0.053052
  55 H :    0.040645
  56 H :    0.050777
  57 H :    0.049257
  58 H :    0.048657
  59 H :    0.000625
  60 H :    0.048292
  61 H :    0.171448
  62 H :    0.174866
  63 H :    0.055522
  64 H :   -0.008054
  65 H :    0.047406
  66 H :    0.056213
  67 H :    0.062413
  68 H :    0.057498
  69 H :    0.056891
  70 H :   -0.028371
  71 H :    0.045307
  72 H :    0.067740
  73 H :   -0.009274
  74 H :    0.057075
  75 H :    0.067041
  76 H :    0.071764
  77 H :    0.065593
  78 H :    0.064867
  79 H :   -0.015858
  80 H :    0.057867
  81 H :    0.053895
  82 H :   -0.024455
  83 H :    0.042173
  84 H :    0.053926
  85 H :    0.060424
  86 H :    0.055674
  87 H :    0.056949
  88 H :   -0.015971
  89 H :    0.045554
Sum of atomic charges:   -0.0000000

LOEWDIN ATOMIC CHARGES
----------------------
   0 C :   -0.019199
   1 N :    0.118578
   2 C :   -0.100982
   3 N :    0.183079
   4 C :   -0.001946
   5 N :   -0.133176
   6 C :   -0.035761
   7 N :    0.176122
   8 C :   -0.021114
   9 N :   -0.140207
  10 C :    0.024782
  11 N :    0.142507
  12 C :   -0.111423
  13 N :    0.160139
  14 C :   -0.031351
  15 N :    0.138507
  16 C :   -0.057413
  17 C :   -0.042139
  18 C :   -0.102997
  19 C :   -0.083118
  20 C :    0.003661
  21 C :   -0.119149
  22 C :    0.037466
  23 C :   -0.015602
  24 C :   -0.010171
  25 C :    0.029944
  26 C :   -0.106641
  27 C :   -0.112428
  28 C :   -0.026248
  29 C :   -0.101256
  30 C :   -0.033499
  31 C :    0.018869
  32 C :   -0.095496
  33 C :    0.071558
  34 C :   -0.016130
  35 C :    0.016160
  36 C :    0.033873
  37 C :   -0.095929
  38 C :   -0.049485
  39 C :   -0.019459
  40 C :   -0.108327
  41 C :   -0.091908
  42 C :   -0.009641
  43 C :   -0.100419
  44 C :    0.032930
  45 C :   -0.026800
  46 C :    0.000111
  47 C :    0.029415
  48 C :   -0.096877
  49 C :   -0.074071
  50 C :   -0.020062
  51 C :   -0.108456
  52 H :    0.024410
  53 H :    0.003336
  54 H :    0.042649
  55 H :    0.024271
  56 H :    0.022391
  57 H :    0.026961
  58 H :    0.027646
  59 H :    0.009539
  60 H :    0.040173
  61 H :    0.060137
  62 H :    0.061544
  63 H :    0.030775
  64 H :    0.004956
  65 H :    0.045899
  66 H :    0.029580
  67 H :    0.028237
  68 H :    0.031745
  69 H :    0.030519
  70 H :   -0.003858
  71 H :    0.043778
  72 H :    0.036039
  73 H :    0.006506
  74 H :    0.049289
  75 H :    0.035585
  76 H :    0.033161
  77 H :    0.035053
  78 H :    0.034731
  79 H :    0.003322
  80 H :    0.049226
  81 H :    0.028916
  82 H :   -0.002499
  83 H :    0.042728
  84 H :    0.029701
  85 H :    0.027167
  86 H :    0.030225
  87 H :    0.031280
  88 H :    0.001675
  89 H :    0.044387

  Mayer bond orders larger than 0.100000
B(  0-C ,  1-N ) :   1.0954 B(  0-C , 17-C ) :   1.6926 B(  0-C , 52-H ) :   0.9679
B(  1-N ,  8-C ) :   1.0892 B(  1-N , 10-C ) :   0.9754 B(  2-C , 12-C ) :   1.5133
B(  2-C , 16-C ) :   1.3507 B(  2-C , 53-H ) :   0.9758 B(  3-N , 14-C ) :   1.2172
B(  3-N , 16-C ) :   1.1912 B(  3-N , 61-H ) :   0.8990 B(  4-C ,  6-C ) :   1.2174
B(  4-C , 17-C ) :   1.2189 B(  4-C , 18-C ) :   1.4129 B(  5-N , 19-C ) :   1.4477
B(  5-N , 27-C ) :   1.3827 B(  6-C ,  8-C ) :   1.6987 B(  6-C , 54-H ) :   0.9600
B(  7-N , 30-C ) :   1.1955 B(  7-N , 38-C ) :   1.1928 B(  7-N , 62-H ) :   0.8971
B(  8-C , 55-H ) :   0.9679 B(  9-N , 41-C ) :   1.3969 B(  9-N , 49-C ) :   1.4236
B( 10-C , 56-H ) :   0.9769 B( 10-C , 57-H ) :   0.9821 B( 10-C , 58-H ) :   0.9843
B( 11-N , 20-C ) :   1.1296 B( 11-N , 24-C ) :   1.1102 B( 11-N , 25-C ) :   0.9598
B( 12-C , 14-C ) :   1.3515 B( 12-C , 59-H ) :   0.9742 B( 13-N , 31-C ) :   1.1520
B( 13-N , 35-C ) :   1.1488 B( 13-N , 36-C ) :   0.9459 B( 14-C , 18-C ) :   1.1397
B( 15-N , 42-C ) :   1.1091 B( 15-N , 46-C ) :   1.1215 B( 15-N , 47-C ) :   0.9617
B( 16-C , 51-C ) :   1.1760 B( 17-C , 60-H ) :   0.9627 B( 18-C , 19-C ) :   1.1460
B( 19-C , 21-C ) :   1.2398 B( 20-C , 28-C ) :   1.6275 B( 20-C , 63-H ) :   0.9703
B( 21-C , 26-C ) :   1.6149 B( 21-C , 64-H ) :   0.9694 B( 22-C , 23-C ) :   1.2885
B( 22-C , 28-C ) :   1.2661 B( 22-C , 29-C ) :   1.2238 B( 23-C , 24-C ) :   1.6196
B( 23-C , 65-H ) :   0.9704 B( 24-C , 66-H ) :   0.9694 B( 25-C , 67-H ) :   0.9760
B( 25-C , 68-H ) :   0.9828 B( 25-C , 69-H ) :   0.9823 B( 26-C , 27-C ) :   1.2358
B( 26-C , 70-H ) :   0.9713 B( 27-C , 29-C ) :   1.2170 B( 28-C , 71-H ) :   0.9719
B( 29-C , 30-C ) :   1.2355 B( 30-C , 32-C ) :   1.2885 B( 31-C , 39-C ) :   1.5986
B( 31-C , 72-H ) :   0.9685 B( 32-C , 37-C ) :   1.5703 B( 32-C , 73-H ) :   0.9784
B( 33-C , 34-C ) :   1.2995 B( 33-C , 39-C ) :   1.2948 B( 33-C , 40-C ) :   1.1938
B( 34-C , 35-C ) :   1.5958 B( 34-C , 74-H ) :   0.9698 B( 35-C , 75-H ) :   0.9685
B( 36-C , 76-H ) :   0.9766 B( 36-C , 77-H ) :   0.9817 B( 36-C , 78-H ) :   0.9825
B( 37-C , 38-C ) :   1.2927 B( 37-C , 79-H ) :   0.9768 B( 38-C , 40-C ) :   1.2266
B( 39-C , 80-H ) :   0.9708 B( 40-C , 41-C ) :   1.2435 B( 41-C , 43-C ) :   1.1912
B( 42-C , 50-C ) :   1.6335 B( 42-C , 81-H ) :   0.9697 B( 43-C , 48-C ) :   1.6611
B( 43-C , 82-H ) :   0.9725 B( 44-C , 45-C ) :   1.2649 B( 44-C , 50-C ) :   1.2709
B( 44-C , 51-C ) :   1.2597 B( 45-C , 46-C ) :   1.6347 B( 45-C , 83-H ) :   0.9717
B( 46-C , 84-H ) :   0.9700 B( 47-C , 85-H ) :   0.9762 B( 47-C , 86-H ) :   0.9829
B( 47-C , 87-H ) :   0.9825 B( 48-C , 49-C ) :   1.1942 B( 48-C , 88-H ) :   0.9746
B( 49-C , 51-C ) :   1.2373 B( 50-C , 89-H ) :   0.9710

MP2 TOTAL ENERGY:    -2130.896787221 Eh
FINAL SINGLE POINT ENERGY     -2130.896787221461

DIPOLE MOMENT
-------------
                                X             Y             Z
Electronic contribution:      2.10915      -3.44065      -0.11860
Nuclear contribution   :     -0.04966       0.15460       0.14345
                        -----------------------------------------
Total Dipole Moment    :      2.05949      -3.28605       0.02486
                        -----------------------------------------
Magnitude (a.u.)       :      3.87817
Magnitude (Debye)      :      9.85753

Rotational constants in cm-1:     0.001501     0.001476     0.000761
Rotational constants in MHz :    45.009986    44.255695    22.809130

                             ****ORCA TERMINATED NORMALLY****
TOTAL RUN TIME: 0 days 1 hours 34 minutes 8 seconds 447 msec
