                         Program Version 5.0.4 -  RELEASE  -
|  1> ! PAL2
|  2> ! mp2 cc-pvdz TightSCF  NoKeepInts
|  3>
|  4> %scf
|  5>   MaxCore 2000
|  6> end
|  7> %mp2
|  8>   MaxCore 2000
|  9> end
| 10> * xyz 0 1
| 11>    C       -3.04900         6.48900        -0.10800
| 12>    C        1.47400         4.04100         0.05700
| 13>    C       -2.80200         4.09300         0.04900
| 14>    C       -4.18500         4.01700         0.27600
| 15>    C       -4.94800         5.16700         0.30100
| 16>    C       -5.22900         7.59100         0.10900
| 17>    C        0.13200         4.30700         0.06100
| 18>    C       -0.56900         3.05600         0.04700
| 19>    C        1.64900         2.61800         0.02300
| 20>    C       -2.24500         5.36600        -0.14700
| 21>    N       -4.37800         6.38000         0.11400
| 22>    N        0.38800         2.06700         0.02500
| 23>    N       -2.01000         0.39500        -0.07500
| 24>    N       -0.38800        -2.07400        -0.02700
| 25>    N        2.01000        -0.40100         0.06500
| 26>    C       -1.96000         2.86100         0.02400
| 27>    C       -2.62300         1.61500        -0.01800
| 28>    C       -5.57300        -4.32900         1.06600
| 29>    C       -4.07300         1.47100         0.05600
| 30>    C       -4.10600        -2.75600        -0.02600
| 31>    C       -4.99500        -2.75700        -1.11100
| 32>    C       -6.13200        -3.54200        -1.07600
| 33>    C       -7.65100        -5.11300         0.04000
| 34>    C       -4.32400         0.14100         0.03700
| 35>    C       -3.02500        -0.52000        -0.04800
| 36>    C       -4.42200        -3.56600         1.07500
| 37>    N       -6.40700        -4.31300         0.00100
| 38>    C       -2.86700        -1.92200        -0.04000
| 39>    C       -1.65000        -2.62400        -0.02700
| 40>    C        3.56800        -6.14200        -1.04000
| 41>    C       -1.47600        -4.04900        -0.03400
| 42>    C        2.80300        -4.09900        -0.00800
| 43>    C        3.65700        -4.38400         1.06900
| 44>    C        4.42700        -5.53000         1.05900
| 45>    C        5.24500        -7.58800         0.01400
| 46>    C       -0.13400        -4.31500        -0.02200
| 47>    C        0.56800        -3.06400        -0.02700
| 48>    C        2.77500        -5.01200        -1.07400
| 49>    N        4.37600        -6.39100         0.01700
| 50>    C        1.95900        -2.86900        -0.00900
| 51>    C        2.62100        -1.62200         0.00900
| 52>    C        5.54300         4.33900        -1.13000
| 53>    C        4.07000        -1.47900        -0.09400
| 54>    C        4.10400         2.75100        -0.02100
| 55>    C        5.02700         2.72900         1.03600
| 56>    C        6.16600         3.50900         0.97800
| 57>    C        7.61900         5.15300        -0.11500
| 58>    C        4.32100        -0.14800        -0.09200
| 59>    C        3.02500         0.51400         0.01500
| 60>    C        4.38700         3.58200        -1.11500
| 61>    C        2.86600         1.91600         0.01300
| 62>    N        6.41300         4.29600        -0.09500
| 63>    H       -2.66000         7.49100        -0.24100
| 64>    H        2.27400         4.76600         0.08100
| 65>    H       -4.67500         3.06200         0.42500
| 66>    H       -6.01800         5.15800         0.46400
| 67>    H       -5.63000         7.74000        -0.89600
| 68>    H       -6.04400         7.45100         0.82000
| 69>    H       -4.62200         8.44700         0.40100
| 70>    H       -0.33200         5.28200         0.06900
| 71>    H       -1.18100         5.49200        -0.31300
| 72>    H        0.18200         1.07200         0.00500
| 73>    H       -0.18300        -1.08000        -0.02100
| 74>    H       -5.86400        -4.96200         1.89500
| 75>    H       -4.79400         2.27200         0.13900
| 76>    H       -4.80000        -2.16000        -1.99400
| 77>    H       -6.84100        -3.58200        -1.89300
| 78>    H       -8.42800        -4.53600         0.54600
| 79>    H       -7.95600        -5.33700        -0.98100
| 80>    H       -7.45600        -6.03700         0.58400
| 81>    H       -5.28700        -0.34400         0.10000
| 82>    H       -3.78000        -3.60100         1.94700
| 83>    H        3.58700        -6.86800        -1.84300
| 84>    H       -2.27600        -4.77400        -0.05000
| 85>    H        3.71400        -3.72400         1.92600
| 86>    H        5.09200        -5.79500         1.87100
| 87>    H        6.20500        -7.32900        -0.43900
| 88>    H        5.39300        -7.91700         1.04200
| 89>    H        4.75900        -8.37300        -0.56400
| 90>    H        0.32900        -5.29000        -0.00800
| 91>    H        2.14600        -4.84200        -1.94000
| 92>    H        5.80800         4.98600        -1.95600
| 93>    H        4.78800        -2.28100        -0.18500
| 94>    H        4.86000         2.11400         1.91200
| 95>    H        6.90100         3.53100         1.77200
| 96>    H        7.38300         6.10900         0.35600
| 97>    H        8.41400         4.65200         0.43500
| 98>    H        7.92100         5.31000        -1.15000
| 99>    H        5.28300         0.33600        -0.17900
|100>    H        3.72000         3.63200        -1.96700
|101> *
|102>
|103>                          ****END OF INPUT****

CARTESIAN COORDINATES (ANGSTROEM)
---------------------------------
  C     -3.049000    6.489000   -0.108000
  C      1.474000    4.041000    0.057000
  C     -2.802000    4.093000    0.049000
  C     -4.185000    4.017000    0.276000
  C     -4.948000    5.167000    0.301000
  C     -5.229000    7.591000    0.109000
  C      0.132000    4.307000    0.061000
  C     -0.569000    3.056000    0.047000
  C      1.649000    2.618000    0.023000
  C     -2.245000    5.366000   -0.147000
  N     -4.378000    6.380000    0.114000
  N      0.388000    2.067000    0.025000
  N     -2.010000    0.395000   -0.075000
  N     -0.388000   -2.074000   -0.027000
  N      2.010000   -0.401000    0.065000
  C     -1.960000    2.861000    0.024000
  C     -2.623000    1.615000   -0.018000
  C     -5.573000   -4.329000    1.066000
  C     -4.073000    1.471000    0.056000
  C     -4.106000   -2.756000   -0.026000
  C     -4.995000   -2.757000   -1.111000
  C     -6.132000   -3.542000   -1.076000
  C     -7.651000   -5.113000    0.040000
  C     -4.324000    0.141000    0.037000
  C     -3.025000   -0.520000   -0.048000
  C     -4.422000   -3.566000    1.075000
  N     -6.407000   -4.313000    0.001000
  C     -2.867000   -1.922000   -0.040000
  C     -1.650000   -2.624000   -0.027000
  C      3.568000   -6.142000   -1.040000
  C     -1.476000   -4.049000   -0.034000
  C      2.803000   -4.099000   -0.008000
  C      3.657000   -4.384000    1.069000
  C      4.427000   -5.530000    1.059000
  C      5.245000   -7.588000    0.014000
  C     -0.134000   -4.315000   -0.022000
  C      0.568000   -3.064000   -0.027000
  C      2.775000   -5.012000   -1.074000
  N      4.376000   -6.391000    0.017000
  C      1.959000   -2.869000   -0.009000
  C      2.621000   -1.622000    0.009000
  C      5.543000    4.339000   -1.130000
  C      4.070000   -1.479000   -0.094000
  C      4.104000    2.751000   -0.021000
  C      5.027000    2.729000    1.036000
  C      6.166000    3.509000    0.978000
  C      7.619000    5.153000   -0.115000
  C      4.321000   -0.148000   -0.092000
  C      3.025000    0.514000    0.015000
  C      4.387000    3.582000   -1.115000
  C      2.866000    1.916000    0.013000
  N      6.413000    4.296000   -0.095000
  H     -2.660000    7.491000   -0.241000
  H      2.274000    4.766000    0.081000
  H     -4.675000    3.062000    0.425000
  H     -6.018000    5.158000    0.464000
  H     -5.630000    7.740000   -0.896000
  H     -6.044000    7.451000    0.820000
  H     -4.622000    8.447000    0.401000
  H     -0.332000    5.282000    0.069000
  H     -1.181000    5.492000   -0.313000
  H      0.182000    1.072000    0.005000
  H     -0.183000   -1.080000   -0.021000
  H     -5.864000   -4.962000    1.895000
  H     -4.794000    2.272000    0.139000
  H     -4.800000   -2.160000   -1.994000
  H     -6.841000   -3.582000   -1.893000
  H     -8.428000   -4.536000    0.546000
  H     -7.956000   -5.337000   -0.981000
  H     -7.456000   -6.037000    0.584000
  H     -5.287000   -0.344000    0.100000
  H     -3.780000   -3.601000    1.947000
  H      3.587000   -6.868000   -1.843000
  H     -2.276000   -4.774000   -0.050000
  H      3.714000   -3.724000    1.926000
  H      5.092000   -5.795000    1.871000
  H      6.205000   -7.329000   -0.439000
  H      5.393000   -7.917000    1.042000
  H      4.759000   -8.373000   -0.564000
  H      0.329000   -5.290000   -0.008000
  H      2.146000   -4.842000   -1.940000
  H      5.808000    4.986000   -1.956000
  H      4.788000   -2.281000   -0.185000
  H      4.860000    2.114000    1.912000
  H      6.901000    3.531000    1.772000
  H      7.383000    6.109000    0.356000
  H      8.414000    4.652000    0.435000
  H      7.921000    5.310000   -1.150000
  H      5.283000    0.336000   -0.179000
  H      3.720000    3.632000   -1.967000

 Total Charge           Charge          ....    0
 Multiplicity           Mult            ....    1
 Number of Electrons    NEL             ....  358
 Basis Dimension        Dim             ....  918

ORBITAL ENERGIES
----------------

  NO   OCC          E(Eh)            E(eV)
   0   2.0000     -15.679910      -426.6720
   1   2.0000     -15.633030      -425.3964
   2   2.0000     -15.632742      -425.3885
   3   2.0000     -15.588314      -424.1796
   4   2.0000     -15.524826      -422.4520
   5   2.0000     -15.515543      -422.1994
   6   2.0000     -15.454102      -420.5275
   7   2.0000     -15.439346      -420.1260
   8   2.0000     -11.329371      -308.2879
   9   2.0000     -11.328617      -308.2673
  10   2.0000     -11.328003      -308.2506
  11   2.0000     -11.299109      -307.4644
  12   2.0000     -11.298565      -307.4496
  13   2.0000     -11.292247      -307.2777
  14   2.0000     -11.291998      -307.2709
  15   2.0000     -11.287521      -307.1491
  16   2.0000     -11.285464      -307.0931
  17   2.0000     -11.282142      -307.0027
  18   2.0000     -11.269837      -306.6679
  19   2.0000     -11.263432      -306.4936
  20   2.0000     -11.262428      -306.4663
  21   2.0000     -11.251863      -306.1787
  22   2.0000     -11.248173      -306.0783
  23   2.0000     -11.237743      -305.7945
  24   2.0000     -11.236565      -305.7625
  25   2.0000     -11.230619      -305.6007
  26   2.0000     -11.230458      -305.5963
  27   2.0000     -11.230212      -305.5896
  28   2.0000     -11.229461      -305.5692
  29   2.0000     -11.210631      -305.0568
  30   2.0000     -11.209302      -305.0206
  31   2.0000     -11.194132      -304.6078
  32   2.0000     -11.191812      -304.5447
  33   2.0000     -11.191473      -304.5355
  34   2.0000     -11.188932      -304.4663
  35   2.0000     -11.188304      -304.4492
  36   2.0000     -11.187483      -304.4269
  37   2.0000     -11.174927      -304.0852
  38   2.0000     -11.174413      -304.0712
  39   2.0000     -11.171463      -303.9910
  40   2.0000     -11.171424      -303.9899
  41   2.0000     -11.169134      -303.9276
  42   2.0000     -11.167836      -303.8923
  43   2.0000     -11.162334      -303.7426
  44   2.0000     -11.160596      -303.6953
  45   2.0000     -11.157268      -303.6047
  46   2.0000     -11.156164      -303.5747
  47   2.0000     -11.151596      -303.4504
  48   2.0000     -11.147278      -303.3329
  49   2.0000     -11.135358      -303.0085
  50   2.0000     -11.129144      -302.8394
  51   2.0000     -11.117167      -302.5135
  52   2.0000      -1.360480       -37.0205
  53   2.0000      -1.320640       -35.9364
  54   2.0000      -1.320165       -35.9235
  55   2.0000      -1.280642       -34.8480
  56   2.0000      -1.225878       -33.3578
  57   2.0000      -1.210414       -32.9370
  58   2.0000      -1.173833       -31.9416
  59   2.0000      -1.150499       -31.3067
  60   2.0000      -1.143745       -31.1229
  61   2.0000      -1.110438       -30.2166
  62   2.0000      -1.108760       -30.1709
  63   2.0000      -1.082160       -29.4471
  64   2.0000      -1.077310       -29.3151
  65   2.0000      -1.045233       -28.4422
  66   2.0000      -1.044402       -28.4196
  67   2.0000      -1.041163       -28.3315
  68   2.0000      -1.014938       -27.6179
  69   2.0000      -1.014112       -27.5954
  70   2.0000      -1.009093       -27.4588
  71   2.0000      -0.993265       -27.0281
  72   2.0000      -0.985656       -26.8211
  73   2.0000      -0.981697       -26.7133
  74   2.0000      -0.973458       -26.4891
  75   2.0000      -0.962488       -26.1906
  76   2.0000      -0.955016       -25.9873
  77   2.0000      -0.946246       -25.7487
  78   2.0000      -0.938933       -25.5497
  79   2.0000      -0.916897       -24.9500
  80   2.0000      -0.910627       -24.7794
  81   2.0000      -0.897577       -24.4243
  82   2.0000      -0.876972       -23.8636
  83   2.0000      -0.871694       -23.7200
  84   2.0000      -0.871125       -23.7045
  85   2.0000      -0.860815       -23.4240
  86   2.0000      -0.845069       -22.9955
  87   2.0000      -0.836467       -22.7614
  88   2.0000      -0.828626       -22.5481
  89   2.0000      -0.796496       -21.6738
  90   2.0000      -0.789154       -21.4740
  91   2.0000      -0.769587       -20.9415
  92   2.0000      -0.753048       -20.4915
  93   2.0000      -0.733651       -19.9637
  94   2.0000      -0.727469       -19.7954
  95   2.0000      -0.725453       -19.7406
  96   2.0000      -0.719895       -19.5894
  97   2.0000      -0.717603       -19.5270
  98   2.0000      -0.713937       -19.4272
  99   2.0000      -0.699021       -19.0213
 100   2.0000      -0.698177       -18.9984
 101   2.0000      -0.694332       -18.8937
 102   2.0000      -0.685368       -18.6498
 103   2.0000      -0.684426       -18.6242
 104   2.0000      -0.678744       -18.4696
 105   2.0000      -0.674604       -18.3569
 106   2.0000      -0.672827       -18.3086
 107   2.0000      -0.660896       -17.9839
 108   2.0000      -0.658127       -17.9086
 109   2.0000      -0.652897       -17.7662
 110   2.0000      -0.651991       -17.7416
 111   2.0000      -0.646248       -17.5853
 112   2.0000      -0.645657       -17.5692
 113   2.0000      -0.637698       -17.3526
 114   2.0000      -0.635888       -17.3034
 115   2.0000      -0.628664       -17.1068
 116   2.0000      -0.623283       -16.9604
 117   2.0000      -0.620815       -16.8932
 118   2.0000      -0.612926       -16.6786
 119   2.0000      -0.612373       -16.6635
 120   2.0000      -0.611484       -16.6393
 121   2.0000      -0.611383       -16.6366
 122   2.0000      -0.601643       -16.3715
 123   2.0000      -0.588710       -16.0196
 124   2.0000      -0.581484       -15.8230
 125   2.0000      -0.580817       -15.8048
 126   2.0000      -0.580102       -15.7854
 127   2.0000      -0.571230       -15.5440
 128   2.0000      -0.567269       -15.4362
 129   2.0000      -0.560049       -15.2397
 130   2.0000      -0.554825       -15.0975
 131   2.0000      -0.547911       -14.9094
 132   2.0000      -0.542697       -14.7675
 133   2.0000      -0.540480       -14.7072
 134   2.0000      -0.538276       -14.6472
 135   2.0000      -0.536483       -14.5984
 136   2.0000      -0.531553       -14.4643
 137   2.0000      -0.518666       -14.1136
 138   2.0000      -0.516428       -14.0527
 139   2.0000      -0.514843       -14.0096
 140   2.0000      -0.512329       -13.9412
 141   2.0000      -0.510049       -13.8791
 142   2.0000      -0.507665       -13.8143
 143   2.0000      -0.505394       -13.7525
 144   2.0000      -0.502638       -13.6775
 145   2.0000      -0.495749       -13.4900
 146   2.0000      -0.488392       -13.2898
 147   2.0000      -0.481242       -13.0953
 148   2.0000      -0.477296       -12.9879
 149   2.0000      -0.467816       -12.7299
 150   2.0000      -0.466360       -12.6903
 151   2.0000      -0.456746       -12.4287
 152   2.0000      -0.451833       -12.2950
 153   2.0000      -0.444880       -12.1058
 154   2.0000      -0.438182       -11.9235
 155   2.0000      -0.427538       -11.6339
 156   2.0000      -0.409560       -11.1447
 157   2.0000      -0.395338       -10.7577
 158   2.0000      -0.390235       -10.6188
 159   2.0000      -0.387712       -10.5502
 160   2.0000      -0.378679       -10.3044
 161   2.0000      -0.373333       -10.1589
 162   2.0000      -0.364030        -9.9058
 163   2.0000      -0.356784        -9.7086
 164   2.0000      -0.355709        -9.6793
 165   2.0000      -0.342156        -9.3105
 166   2.0000      -0.337617        -9.1870
 167   2.0000      -0.324432        -8.8282
 168   2.0000      -0.321412        -8.7461
 169   2.0000      -0.305051        -8.3008
 170   2.0000      -0.299466        -8.1489
 171   2.0000      -0.285705        -7.7744
 172   2.0000      -0.278582        -7.5806
 173   2.0000      -0.263869        -7.1802
 174   2.0000      -0.241749        -6.5783
 175   2.0000      -0.189951        -5.1688
 176   2.0000      -0.181173        -4.9300
 177   2.0000      -0.079663        -2.1677
 178   2.0000      -0.059760        -1.6261
 179   0.0000       0.028381         0.7723
 180   0.0000       0.065340         1.7780
 181   0.0000       0.090164         2.4535
 182   0.0000       0.106186         2.8895
 183   0.0000       0.116017         3.1570

MULLIKEN ATOMIC CHARGES
-----------------------
   0 C :    0.220796
   1 N :   -0.454854
   2 C :   -0.071920
   3 N :   -0.341469
   4 C :   -0.078905
   5 N :   -0.568473
   6 C :   -0.099805
   7 N :   -0.341002
   8 C :    0.213473
   9 N :   -0.562149
  10 C :    0.119147
  11 N :   -0.438720
  12 C :   -0.053775
  13 N :   -0.429330
  14 C :    0.219007
  15 N :   -0.440651
  16 C :    0.231881
  17 C :   -0.116708
  18 C :   -0.180753
  19 C :    0.214157
  20 C :    0.213222
  21 C :   -0.052876
  22 C :   -0.091226
  23 C :   -0.039533
  24 C :    0.192978
  25 C :    0.114760
  26 C :   -0.089224
  27 C :    0.217343
  28 C :   -0.061934
  29 C :   -0.182369
  30 C :    0.245997
  31 C :    0.229929
  32 C :   -0.061762
  33 C :   -0.059989
  34 C :   -0.051687
  35 C :    0.229200
  36 C :    0.108185
  37 C :   -0.064329
  38 C :    0.230581
  39 C :   -0.057216
  40 C :   -0.181633
  41 C :    0.226523
  42 C :    0.197669
  43 C :   -0.072369
  44 C :   -0.088958
  45 C :   -0.061639
  46 C :    0.212477
  47 C :    0.115184
  48 C :   -0.066470
  49 C :    0.238782
  50 C :   -0.046040
  51 C :   -0.192676
  52 H :    0.035198
  53 H :   -0.018200
  54 H :    0.047329
  55 H :    0.033388
  56 H :    0.049463
  57 H :    0.047703
  58 H :    0.046564
  59 H :   -0.014293
  60 H :    0.042877
  61 H :    0.171210
  62 H :    0.175397
  63 H :    0.054805
  64 H :   -0.038224
  65 H :    0.046801
  66 H :    0.055155
  67 H :    0.062035
  68 H :    0.056951
  69 H :    0.056037
  70 H :   -0.030609
  71 H :    0.044297
  72 H :    0.071482
  73 H :   -0.007927
  74 H :    0.060541
  75 H :    0.070980
  76 H :    0.075090
  77 H :    0.068130
  78 H :    0.067484
  79 H :   -0.016881
  80 H :    0.061563
  81 H :    0.054827
  82 H :   -0.024742
  83 H :    0.042396
  84 H :    0.054718
  85 H :    0.061331
  86 H :    0.055844
  87 H :    0.057537
  88 H :   -0.014359
  89 H :    0.047251
Sum of atomic charges:    0.0000000

LOEWDIN ATOMIC CHARGES
----------------------
   0 C :   -0.017194
   1 N :    0.122094
   2 C :   -0.100335
   3 N :    0.182410
   4 C :   -0.011143
   5 N :   -0.134631
   6 C :   -0.014857
   7 N :    0.175003
   8 C :   -0.022746
   9 N :   -0.140589
  10 C :    0.023073
  11 N :    0.141200
  12 C :   -0.103190
  13 N :    0.166522
  14 C :   -0.015964
  15 N :    0.139569
  16 C :   -0.061272
  17 C :   -0.033147
  18 C :   -0.112907
  19 C :   -0.073821
  20 C :    0.004188
  21 C :   -0.099794
  22 C :    0.036221
  23 C :   -0.014636
  24 C :   -0.013510
  25 C :    0.029640
  26 C :   -0.108116
  27 C :   -0.116985
  28 C :   -0.028016
  29 C :   -0.099962
  30 C :   -0.029293
  31 C :    0.024169
  32 C :   -0.094679
  33 C :    0.082484
  34 C :   -0.015414
  35 C :    0.023872
  36 C :    0.035304
  37 C :   -0.094001
  38 C :   -0.053091
  39 C :   -0.017243
  40 C :   -0.108848
  41 C :   -0.090333
  42 C :   -0.009925
  43 C :   -0.099048
  44 C :    0.034909
  45 C :   -0.028093
  46 C :    0.002937
  47 C :    0.029684
  48 C :   -0.094337
  49 C :   -0.069294
  50 C :   -0.018354
  51 C :   -0.108122
  52 H :    0.022397
  53 H :    0.002463
  54 H :   -0.012585
  55 H :    0.021877
  56 H :    0.021939
  57 H :    0.026444
  58 H :    0.026535
  59 H :    0.004127
  60 H :    0.003214
  61 H :    0.060221
  62 H :    0.061848
  63 H :    0.030517
  64 H :   -0.002701
  65 H :    0.045775
  66 H :    0.029010
  67 H :    0.028023
  68 H :    0.031496
  69 H :    0.030138
  70 H :   -0.004967
  71 H :    0.043251
  72 H :    0.037774
  73 H :    0.007176
  74 H :    0.050714
  75 H :    0.037525
  76 H :    0.034896
  77 H :    0.036249
  78 H :    0.035955
  79 H :    0.002833
  80 H :    0.050885
  81 H :    0.029282
  82 H :   -0.002679
  83 H :    0.042695
  84 H :    0.030143
  85 H :    0.027617
  86 H :    0.030325
  87 H :    0.031556
  88 H :    0.002451
  89 H :    0.045193

  Mayer bond orders larger than 0.100000
B(  0-C ,  1-N ) :   1.1026 B(  0-C , 17-C ) :   1.7133 B(  0-C , 52-H ) :   0.9620
B(  1-N ,  8-C ) :   1.0898 B(  1-N , 10-C ) :   0.9771 B(  2-C , 12-C ) :   1.4890
B(  2-C , 16-C ) :   1.3725 B(  2-C , 53-H ) :   0.9720 B(  3-N , 14-C ) :   1.2227
B(  3-N , 16-C ) :   1.1793 B(  3-N , 61-H ) :   0.8985 B(  4-C ,  6-C ) :   1.2193
B(  4-C , 17-C ) :   1.2212 B(  4-C , 18-C ) :   1.4766 B(  5-N , 19-C ) :   1.4609
B(  5-N , 27-C ) :   1.3699 B(  6-C ,  8-C ) :   1.7279 B(  6-C , 54-H ) :   0.8618
B(  7-N , 30-C ) :   1.1958 B(  7-N , 38-C ) :   1.1890 B(  7-N , 62-H ) :   0.8968
B(  8-C , 55-H ) :   0.9614 B(  9-N , 41-C ) :   1.3953 B(  9-N , 49-C ) :   1.4241
B( 10-C , 56-H ) :   0.9777 B( 10-C , 57-H ) :   0.9823 B( 10-C , 58-H ) :   0.9840
B( 11-N , 20-C ) :   1.1303 B( 11-N , 24-C ) :   1.1057 B( 11-N , 25-C ) :   0.9607
B( 12-C , 14-C ) :   1.3577 B( 12-C , 59-H ) :   0.9283 B( 13-N , 31-C ) :   1.1612
B( 13-N , 35-C ) :   1.1614 B( 13-N , 36-C ) :   0.9412 B( 14-C , 18-C ) :   1.1189
B( 15-N , 42-C ) :   1.1085 B( 15-N , 46-C ) :   1.1258 B( 15-N , 47-C ) :   0.9607
B( 16-C , 51-C ) :   1.1683 B( 17-C , 60-H ) :   0.8925 B( 18-C , 19-C ) :   1.1164
B( 19-C , 21-C ) :   1.2549 B( 20-C , 28-C ) :   1.6299 B( 20-C , 63-H ) :   0.9703
B( 21-C , 26-C ) :   1.5758 B( 21-C , 64-H ) :   0.8986 B( 22-C , 23-C ) :   1.2883
B( 22-C , 28-C ) :   1.2626 B( 22-C , 29-C ) :   1.2282 B( 23-C , 24-C ) :   1.6215
B( 23-C , 65-H ) :   0.9703 B( 24-C , 66-H ) :   0.9696 B( 25-C , 67-H ) :   0.9761
B( 25-C , 68-H ) :   0.9828 B( 25-C , 69-H ) :   0.9824 B( 26-C , 27-C ) :   1.2658
B( 26-C , 70-H ) :   0.9667 B( 27-C , 29-C ) :   1.2044 B( 28-C , 71-H ) :   0.9720
B( 29-C , 30-C ) :   1.2469 B( 30-C , 32-C ) :   1.2791 B( 31-C , 39-C ) :   1.5872
B( 31-C , 72-H ) :   0.9681 B( 32-C , 37-C ) :   1.5794 B( 32-C , 73-H ) :   0.9787
B( 33-C , 34-C ) :   1.3066 B( 33-C , 39-C ) :   1.3049 B( 33-C , 40-C ) :   1.1759
B( 34-C , 35-C ) :   1.5852 B( 34-C , 74-H ) :   0.9696 B( 35-C , 75-H ) :   0.9681
B( 36-C , 76-H ) :   0.9768 B( 36-C , 77-H ) :   0.9816 B( 36-C , 78-H ) :   0.9823
B( 37-C , 38-C ) :   1.2855 B( 37-C , 79-H ) :   0.9764 B( 38-C , 40-C ) :   1.2337
B( 39-C , 80-H ) :   0.9705 B( 40-C , 41-C ) :   1.2509 B( 41-C , 43-C ) :   1.1833
B( 42-C , 50-C ) :   1.6316 B( 42-C , 81-H ) :   0.9696 B( 43-C , 48-C ) :   1.6698
B( 43-C , 82-H ) :   0.9721 B( 44-C , 45-C ) :   1.2644 B( 44-C , 50-C ) :   1.2738
B( 44-C , 51-C ) :   1.2581 B( 45-C , 46-C ) :   1.6332 B( 45-C , 83-H ) :   0.9718
B( 46-C , 84-H ) :   0.9699 B( 47-C , 85-H ) :   0.9762 B( 47-C , 86-H ) :   0.9829
B( 47-C , 87-H ) :   0.9824 B( 48-C , 49-C ) :   1.1867 B( 48-C , 88-H ) :   0.9748
B( 49-C , 51-C ) :   1.2465 B( 50-C , 89-H ) :   0.9708 B( 54-H , 64-H ) :   0.1212

MP2 TOTAL ENERGY:    -2130.767659069 Eh
FINAL SINGLE POINT ENERGY     -2130.767659069084

DIPOLE MOMENT
-------------
                                X             Y             Z
Electronic contribution:      2.96788      -4.23169      -0.09585
Nuclear contribution   :     -0.04291       0.15850       0.11199
                        -----------------------------------------
Total Dipole Moment    :      2.92498      -4.07319       0.01615
                        -----------------------------------------
Magnitude (a.u.)       :      5.01464
Magnitude (Debye)      :     12.74620

Rotational constants in cm-1:     0.001503     0.001478     0.000760
Rotational constants in MHz :    45.067387    44.298712    22.782932

                             ****ORCA TERMINATED NORMALLY****
TOTAL RUN TIME: 0 days 1 hours 9 minutes 48 seconds 338 msec
