                         Program Version 5.0.4 -  RELEASE  -
|  1> ! PAL2
|  2> ! mp2 cc-pvdz TightSCF  NoKeepInts
|  3>
|  4> %scf
|  5>   MaxCore 2000
|  6> end
|  7> %mp2
|  8>   MaxCore 2000
|  9> end
| 10> * xyz 0 1
| 11>    C       -4.80500         5.29700        -0.55300
| 12>    C        1.47400         4.04100         0.05700
| 13>    C       -2.80200         4.09300         0.04900
| 14>    C       -2.36300         5.25300         0.70600
| 15>    C       -3.15300         6.38500         0.71500
| 16>    C       -5.19200         7.61600         0.14900
| 17>    C        0.13200         4.30700         0.06100
| 18>    C       -0.56900         3.05600         0.04700
| 19>    C        1.64900         2.61800         0.02300
| 20>    C       -4.05300         4.13900        -0.58400
| 21>    N       -4.35300         6.39800         0.08900
| 22>    N        0.38800         2.06700         0.02500
| 23>    N       -2.01000         0.39500        -0.07500
| 24>    N       -0.38800        -2.07400        -0.02700
| 25>    N        2.01000        -0.40100         0.06500
| 26>    C       -1.96000         2.86100         0.02400
| 27>    C       -2.62300         1.61500        -0.01800
| 28>    C       -5.57300        -4.32900         1.06600
| 29>    C       -4.07300         1.47100         0.05600
| 30>    C       -4.10600        -2.75600        -0.02600
| 31>    C       -4.99500        -2.75700        -1.11100
| 32>    C       -6.13200        -3.54200        -1.07600
| 33>    C       -7.65100        -5.11300         0.04000
| 34>    C       -4.32400         0.14100         0.03700
| 35>    C       -3.02500        -0.52000        -0.04800
| 36>    C       -4.42200        -3.56600         1.07500
| 37>    N       -6.40700        -4.31300         0.00100
| 38>    C       -2.86700        -1.92200        -0.04000
| 39>    C       -1.65000        -2.62400        -0.02700
| 40>    C        3.56800        -6.14200        -1.04000
| 41>    C       -1.47600        -4.04900        -0.03400
| 42>    C        2.80300        -4.09900        -0.00800
| 43>    C        3.65700        -4.38400         1.06900
| 44>    C        4.42700        -5.53000         1.05900
| 45>    C        5.24500        -7.58800         0.01400
| 46>    C       -0.13400        -4.31500        -0.02200
| 47>    C        0.56800        -3.06400        -0.02700
| 48>    C        2.77500        -5.01200        -1.07400
| 49>    N        4.37600        -6.39100         0.01700
| 50>    C        1.95900        -2.86900        -0.00900
| 51>    C        2.62100        -1.62200         0.00900
| 52>    C        5.54300         4.33900        -1.13000
| 53>    C        4.07000        -1.47900        -0.09400
| 54>    C        4.10400         2.75100        -0.02100
| 55>    C        5.02700         2.72900         1.03600
| 56>    C        6.16600         3.50900         0.97800
| 57>    C        7.61900         5.15300        -0.11500
| 58>    C        4.32100        -0.14800        -0.09200
| 59>    C        3.02500         0.51400         0.01500
| 60>    C        4.38700         3.58200        -1.11500
| 61>    C        2.86600         1.91600         0.01300
| 62>    N        6.41300         4.29600        -0.09500
| 63>    H       -5.77000         5.38200        -1.03800
| 64>    H        2.27400         4.76600         0.08100
| 65>    H       -1.41100         5.27700         1.22200
| 66>    H       -2.86100         7.30000         1.21600
| 67>    H       -5.78700         7.59300         1.06500
| 68>    H       -4.54200         8.49100         0.14700
| 69>    H       -5.84600         7.63400        -0.72200
| 70>    H       -0.33200         5.28200         0.06900
| 71>    H       -4.44100         3.28000        -1.12100
| 72>    H        0.18200         1.07200         0.00500
| 73>    H       -0.18300        -1.08000        -0.02100
| 74>    H       -5.86400        -4.96200         1.89500
| 75>    H       -4.79400         2.27200         0.13900
| 76>    H       -4.80000        -2.16000        -1.99400
| 77>    H       -6.84100        -3.58200        -1.89300
| 78>    H       -8.42800        -4.53600         0.54600
| 79>    H       -7.95600        -5.33700        -0.98100
| 80>    H       -7.45600        -6.03700         0.58400
| 81>    H       -5.28700        -0.34400         0.10000
| 82>    H       -3.78000        -3.60100         1.94700
| 83>    H        3.58700        -6.86800        -1.84300
| 84>    H       -2.27600        -4.77400        -0.05000
| 85>    H        3.71400        -3.72400         1.92600
| 86>    H        5.09200        -5.79500         1.87100
| 87>    H        6.20500        -7.32900        -0.43900
| 88>    H        5.39300        -7.91700         1.04200
| 89>    H        4.75900        -8.37300        -0.56400
| 90>    H        0.32900        -5.29000        -0.00800
| 91>    H        2.14600        -4.84200        -1.94000
| 92>    H        5.80800         4.98600        -1.95600
| 93>    H        4.78800        -2.28100        -0.18500
| 94>    H        4.86000         2.11400         1.91200
| 95>    H        6.90100         3.53100         1.77200
| 96>    H        7.38300         6.10900         0.35600
| 97>    H        8.41400         4.65200         0.43500
| 98>    H        7.92100         5.31000        -1.15000
| 99>    H        5.28300         0.33600        -0.17900
|100>    H        3.72000         3.63200        -1.96700
|101> *
|102>
|103>                          ****END OF INPUT****

CARTESIAN COORDINATES (ANGSTROEM)
---------------------------------
  C     -4.805000    5.297000   -0.553000
  C      1.474000    4.041000    0.057000
  C     -2.802000    4.093000    0.049000
  C     -2.363000    5.253000    0.706000
  C     -3.153000    6.385000    0.715000
  C     -5.192000    7.616000    0.149000
  C      0.132000    4.307000    0.061000
  C     -0.569000    3.056000    0.047000
  C      1.649000    2.618000    0.023000
  C     -4.053000    4.139000   -0.584000
  N     -4.353000    6.398000    0.089000
  N      0.388000    2.067000    0.025000
  N     -2.010000    0.395000   -0.075000
  N     -0.388000   -2.074000   -0.027000
  N      2.010000   -0.401000    0.065000
  C     -1.960000    2.861000    0.024000
  C     -2.623000    1.615000   -0.018000
  C     -5.573000   -4.329000    1.066000
  C     -4.073000    1.471000    0.056000
  C     -4.106000   -2.756000   -0.026000
  C     -4.995000   -2.757000   -1.111000
  C     -6.132000   -3.542000   -1.076000
  C     -7.651000   -5.113000    0.040000
  C     -4.324000    0.141000    0.037000
  C     -3.025000   -0.520000   -0.048000
  C     -4.422000   -3.566000    1.075000
  N     -6.407000   -4.313000    0.001000
  C     -2.867000   -1.922000   -0.040000
  C     -1.650000   -2.624000   -0.027000
  C      3.568000   -6.142000   -1.040000
  C     -1.476000   -4.049000   -0.034000
  C      2.803000   -4.099000   -0.008000
  C      3.657000   -4.384000    1.069000
  C      4.427000   -5.530000    1.059000
  C      5.245000   -7.588000    0.014000
  C     -0.134000   -4.315000   -0.022000
  C      0.568000   -3.064000   -0.027000
  C      2.775000   -5.012000   -1.074000
  N      4.376000   -6.391000    0.017000
  C      1.959000   -2.869000   -0.009000
  C      2.621000   -1.622000    0.009000
  C      5.543000    4.339000   -1.130000
  C      4.070000   -1.479000   -0.094000
  C      4.104000    2.751000   -0.021000
  C      5.027000    2.729000    1.036000
  C      6.166000    3.509000    0.978000
  C      7.619000    5.153000   -0.115000
  C      4.321000   -0.148000   -0.092000
  C      3.025000    0.514000    0.015000
  C      4.387000    3.582000   -1.115000
  C      2.866000    1.916000    0.013000
  N      6.413000    4.296000   -0.095000
  H     -5.770000    5.382000   -1.038000
  H      2.274000    4.766000    0.081000
  H     -1.411000    5.277000    1.222000
  H     -2.861000    7.300000    1.216000
  H     -5.787000    7.593000    1.065000
  H     -4.542000    8.491000    0.147000
  H     -5.846000    7.634000   -0.722000
  H     -0.332000    5.282000    0.069000
  H     -4.441000    3.280000   -1.121000
  H      0.182000    1.072000    0.005000
  H     -0.183000   -1.080000   -0.021000
  H     -5.864000   -4.962000    1.895000
  H     -4.794000    2.272000    0.139000
  H     -4.800000   -2.160000   -1.994000
  H     -6.841000   -3.582000   -1.893000
  H     -8.428000   -4.536000    0.546000
  H     -7.956000   -5.337000   -0.981000
  H     -7.456000   -6.037000    0.584000
  H     -5.287000   -0.344000    0.100000
  H     -3.780000   -3.601000    1.947000
  H      3.587000   -6.868000   -1.843000
  H     -2.276000   -4.774000   -0.050000
  H      3.714000   -3.724000    1.926000
  H      5.092000   -5.795000    1.871000
  H      6.205000   -7.329000   -0.439000
  H      5.393000   -7.917000    1.042000
  H      4.759000   -8.373000   -0.564000
  H      0.329000   -5.290000   -0.008000
  H      2.146000   -4.842000   -1.940000
  H      5.808000    4.986000   -1.956000
  H      4.788000   -2.281000   -0.185000
  H      4.860000    2.114000    1.912000
  H      6.901000    3.531000    1.772000
  H      7.383000    6.109000    0.356000
  H      8.414000    4.652000    0.435000
  H      7.921000    5.310000   -1.150000
  H      5.283000    0.336000   -0.179000
  H      3.720000    3.632000   -1.967000

 Total Charge           Charge          ....    0
 Multiplicity           Mult            ....    1
 Number of Electrons    NEL             ....  358
 Basis Dimension        Dim             ....  918

ORBITAL ENERGIES
----------------

  NO   OCC          E(Eh)            E(eV)
   0   2.0000     -15.672336      -426.4659
   1   2.0000     -15.637450      -425.5166
   2   2.0000     -15.628718      -425.2790
   3   2.0000     -15.590633      -424.2427
   4   2.0000     -15.525132      -422.4603
   5   2.0000     -15.515866      -422.2082
   6   2.0000     -15.451687      -420.4618
   7   2.0000     -15.442768      -420.2191
   8   2.0000     -11.323687      -308.1332
   9   2.0000     -11.323328      -308.1234
  10   2.0000     -11.321592      -308.0762
  11   2.0000     -11.301490      -307.5292
  12   2.0000     -11.296363      -307.3897
  13   2.0000     -11.295499      -307.3661
  14   2.0000     -11.290121      -307.2198
  15   2.0000     -11.288122      -307.1654
  16   2.0000     -11.284215      -307.0591
  17   2.0000     -11.275073      -306.8103
  18   2.0000     -11.273186      -306.7590
  19   2.0000     -11.258175      -306.3505
  20   2.0000     -11.257232      -306.3248
  21   2.0000     -11.256001      -306.2914
  22   2.0000     -11.254956      -306.2629
  23   2.0000     -11.241101      -305.8859
  24   2.0000     -11.233802      -305.6873
  25   2.0000     -11.233536      -305.6801
  26   2.0000     -11.233220      -305.6715
  27   2.0000     -11.227392      -305.5129
  28   2.0000     -11.227086      -305.5045
  29   2.0000     -11.210572      -305.0552
  30   2.0000     -11.209123      -305.0158
  31   2.0000     -11.200334      -304.7766
  32   2.0000     -11.193548      -304.5919
  33   2.0000     -11.193068      -304.5789
  34   2.0000     -11.189558      -304.4834
  35   2.0000     -11.188904      -304.4656
  36   2.0000     -11.188306      -304.4493
  37   2.0000     -11.184332      -304.3411
  38   2.0000     -11.183303      -304.3131
  39   2.0000     -11.174556      -304.0751
  40   2.0000     -11.172971      -304.0320
  41   2.0000     -11.168559      -303.9120
  42   2.0000     -11.168484      -303.9099
  43   2.0000     -11.161902      -303.7308
  44   2.0000     -11.160444      -303.6911
  45   2.0000     -11.158496      -303.6381
  46   2.0000     -11.157640      -303.6148
  47   2.0000     -11.152670      -303.4796
  48   2.0000     -11.147397      -303.3361
  49   2.0000     -11.140131      -303.1384
  50   2.0000     -11.133916      -302.9693
  51   2.0000     -11.125722      -302.7463
  52   2.0000      -1.354039       -36.8453
  53   2.0000      -1.324234       -36.0342
  54   2.0000      -1.316905       -35.8348
  55   2.0000      -1.284775       -34.9605
  56   2.0000      -1.225809       -33.3560
  57   2.0000      -1.210228       -32.9320
  58   2.0000      -1.170368       -31.8473
  59   2.0000      -1.153233       -31.3811
  60   2.0000      -1.138307       -30.9749
  61   2.0000      -1.112735       -30.2791
  62   2.0000      -1.106688       -30.1145
  63   2.0000      -1.081026       -29.4162
  64   2.0000      -1.076199       -29.2849
  65   2.0000      -1.048302       -28.5258
  66   2.0000      -1.041684       -28.3457
  67   2.0000      -1.037697       -28.2372
  68   2.0000      -1.015033       -27.6204
  69   2.0000      -1.013468       -27.5779
  70   2.0000      -1.009331       -27.4653
  71   2.0000      -0.993212       -27.0267
  72   2.0000      -0.986881       -26.8544
  73   2.0000      -0.979729       -26.6598
  74   2.0000      -0.972002       -26.4495
  75   2.0000      -0.960015       -26.1233
  76   2.0000      -0.952453       -25.9176
  77   2.0000      -0.946496       -25.7555
  78   2.0000      -0.935236       -25.4491
  79   2.0000      -0.919465       -25.0199
  80   2.0000      -0.905342       -24.6356
  81   2.0000      -0.893370       -24.3098
  82   2.0000      -0.875646       -23.8275
  83   2.0000      -0.872119       -23.7316
  84   2.0000      -0.867396       -23.6030
  85   2.0000      -0.855954       -23.2917
  86   2.0000      -0.839771       -22.8513
  87   2.0000      -0.837041       -22.7770
  88   2.0000      -0.823345       -22.4043
  89   2.0000      -0.798089       -21.7171
  90   2.0000      -0.791934       -21.5496
  91   2.0000      -0.749487       -20.3946
  92   2.0000      -0.740471       -20.1493
  93   2.0000      -0.733213       -19.9517
  94   2.0000      -0.724336       -19.7102
  95   2.0000      -0.720767       -19.6131
  96   2.0000      -0.715283       -19.4638
  97   2.0000      -0.709816       -19.3151
  98   2.0000      -0.705139       -19.1878
  99   2.0000      -0.696631       -18.9563
 100   2.0000      -0.696046       -18.9404
 101   2.0000      -0.683534       -18.5999
 102   2.0000      -0.679875       -18.5003
 103   2.0000      -0.679280       -18.4841
 104   2.0000      -0.675792       -18.3892
 105   2.0000      -0.671398       -18.2697
 106   2.0000      -0.668217       -18.1831
 107   2.0000      -0.661789       -18.0082
 108   2.0000      -0.655547       -17.8383
 109   2.0000      -0.653756       -17.7896
 110   2.0000      -0.649072       -17.6621
 111   2.0000      -0.642904       -17.4943
 112   2.0000      -0.641111       -17.4455
 113   2.0000      -0.640579       -17.4310
 114   2.0000      -0.636960       -17.3326
 115   2.0000      -0.625863       -17.0306
 116   2.0000      -0.624386       -16.9904
 117   2.0000      -0.616761       -16.7829
 118   2.0000      -0.615024       -16.7356
 119   2.0000      -0.613095       -16.6832
 120   2.0000      -0.609079       -16.5739
 121   2.0000      -0.606653       -16.5079
 122   2.0000      -0.599514       -16.3136
 123   2.0000      -0.586569       -15.9613
 124   2.0000      -0.583476       -15.8772
 125   2.0000      -0.580912       -15.8074
 126   2.0000      -0.578802       -15.7500
 127   2.0000      -0.577416       -15.7123
 128   2.0000      -0.566371       -15.4117
 129   2.0000      -0.558732       -15.2039
 130   2.0000      -0.551019       -14.9940
 131   2.0000      -0.547753       -14.9051
 132   2.0000      -0.543578       -14.7915
 133   2.0000      -0.540127       -14.6976
 134   2.0000      -0.539577       -14.6826
 135   2.0000      -0.534194       -14.5362
 136   2.0000      -0.526497       -14.3267
 137   2.0000      -0.522935       -14.2298
 138   2.0000      -0.518297       -14.1036
 139   2.0000      -0.513048       -13.9608
 140   2.0000      -0.512634       -13.9495
 141   2.0000      -0.510338       -13.8870
 142   2.0000      -0.510223       -13.8839
 143   2.0000      -0.503580       -13.7031
 144   2.0000      -0.500391       -13.6163
 145   2.0000      -0.496501       -13.5105
 146   2.0000      -0.494167       -13.4470
 147   2.0000      -0.483940       -13.1687
 148   2.0000      -0.479358       -13.0440
 149   2.0000      -0.467124       -12.7111
 150   2.0000      -0.465719       -12.6729
 151   2.0000      -0.457218       -12.4415
 152   2.0000      -0.449710       -12.2372
 153   2.0000      -0.446215       -12.1421
 154   2.0000      -0.442461       -12.0400
 155   2.0000      -0.435480       -11.8500
 156   2.0000      -0.429377       -11.6839
 157   2.0000      -0.422937       -11.5087
 158   2.0000      -0.404876       -11.0172
 159   2.0000      -0.386772       -10.5246
 160   2.0000      -0.382750       -10.4151
 161   2.0000      -0.378439       -10.2978
 162   2.0000      -0.371112       -10.0985
 163   2.0000      -0.359060        -9.7705
 164   2.0000      -0.353646        -9.6232
 165   2.0000      -0.339507        -9.2384
 166   2.0000      -0.337702        -9.1893
 167   2.0000      -0.327312        -8.9066
 168   2.0000      -0.325269        -8.8510
 169   2.0000      -0.304732        -8.2922
 170   2.0000      -0.299539        -8.1509
 171   2.0000      -0.285854        -7.7785
 172   2.0000      -0.282167        -7.6781
 173   2.0000      -0.261634        -7.1194
 174   2.0000      -0.243763        -6.6331
 175   2.0000      -0.189932        -5.1683
 176   2.0000      -0.180282        -4.9057
 177   2.0000      -0.075508        -2.0547
 178   2.0000      -0.058291        -1.5862
 179   0.0000       0.028456         0.7743
 180   0.0000       0.066365         1.8059
 181   0.0000       0.091517         2.4903
 182   0.0000       0.109305         2.9743
 183   0.0000       0.111195         3.0258

MULLIKEN ATOMIC CHARGES
-----------------------
   0 C :    0.207373
   1 N :   -0.455583
   2 C :   -0.066888
   3 N :   -0.336894
   4 C :   -0.054305
   5 N :   -0.561815
   6 C :   -0.119053
   7 N :   -0.340279
   8 C :    0.208059
   9 N :   -0.562671
  10 C :    0.118979
  11 N :   -0.437773
  12 C :   -0.080428
  13 N :   -0.431151
  14 C :    0.221654
  15 N :   -0.441519
  16 C :    0.230132
  17 C :   -0.116743
  18 C :   -0.163980
  19 C :    0.208484
  20 C :    0.214031
  21 C :   -0.092137
  22 C :   -0.088835
  23 C :   -0.041097
  24 C :    0.196618
  25 C :    0.114139
  26 C :   -0.077214
  27 C :    0.212467
  28 C :   -0.059974
  29 C :   -0.180925
  30 C :    0.244228
  31 C :    0.228173
  32 C :   -0.061591
  33 C :   -0.064010
  34 C :   -0.049729
  35 C :    0.223171
  36 C :    0.109217
  37 C :   -0.064660
  38 C :    0.233242
  39 C :   -0.059305
  40 C :   -0.181744
  41 C :    0.223744
  42 C :    0.197362
  43 C :   -0.072857
  44 C :   -0.091183
  45 C :   -0.060385
  46 C :    0.208992
  47 C :    0.115721
  48 C :   -0.068517
  49 C :    0.236504
  50 C :   -0.047373
  51 C :   -0.193652
  52 H :    0.040119
  53 H :   -0.016638
  54 H :    0.051274
  55 H :    0.039149
  56 H :    0.049548
  57 H :    0.048324
  58 H :    0.047313
  59 H :    0.001679
  60 H :    0.052296
  61 H :    0.171061
  62 H :    0.175369
  63 H :    0.056528
  64 H :   -0.004456
  65 H :    0.047073
  66 H :    0.056669
  67 H :    0.063389
  68 H :    0.057822
  69 H :    0.057348
  70 H :   -0.028256
  71 H :    0.046286
  72 H :    0.069020
  73 H :   -0.008705
  74 H :    0.058311
  75 H :    0.068258
  76 H :    0.072936
  77 H :    0.066432
  78 H :    0.065591
  79 H :   -0.015601
  80 H :    0.058901
  81 H :    0.053614
  82 H :   -0.025143
  83 H :    0.041044
  84 H :    0.053074
  85 H :    0.059826
  86 H :    0.055067
  87 H :    0.056681
  88 H :   -0.015522
  89 H :    0.046298
Sum of atomic charges:   -0.0000000

LOEWDIN ATOMIC CHARGES
----------------------
   0 C :   -0.023497
   1 N :    0.115863
   2 C :   -0.102142
   3 N :    0.183348
   4 C :   -0.008031
   5 N :   -0.130788
   6 C :   -0.042062
   7 N :    0.175711
   8 C :   -0.020904
   9 N :   -0.140343
  10 C :    0.024034
  11 N :    0.143690
  12 C :   -0.112450
  13 N :    0.162248
  14 C :   -0.031606
  15 N :    0.137373
  16 C :   -0.057384
  17 C :   -0.040656
  18 C :   -0.101270
  19 C :   -0.083818
  20 C :    0.005556
  21 C :   -0.117166
  22 C :    0.039535
  23 C :   -0.015283
  24 C :   -0.009612
  25 C :    0.030237
  26 C :   -0.108003
  27 C :   -0.114726
  28 C :   -0.025917
  29 C :   -0.099156
  30 C :   -0.033355
  31 C :    0.021611
  32 C :   -0.093849
  33 C :    0.075078
  34 C :   -0.015069
  35 C :    0.017485
  36 C :    0.034340
  37 C :   -0.095174
  38 C :   -0.048532
  39 C :   -0.019426
  40 C :   -0.108082
  41 C :   -0.093856
  42 C :   -0.010719
  43 C :   -0.100568
  44 C :    0.031016
  45 C :   -0.027888
  46 C :   -0.000732
  47 C :    0.029163
  48 C :   -0.097176
  49 C :   -0.072164
  50 C :   -0.019718
  51 C :   -0.109941
  52 H :    0.023686
  53 H :    0.003062
  54 H :    0.040482
  55 H :    0.023904
  56 H :    0.021803
  57 H :    0.026580
  58 H :    0.026986
  59 H :    0.010859
  60 H :    0.041860
  61 H :    0.060001
  62 H :    0.061787
  63 H :    0.031272
  64 H :    0.006506
  65 H :    0.045819
  66 H :    0.029780
  67 H :    0.028710
  68 H :    0.031899
  69 H :    0.030750
  70 H :   -0.003962
  71 H :    0.044189
  72 H :    0.036675
  73 H :    0.006781
  74 H :    0.049872
  75 H :    0.036132
  76 H :    0.033760
  77 H :    0.035447
  78 H :    0.035078
  79 H :    0.003437
  80 H :    0.049633
  81 H :    0.028767
  82 H :   -0.002846
  83 H :    0.042191
  84 H :    0.029321
  85 H :    0.026868
  86 H :    0.029942
  87 H :    0.031156
  88 H :    0.001893
  89 H :    0.044694

  Mayer bond orders larger than 0.100000
B(  0-C ,  1-N ) :   1.0881 B(  0-C , 17-C ) :   1.7063 B(  0-C , 52-H ) :   0.9668
B(  1-N ,  8-C ) :   1.0903 B(  1-N , 10-C ) :   0.9774 B(  2-C , 12-C ) :   1.5083
B(  2-C , 16-C ) :   1.3543 B(  2-C , 53-H ) :   0.9759 B(  3-N , 14-C ) :   1.2178
B(  3-N , 16-C ) :   1.1914 B(  3-N , 61-H ) :   0.8994 B(  4-C ,  6-C ) :   1.2123
B(  4-C , 17-C ) :   1.2128 B(  4-C , 18-C ) :   1.4286 B(  5-N , 19-C ) :   1.4514
B(  5-N , 27-C ) :   1.3806 B(  6-C ,  8-C ) :   1.7054 B(  6-C , 54-H ) :   0.9580
B(  7-N , 30-C ) :   1.1939 B(  7-N , 38-C ) :   1.1929 B(  7-N , 62-H ) :   0.8968
B(  8-C , 55-H ) :   0.9677 B(  9-N , 41-C ) :   1.3934 B(  9-N , 49-C ) :   1.4273
B( 10-C , 56-H ) :   0.9769 B( 10-C , 57-H ) :   0.9832 B( 10-C , 58-H ) :   0.9834
B( 11-N , 20-C ) :   1.1319 B( 11-N , 24-C ) :   1.1113 B( 11-N , 25-C ) :   0.9588
B( 12-C , 14-C ) :   1.3549 B( 12-C , 59-H ) :   0.9744 B( 13-N , 31-C ) :   1.1565
B( 13-N , 35-C ) :   1.1512 B( 13-N , 36-C ) :   0.9444 B( 14-C , 18-C ) :   1.1323
B( 15-N , 42-C ) :   1.1070 B( 15-N , 46-C ) :   1.1206 B( 15-N , 47-C ) :   0.9624
B( 16-C , 51-C ) :   1.1731 B( 17-C , 60-H ) :   0.9580 B( 18-C , 19-C ) :   1.1367
B( 19-C , 21-C ) :   1.2425 B( 20-C , 28-C ) :   1.6255 B( 20-C , 63-H ) :   0.9702
B( 21-C , 26-C ) :   1.6139 B( 21-C , 64-H ) :   0.9712 B( 22-C , 23-C ) :   1.2908
B( 22-C , 28-C ) :   1.2677 B( 22-C , 29-C ) :   1.2203 B( 23-C , 24-C ) :   1.6172
B( 23-C , 65-H ) :   0.9705 B( 24-C , 66-H ) :   0.9694 B( 25-C , 67-H ) :   0.9760
B( 25-C , 68-H ) :   0.9828 B( 25-C , 69-H ) :   0.9823 B( 26-C , 27-C ) :   1.2369
B( 26-C , 70-H ) :   0.9704 B( 27-C , 29-C ) :   1.2148 B( 28-C , 71-H ) :   0.9718
B( 29-C , 30-C ) :   1.2413 B( 30-C , 32-C ) :   1.2830 B( 31-C , 39-C ) :   1.5951
B( 31-C , 72-H ) :   0.9683 B( 32-C , 37-C ) :   1.5764 B( 32-C , 73-H ) :   0.9784
B( 33-C , 34-C ) :   1.3034 B( 33-C , 39-C ) :   1.2970 B( 33-C , 40-C ) :   1.1862
B( 34-C , 35-C ) :   1.5917 B( 34-C , 74-H ) :   0.9697 B( 35-C , 75-H ) :   0.9684
B( 36-C , 76-H ) :   0.9767 B( 36-C , 77-H ) :   0.9816 B( 36-C , 78-H ) :   0.9825
B( 37-C , 38-C ) :   1.2871 B( 37-C , 79-H ) :   0.9768 B( 38-C , 40-C ) :   1.2313
B( 39-C , 80-H ) :   0.9707 B( 40-C , 41-C ) :   1.2454 B( 41-C , 43-C ) :   1.1912
B( 42-C , 50-C ) :   1.6360 B( 42-C , 81-H ) :   0.9697 B( 43-C , 48-C ) :   1.6607
B( 43-C , 82-H ) :   0.9723 B( 44-C , 45-C ) :   1.2624 B( 44-C , 50-C ) :   1.2691
B( 44-C , 51-C ) :   1.2651 B( 45-C , 46-C ) :   1.6370 B( 45-C , 83-H ) :   0.9718
B( 46-C , 84-H ) :   0.9701 B( 47-C , 85-H ) :   0.9762 B( 47-C , 86-H ) :   0.9829
B( 47-C , 87-H ) :   0.9825 B( 48-C , 49-C ) :   1.1946 B( 48-C , 88-H ) :   0.9748
B( 49-C , 51-C ) :   1.2358 B( 50-C , 89-H ) :   0.9710

MP2 TOTAL ENERGY:    -2130.896684234 Eh
FINAL SINGLE POINT ENERGY     -2130.896684234227

DIPOLE MOMENT
-------------
                                X             Y             Z
Electronic contribution:      2.07975      -3.96830      -0.22517
Nuclear contribution   :      0.03423       0.21013       0.22549
                        -----------------------------------------
Total Dipole Moment    :      2.11397      -3.75818       0.00032
                        -----------------------------------------
Magnitude (a.u.)       :      4.31193
Magnitude (Debye)      :     10.96006

Rotational constants in cm-1:     0.001500     0.001478     0.000761
Rotational constants in MHz :    44.970492    44.306216    22.805961

                             ****ORCA TERMINATED NORMALLY****
TOTAL RUN TIME: 0 days 1 hours 24 minutes 13 seconds 535 msec
