                         Program Version 5.0.4 -  RELEASE  -
|  1> ! PAL2
|  2> ! mp2 cc-pvdz TightSCF  NoKeepInts
|  3>
|  4> %scf
|  5>   MaxCore 2000
|  6> end
|  7> %mp2
|  8>   MaxCore 2000
|  9> end
| 10> * xyz 0 1
| 11>    C       -4.41000         5.57600        -0.97100
| 12>    C        1.47400         4.04100         0.05700
| 13>    C       -2.80200         4.09300         0.04900
| 14>    C       -2.76700         4.96800         1.14600
| 15>    C       -3.54900         6.10600         1.15000
| 16>    C       -5.20600         7.60600         0.15300
| 17>    C        0.13200         4.30700         0.06100
| 18>    C       -0.56900         3.05600         0.04700
| 19>    C        1.64900         2.61800         0.02300
| 20>    C       -3.65100         4.42300        -1.01900
| 21>    N       -4.35200         6.39900         0.10100
| 22>    N        0.38800         2.06700         0.02500
| 23>    N       -2.01000         0.39500        -0.07500
| 24>    N       -0.38800        -2.07400        -0.02700
| 25>    N        2.01000        -0.40100         0.06500
| 26>    C       -1.96000         2.86100         0.02400
| 27>    C       -2.62300         1.61500        -0.01800
| 28>    C       -5.57300        -4.32900         1.06600
| 29>    C       -4.07300         1.47100         0.05600
| 30>    C       -4.10600        -2.75600        -0.02600
| 31>    C       -4.99500        -2.75700        -1.11100
| 32>    C       -6.13200        -3.54200        -1.07600
| 33>    C       -7.65100        -5.11300         0.04000
| 34>    C       -4.32400         0.14100         0.03700
| 35>    C       -3.02500        -0.52000        -0.04800
| 36>    C       -4.42200        -3.56600         1.07500
| 37>    N       -6.40700        -4.31300         0.00100
| 38>    C       -2.86700        -1.92200        -0.04000
| 39>    C       -1.65000        -2.62400        -0.02700
| 40>    C        3.56800        -6.14200        -1.04000
| 41>    C       -1.47600        -4.04900        -0.03400
| 42>    C        2.80300        -4.09900        -0.00800
| 43>    C        3.65700        -4.38400         1.06900
| 44>    C        4.42700        -5.53000         1.05900
| 45>    C        5.24500        -7.58800         0.01400
| 46>    C       -0.13400        -4.31500        -0.02200
| 47>    C        0.56800        -3.06400        -0.02700
| 48>    C        2.77500        -5.01200        -1.07400
| 49>    N        4.37600        -6.39100         0.01700
| 50>    C        1.95900        -2.86900        -0.00900
| 51>    C        2.62100        -1.62200         0.00900
| 52>    C        5.54300         4.33900        -1.13000
| 53>    C        4.07000        -1.47900        -0.09400
| 54>    C        4.10400         2.75100        -0.02100
| 55>    C        5.02700         2.72900         1.03600
| 56>    C        6.16600         3.50900         0.97800
| 57>    C        7.61900         5.15300        -0.11500
| 58>    C        4.32100        -0.14800        -0.09200
| 59>    C        3.02500         0.51400         0.01500
| 60>    C        4.38700         3.58200        -1.11500
| 61>    C        2.86600         1.91600         0.01300
| 62>    N        6.41300         4.29600        -0.09500
| 63>    H       -5.06800         5.87600        -1.77700
| 64>    H        2.27400         4.76600         0.08100
| 65>    H       -2.14000         4.76300         2.00400
| 66>    H       -3.56200         6.80500         1.97600
| 67>    H       -6.13900         7.36000         0.66400
| 68>    H       -4.67600         8.38800         0.69500
| 69>    H       -5.41300         7.93300        -0.86600
| 70>    H       -0.33200         5.28200         0.06900
| 71>    H       -3.71100         3.79500        -1.90100
| 72>    H        0.18200         1.07200         0.00500
| 73>    H       -0.18300        -1.08000        -0.02100
| 74>    H       -5.86400        -4.96200         1.89500
| 75>    H       -4.79400         2.27200         0.13900
| 76>    H       -4.80000        -2.16000        -1.99400
| 77>    H       -6.84100        -3.58200        -1.89300
| 78>    H       -8.42800        -4.53600         0.54600
| 79>    H       -7.95600        -5.33700        -0.98100
| 80>    H       -7.45600        -6.03700         0.58400
| 81>    H       -5.28700        -0.34400         0.10000
| 82>    H       -3.78000        -3.60100         1.94700
| 83>    H        3.58700        -6.86800        -1.84300
| 84>    H       -2.27600        -4.77400        -0.05000
| 85>    H        3.71400        -3.72400         1.92600
| 86>    H        5.09200        -5.79500         1.87100
| 87>    H        6.20500        -7.32900        -0.43900
| 88>    H        5.39300        -7.91700         1.04200
| 89>    H        4.75900        -8.37300        -0.56400
| 90>    H        0.32900        -5.29000        -0.00800
| 91>    H        2.14600        -4.84200        -1.94000
| 92>    H        5.80800         4.98600        -1.95600
| 93>    H        4.78800        -2.28100        -0.18500
| 94>    H        4.86000         2.11400         1.91200
| 95>    H        6.90100         3.53100         1.77200
| 96>    H        7.38300         6.10900         0.35600
| 97>    H        8.41400         4.65200         0.43500
| 98>    H        7.92100         5.31000        -1.15000
| 99>    H        5.28300         0.33600        -0.17900
|100>    H        3.72000         3.63200        -1.96700
|101> *
|102>
|103>                          ****END OF INPUT****

CARTESIAN COORDINATES (ANGSTROEM)
---------------------------------
  C     -4.410000    5.576000   -0.971000
  C      1.474000    4.041000    0.057000
  C     -2.802000    4.093000    0.049000
  C     -2.767000    4.968000    1.146000
  C     -3.549000    6.106000    1.150000
  C     -5.206000    7.606000    0.153000
  C      0.132000    4.307000    0.061000
  C     -0.569000    3.056000    0.047000
  C      1.649000    2.618000    0.023000
  C     -3.651000    4.423000   -1.019000
  N     -4.352000    6.399000    0.101000
  N      0.388000    2.067000    0.025000
  N     -2.010000    0.395000   -0.075000
  N     -0.388000   -2.074000   -0.027000
  N      2.010000   -0.401000    0.065000
  C     -1.960000    2.861000    0.024000
  C     -2.623000    1.615000   -0.018000
  C     -5.573000   -4.329000    1.066000
  C     -4.073000    1.471000    0.056000
  C     -4.106000   -2.756000   -0.026000
  C     -4.995000   -2.757000   -1.111000
  C     -6.132000   -3.542000   -1.076000
  C     -7.651000   -5.113000    0.040000
  C     -4.324000    0.141000    0.037000
  C     -3.025000   -0.520000   -0.048000
  C     -4.422000   -3.566000    1.075000
  N     -6.407000   -4.313000    0.001000
  C     -2.867000   -1.922000   -0.040000
  C     -1.650000   -2.624000   -0.027000
  C      3.568000   -6.142000   -1.040000
  C     -1.476000   -4.049000   -0.034000
  C      2.803000   -4.099000   -0.008000
  C      3.657000   -4.384000    1.069000
  C      4.427000   -5.530000    1.059000
  C      5.245000   -7.588000    0.014000
  C     -0.134000   -4.315000   -0.022000
  C      0.568000   -3.064000   -0.027000
  C      2.775000   -5.012000   -1.074000
  N      4.376000   -6.391000    0.017000
  C      1.959000   -2.869000   -0.009000
  C      2.621000   -1.622000    0.009000
  C      5.543000    4.339000   -1.130000
  C      4.070000   -1.479000   -0.094000
  C      4.104000    2.751000   -0.021000
  C      5.027000    2.729000    1.036000
  C      6.166000    3.509000    0.978000
  C      7.619000    5.153000   -0.115000
  C      4.321000   -0.148000   -0.092000
  C      3.025000    0.514000    0.015000
  C      4.387000    3.582000   -1.115000
  C      2.866000    1.916000    0.013000
  N      6.413000    4.296000   -0.095000
  H     -5.068000    5.876000   -1.777000
  H      2.274000    4.766000    0.081000
  H     -2.140000    4.763000    2.004000
  H     -3.562000    6.805000    1.976000
  H     -6.139000    7.360000    0.664000
  H     -4.676000    8.388000    0.695000
  H     -5.413000    7.933000   -0.866000
  H     -0.332000    5.282000    0.069000
  H     -3.711000    3.795000   -1.901000
  H      0.182000    1.072000    0.005000
  H     -0.183000   -1.080000   -0.021000
  H     -5.864000   -4.962000    1.895000
  H     -4.794000    2.272000    0.139000
  H     -4.800000   -2.160000   -1.994000
  H     -6.841000   -3.582000   -1.893000
  H     -8.428000   -4.536000    0.546000
  H     -7.956000   -5.337000   -0.981000
  H     -7.456000   -6.037000    0.584000
  H     -5.287000   -0.344000    0.100000
  H     -3.780000   -3.601000    1.947000
  H      3.587000   -6.868000   -1.843000
  H     -2.276000   -4.774000   -0.050000
  H      3.714000   -3.724000    1.926000
  H      5.092000   -5.795000    1.871000
  H      6.205000   -7.329000   -0.439000
  H      5.393000   -7.917000    1.042000
  H      4.759000   -8.373000   -0.564000
  H      0.329000   -5.290000   -0.008000
  H      2.146000   -4.842000   -1.940000
  H      5.808000    4.986000   -1.956000
  H      4.788000   -2.281000   -0.185000
  H      4.860000    2.114000    1.912000
  H      6.901000    3.531000    1.772000
  H      7.383000    6.109000    0.356000
  H      8.414000    4.652000    0.435000
  H      7.921000    5.310000   -1.150000
  H      5.283000    0.336000   -0.179000
  H      3.720000    3.632000   -1.967000

 Total Charge           Charge          ....    0
 Multiplicity           Mult            ....    1
 Number of Electrons    NEL             ....  358
 Basis Dimension        Dim             ....  918

ORBITAL ENERGIES
----------------

  NO   OCC          E(Eh)            E(eV)
   0   2.0000     -15.640035      -425.5870
   1   2.0000     -15.635392      -425.4607
   2   2.0000     -15.630056      -425.3154
   3   2.0000     -15.627963      -425.2585
   4   2.0000     -15.516897      -422.2362
   5   2.0000     -15.515738      -422.2047
   6   2.0000     -15.444865      -420.2761
   7   2.0000     -15.441342      -420.1803
   8   2.0000     -11.303001      -307.5703
   9   2.0000     -11.300309      -307.4971
  10   2.0000     -11.296986      -307.4066
  11   2.0000     -11.295443      -307.3646
  12   2.0000     -11.295272      -307.3600
  13   2.0000     -11.294642      -307.3428
  14   2.0000     -11.291871      -307.2674
  15   2.0000     -11.291071      -307.2457
  16   2.0000     -11.288340      -307.1713
  17   2.0000     -11.285430      -307.0922
  18   2.0000     -11.285317      -307.0891
  19   2.0000     -11.284396      -307.0640
  20   2.0000     -11.243322      -305.9463
  21   2.0000     -11.239765      -305.8496
  22   2.0000     -11.234886      -305.7168
  23   2.0000     -11.234847      -305.7157
  24   2.0000     -11.234199      -305.6981
  25   2.0000     -11.232212      -305.6440
  26   2.0000     -11.231359      -305.6208
  27   2.0000     -11.231082      -305.6133
  28   2.0000     -11.227721      -305.5218
  29   2.0000     -11.226867      -305.4986
  30   2.0000     -11.225825      -305.4702
  31   2.0000     -11.225727      -305.4676
  32   2.0000     -11.197745      -304.7061
  33   2.0000     -11.197438      -304.6978
  34   2.0000     -11.195781      -304.6527
  35   2.0000     -11.195487      -304.6447
  36   2.0000     -11.173390      -304.0434
  37   2.0000     -11.173365      -304.0427
  38   2.0000     -11.171396      -303.9892
  39   2.0000     -11.169512      -303.9379
  40   2.0000     -11.167510      -303.8834
  41   2.0000     -11.167347      -303.8790
  42   2.0000     -11.166476      -303.8553
  43   2.0000     -11.165330      -303.8241
  44   2.0000     -11.157544      -303.6122
  45   2.0000     -11.155255      -303.5499
  46   2.0000     -11.155038      -303.5440
  47   2.0000     -11.153285      -303.4963
  48   2.0000     -11.144950      -303.2695
  49   2.0000     -11.143398      -303.2273
  50   2.0000     -11.138520      -303.0945
  51   2.0000     -11.137005      -303.0533
  52   2.0000      -1.326347       -36.0917
  53   2.0000      -1.322499       -35.9870
  54   2.0000      -1.317870       -35.8611
  55   2.0000      -1.315836       -35.8057
  56   2.0000      -1.215670       -33.0801
  57   2.0000      -1.213236       -33.0138
  58   2.0000      -1.161884       -31.6165
  59   2.0000      -1.155069       -31.4310
  60   2.0000      -1.115249       -30.3475
  61   2.0000      -1.109930       -30.2027
  62   2.0000      -1.107663       -30.1410
  63   2.0000      -1.103525       -30.0285
  64   2.0000      -1.050082       -28.5742
  65   2.0000      -1.046778       -28.4843
  66   2.0000      -1.042400       -28.3651
  67   2.0000      -1.040371       -28.3099
  68   2.0000      -1.025905       -27.9163
  69   2.0000      -1.010316       -27.4921
  70   2.0000      -1.007695       -27.4208
  71   2.0000      -0.998830       -27.1795
  72   2.0000      -0.979567       -26.6554
  73   2.0000      -0.977136       -26.5892
  74   2.0000      -0.967187       -26.3185
  75   2.0000      -0.961997       -26.1773
  76   2.0000      -0.951784       -25.8994
  77   2.0000      -0.943706       -25.6796
  78   2.0000      -0.938037       -25.5253
  79   2.0000      -0.923289       -25.1240
  80   2.0000      -0.891825       -24.2678
  81   2.0000      -0.877157       -23.8687
  82   2.0000      -0.873825       -23.7780
  83   2.0000      -0.869597       -23.6629
  84   2.0000      -0.866633       -23.5823
  85   2.0000      -0.856506       -23.3067
  86   2.0000      -0.849244       -23.1091
  87   2.0000      -0.843264       -22.9464
  88   2.0000      -0.821899       -22.3650
  89   2.0000      -0.798033       -21.7156
  90   2.0000      -0.797711       -21.7068
  91   2.0000      -0.738854       -20.1052
  92   2.0000      -0.727994       -19.8097
  93   2.0000      -0.727027       -19.7834
  94   2.0000      -0.722392       -19.6573
  95   2.0000      -0.718218       -19.5437
  96   2.0000      -0.711731       -19.3672
  97   2.0000      -0.710700       -19.3391
  98   2.0000      -0.697702       -18.9854
  99   2.0000      -0.690954       -18.8018
 100   2.0000      -0.683151       -18.5895
 101   2.0000      -0.680781       -18.5250
 102   2.0000      -0.678216       -18.4552
 103   2.0000      -0.673921       -18.3383
 104   2.0000      -0.669490       -18.2178
 105   2.0000      -0.667727       -18.1698
 106   2.0000      -0.662043       -18.0151
 107   2.0000      -0.658976       -17.9316
 108   2.0000      -0.655982       -17.8502
 109   2.0000      -0.653227       -17.7752
 110   2.0000      -0.652880       -17.7658
 111   2.0000      -0.650801       -17.7092
 112   2.0000      -0.648980       -17.6596
 113   2.0000      -0.647296       -17.6138
 114   2.0000      -0.634046       -17.2533
 115   2.0000      -0.623164       -16.9572
 116   2.0000      -0.616865       -16.7858
 117   2.0000      -0.613924       -16.7057
 118   2.0000      -0.610252       -16.6058
 119   2.0000      -0.609295       -16.5798
 120   2.0000      -0.607988       -16.5442
 121   2.0000      -0.607197       -16.5227
 122   2.0000      -0.602701       -16.4003
 123   2.0000      -0.594735       -16.1836
 124   2.0000      -0.585528       -15.9330
 125   2.0000      -0.582487       -15.8503
 126   2.0000      -0.579223       -15.7615
 127   2.0000      -0.577642       -15.7184
 128   2.0000      -0.568549       -15.4710
 129   2.0000      -0.564246       -15.3539
 130   2.0000      -0.553350       -15.0574
 131   2.0000      -0.541614       -14.7381
 132   2.0000      -0.539200       -14.6724
 133   2.0000      -0.535528       -14.5725
 134   2.0000      -0.534507       -14.5447
 135   2.0000      -0.530527       -14.4364
 136   2.0000      -0.524526       -14.2731
 137   2.0000      -0.522796       -14.2260
 138   2.0000      -0.517227       -14.0745
 139   2.0000      -0.513162       -13.9639
 140   2.0000      -0.510685       -13.8964
 141   2.0000      -0.508293       -13.8314
 142   2.0000      -0.503041       -13.6884
 143   2.0000      -0.502299       -13.6682
 144   2.0000      -0.497892       -13.5483
 145   2.0000      -0.497172       -13.5287
 146   2.0000      -0.496198       -13.5022
 147   2.0000      -0.494716       -13.4619
 148   2.0000      -0.490826       -13.3560
 149   2.0000      -0.468071       -12.7368
 150   2.0000      -0.459691       -12.5088
 151   2.0000      -0.450892       -12.2694
 152   2.0000      -0.446595       -12.1525
 153   2.0000      -0.445446       -12.1212
 154   2.0000      -0.444831       -12.1045
 155   2.0000      -0.439580       -11.9616
 156   2.0000      -0.435000       -11.8369
 157   2.0000      -0.430554       -11.7160
 158   2.0000      -0.389004       -10.5853
 159   2.0000      -0.382449       -10.4070
 160   2.0000      -0.376634       -10.2487
 161   2.0000      -0.373829       -10.1724
 162   2.0000      -0.360296        -9.8041
 163   2.0000      -0.357586        -9.7304
 164   2.0000      -0.353934        -9.6310
 165   2.0000      -0.352058        -9.5800
 166   2.0000      -0.337502        -9.1839
 167   2.0000      -0.332362        -9.0440
 168   2.0000      -0.327449        -8.9103
 169   2.0000      -0.300222        -8.1695
 170   2.0000      -0.292575        -7.9614
 171   2.0000      -0.290651        -7.9090
 172   2.0000      -0.287175        -7.8144
 173   2.0000      -0.254980        -6.9384
 174   2.0000      -0.246610        -6.7106
 175   2.0000      -0.187355        -5.0982
 176   2.0000      -0.177072        -4.8184
 177   2.0000      -0.064741        -1.7617
 178   2.0000      -0.053826        -1.4647
 179   0.0000       0.031737         0.8636
 180   0.0000       0.070390         1.9154
 181   0.0000       0.092871         2.5271
 182   0.0000       0.095668         2.6033
 183   0.0000       0.133639         3.6365

MULLIKEN ATOMIC CHARGES
-----------------------
   0 C :    0.208624
   1 N :   -0.439500
   2 C :   -0.065827
   3 N :   -0.338807
   4 C :   -0.080755
   5 N :   -0.562762
   6 C :   -0.054419
   7 N :   -0.338051
   8 C :    0.206572
   9 N :   -0.563326
  10 C :    0.114119
  11 N :   -0.437193
  12 C :   -0.066520
  13 N :   -0.440806
  14 C :    0.233006
  15 N :   -0.440699
  16 C :    0.237937
  17 C :   -0.056813
  18 C :   -0.191843
  19 C :    0.225771
  20 C :    0.206880
  21 C :   -0.072923
  22 C :   -0.085363
  23 C :   -0.050877
  24 C :    0.208367
  25 C :    0.113638
  26 C :   -0.073108
  27 C :    0.225709
  28 C :   -0.050584
  29 C :   -0.186522
  30 C :    0.233985
  31 C :    0.208966
  32 C :   -0.064952
  33 C :   -0.083359
  34 C :   -0.049747
  35 C :    0.201452
  36 C :    0.114777
  37 C :   -0.066875
  38 C :    0.238132
  39 C :   -0.062128
  40 C :   -0.190505
  41 C :    0.219644
  42 C :    0.204312
  43 C :   -0.074202
  44 C :   -0.088823
  45 C :   -0.051279
  46 C :    0.201577
  47 C :    0.115679
  48 C :   -0.075939
  49 C :    0.223918
  50 C :   -0.054159
  51 C :   -0.190376
  52 H :    0.056500
  53 H :   -0.013653
  54 H :    0.047231
  55 H :    0.055383
  56 H :    0.061643
  57 H :    0.058231
  58 H :    0.057443
  59 H :   -0.014927
  60 H :    0.045854
  61 H :    0.173120
  62 H :    0.172473
  63 H :    0.057109
  64 H :   -0.022193
  65 H :    0.046348
  66 H :    0.057996
  67 H :    0.063129
  68 H :    0.058327
  69 H :    0.059392
  70 H :   -0.023755
  71 H :    0.048665
  72 H :    0.054500
  73 H :   -0.014819
  74 H :    0.044989
  75 H :    0.053469
  76 H :    0.060414
  77 H :    0.056919
  78 H :    0.056089
  79 H :   -0.013435
  80 H :    0.045170
  81 H :    0.053406
  82 H :   -0.023861
  83 H :    0.043008
  84 H :    0.052783
  85 H :    0.058567
  86 H :    0.056338
  87 H :    0.056551
  88 H :   -0.023119
  89 H :    0.044694
Sum of atomic charges:   -0.0000000

LOEWDIN ATOMIC CHARGES
----------------------
   0 C :   -0.000594
   1 N :    0.141978
   2 C :   -0.100790
   3 N :    0.177125
   4 C :    0.040631
   5 N :   -0.138869
   6 C :   -0.021480
   7 N :    0.177320
   8 C :   -0.002072
   9 N :   -0.138760
  10 C :    0.029833
  11 N :    0.145400
  12 C :   -0.101129
  13 N :    0.139098
  14 C :   -0.046626
  15 N :    0.138360
  16 C :   -0.043144
  17 C :   -0.023510
  18 C :   -0.109548
  19 C :   -0.087718
  20 C :   -0.000197
  21 C :   -0.103884
  22 C :    0.044615
  23 C :   -0.021597
  24 C :    0.001249
  25 C :    0.030597
  26 C :   -0.103313
  27 C :   -0.090738
  28 C :   -0.019847
  29 C :   -0.108041
  30 C :   -0.048030
  31 C :   -0.001072
  32 C :   -0.098901
  33 C :    0.036111
  34 C :   -0.020209
  35 C :   -0.007564
  36 C :    0.029054
  37 C :   -0.101529
  38 C :   -0.039793
  39 C :   -0.026326
  40 C :   -0.109214
  41 C :   -0.094669
  42 C :   -0.004631
  43 C :   -0.106036
  44 C :    0.034061
  45 C :   -0.021652
  46 C :   -0.007002
  47 C :    0.029192
  48 C :   -0.106506
  49 C :   -0.092387
  50 C :   -0.023909
  51 C :   -0.109104
  52 H :    0.030345
  53 H :    0.004512
  54 H :    0.044674
  55 H :    0.030391
  56 H :    0.027853
  57 H :    0.031065
  58 H :    0.031846
  59 H :    0.003878
  60 H :    0.044517
  61 H :    0.060704
  62 H :    0.060272
  63 H :    0.031236
  64 H :   -0.001110
  65 H :    0.045024
  66 H :    0.030810
  67 H :    0.028696
  68 H :    0.032122
  69 H :    0.031615
  70 H :   -0.001830
  71 H :    0.045745
  72 H :    0.029866
  73 H :    0.003848
  74 H :    0.044245
  75 H :    0.029085
  76 H :    0.027292
  77 H :    0.030977
  78 H :    0.030626
  79 H :    0.004588
  80 H :    0.043665
  81 H :    0.028937
  82 H :   -0.002009
  83 H :    0.043555
  84 H :    0.028899
  85 H :    0.026331
  86 H :    0.030457
  87 H :    0.031082
  88 H :   -0.001726
  89 H :    0.043685

  Mayer bond orders larger than 0.100000
B(  0-C ,  1-N ) :   1.1224 B(  0-C , 17-C ) :   1.6277 B(  0-C , 52-H ) :   0.9690
B(  1-N ,  8-C ) :   1.1192 B(  1-N , 10-C ) :   0.9596 B(  2-C , 12-C ) :   1.5394
B(  2-C , 16-C ) :   1.3186 B(  2-C , 53-H ) :   0.9780 B(  3-N , 14-C ) :   1.1998
B(  3-N , 16-C ) :   1.1960 B(  3-N , 61-H ) :   0.8982 B(  4-C ,  6-C ) :   1.2706
B(  4-C , 17-C ) :   1.2731 B(  4-C , 18-C ) :   1.2509 B(  5-N , 19-C ) :   1.4141
B(  5-N , 27-C ) :   1.4096 B(  6-C ,  8-C ) :   1.6298 B(  6-C , 54-H ) :   0.9712
B(  7-N , 30-C ) :   1.1913 B(  7-N , 38-C ) :   1.2033 B(  7-N , 62-H ) :   0.8985
B(  8-C , 55-H ) :   0.9702 B(  9-N , 41-C ) :   1.4097 B(  9-N , 49-C ) :   1.4150
B( 10-C , 56-H ) :   0.9763 B( 10-C , 57-H ) :   0.9823 B( 10-C , 58-H ) :   0.9829
B( 11-N , 20-C ) :   1.1238 B( 11-N , 24-C ) :   1.1265 B( 11-N , 25-C ) :   0.9576
B( 12-C , 14-C ) :   1.3200 B( 12-C , 59-H ) :   0.9776 B( 13-N , 31-C ) :   1.1205
B( 13-N , 35-C ) :   1.1123 B( 13-N , 36-C ) :   0.9618 B( 14-C , 18-C ) :   1.2026
B( 15-N , 42-C ) :   1.1170 B( 15-N , 46-C ) :   1.1125 B( 15-N , 47-C ) :   0.9625
B( 16-C , 51-C ) :   1.2052 B( 17-C , 60-H ) :   0.9710 B( 18-C , 19-C ) :   1.2210
B( 19-C , 21-C ) :   1.2095 B( 20-C , 28-C ) :   1.6214 B( 20-C , 63-H ) :   0.9702
B( 21-C , 26-C ) :   1.6436 B( 21-C , 64-H ) :   0.9737 B( 22-C , 23-C ) :   1.2822
B( 22-C , 28-C ) :   1.2772 B( 22-C , 29-C ) :   1.2294 B( 23-C , 24-C ) :   1.6178
B( 23-C , 65-H ) :   0.9710 B( 24-C , 66-H ) :   0.9691 B( 25-C , 67-H ) :   0.9762
B( 25-C , 68-H ) :   0.9829 B( 25-C , 69-H ) :   0.9821 B( 26-C , 27-C ) :   1.2074
B( 26-C , 70-H ) :   0.9734 B( 27-C , 29-C ) :   1.2288 B( 28-C , 71-H ) :   0.9713
B( 29-C , 30-C ) :   1.2109 B( 30-C , 32-C ) :   1.3136 B( 31-C , 39-C ) :   1.6354
B( 31-C , 72-H ) :   0.9697 B( 32-C , 37-C ) :   1.5448 B( 32-C , 73-H ) :   0.9777
B( 33-C , 34-C ) :   1.2716 B( 33-C , 39-C ) :   1.2639 B( 33-C , 40-C ) :   1.2582
B( 34-C , 35-C ) :   1.6324 B( 34-C , 74-H ) :   0.9705 B( 35-C , 75-H ) :   0.9698
B( 36-C , 76-H ) :   0.9762 B( 36-C , 77-H ) :   0.9821 B( 36-C , 78-H ) :   0.9832
B( 37-C , 38-C ) :   1.3145 B( 37-C , 79-H ) :   0.9779 B( 38-C , 40-C ) :   1.2070
B( 39-C , 80-H ) :   0.9716 B( 40-C , 41-C ) :   1.2126 B( 41-C , 43-C ) :   1.2198
B( 42-C , 50-C ) :   1.6341 B( 42-C , 81-H ) :   0.9696 B( 43-C , 48-C ) :   1.6314
B( 43-C , 82-H ) :   0.9738 B( 44-C , 45-C ) :   1.2717 B( 44-C , 50-C ) :   1.2655
B( 44-C , 51-C ) :   1.2556 B( 45-C , 46-C ) :   1.6324 B( 45-C , 83-H ) :   0.9711
B( 46-C , 84-H ) :   0.9703 B( 47-C , 85-H ) :   0.9761 B( 47-C , 86-H ) :   0.9828
B( 47-C , 87-H ) :   0.9826 B( 48-C , 49-C ) :   1.2190 B( 48-C , 88-H ) :   0.9737
B( 49-C , 51-C ) :   1.2138 B( 50-C , 89-H ) :   0.9714

MP2 TOTAL ENERGY:    -2130.912964454 Eh
FINAL SINGLE POINT ENERGY     -2130.912964453878

DIPOLE MOMENT
-------------
                                X             Y             Z
Electronic contribution:     -0.69343      -0.29055      -0.19768
Nuclear contribution   :     -0.00091       0.18359       0.22331
                        -----------------------------------------
Total Dipole Moment    :     -0.69434      -0.10695       0.02564
                        -----------------------------------------
Magnitude (a.u.)       :      0.70299
Magnitude (Debye)      :      1.78687

Rotational constants in cm-1:     0.001498     0.001474     0.000762
Rotational constants in MHz :    44.910195    44.189231    22.852255

                             ****ORCA TERMINATED NORMALLY****
TOTAL RUN TIME: 0 days 1 hours 34 minutes 7 seconds 974 msec
