                         Program Version 5.0.4 -  RELEASE  -
|  1> ! PAL2
|  2> ! mp2 cc-pvdz TightSCF  NoKeepInts
|  3>
|  4> %scf
|  5>   MaxCore 2000
|  6> end
|  7> %mp2
|  8>   MaxCore 2000
|  9> end
| 10> * xyz 0 1
| 11>    C       -3.04100         6.49300        -0.04400
| 12>    C        1.47400         4.04100         0.05700
| 13>    C       -2.80200         4.09300         0.04900
| 14>    C       -4.19400         4.01200         0.21100
| 15>    C       -4.95700         5.16200         0.23600
| 16>    C       -5.22900         7.59100         0.10700
| 17>    C        0.13200         4.30700         0.06100
| 18>    C       -0.56900         3.05600         0.04700
| 19>    C        1.64900         2.61800         0.02300
| 20>    C       -2.23600         5.37100        -0.08200
| 21>    N       -4.37900         6.38000         0.11400
| 22>    N        0.38800         2.06700         0.02500
| 23>    N       -2.01000         0.39500        -0.07500
| 24>    N       -0.38800        -2.07400        -0.02700
| 25>    N        2.01000        -0.40100         0.06500
| 26>    C       -1.96000         2.86100         0.02400
| 27>    C       -2.62300         1.61500        -0.01800
| 28>    C       -5.57300        -4.32900         1.06600
| 29>    C       -4.07300         1.47100         0.05600
| 30>    C       -4.10600        -2.75600        -0.02600
| 31>    C       -4.99500        -2.75700        -1.11100
| 32>    C       -6.13200        -3.54200        -1.07600
| 33>    C       -7.65100        -5.11300         0.04000
| 34>    C       -4.32400         0.14100         0.03700
| 35>    C       -3.02500        -0.52000        -0.04800
| 36>    C       -4.42200        -3.56600         1.07500
| 37>    N       -6.40700        -4.31300         0.00100
| 38>    C       -2.86700        -1.92200        -0.04000
| 39>    C       -1.65000        -2.62400        -0.02700
| 40>    C        3.56800        -6.14200        -1.04000
| 41>    C       -1.47600        -4.04900        -0.03400
| 42>    C        2.80300        -4.09900        -0.00800
| 43>    C        3.65700        -4.38400         1.06900
| 44>    C        4.42700        -5.53000         1.05900
| 45>    C        5.24500        -7.58800         0.01400
| 46>    C       -0.13400        -4.31500        -0.02200
| 47>    C        0.56800        -3.06400        -0.02700
| 48>    C        2.77500        -5.01200        -1.07400
| 49>    N        4.37600        -6.39100         0.01700
| 50>    C        1.95900        -2.86900        -0.00900
| 51>    C        2.62100        -1.62200         0.00900
| 52>    C        5.54300         4.33900        -1.13000
| 53>    C        4.07000        -1.47900        -0.09400
| 54>    C        4.10400         2.75100        -0.02100
| 55>    C        5.02700         2.72900         1.03600
| 56>    C        6.16600         3.50900         0.97800
| 57>    C        7.61900         5.15300        -0.11500
| 58>    C        4.32100        -0.14800        -0.09200
| 59>    C        3.02500         0.51400         0.01500
| 60>    C        4.38700         3.58200        -1.11500
| 61>    C        2.86600         1.91600         0.01300
| 62>    N        6.41300         4.29600        -0.09500
| 63>    H       -2.64600         7.49800        -0.12900
| 64>    H        2.27400         4.76600         0.08100
| 65>    H       -4.69000         3.05400         0.30700
| 66>    H       -6.03300         5.14900         0.35000
| 67>    H       -5.58300         7.77200        -0.91000
| 68>    H       -6.07500         7.43000         0.77600
| 69>    H       -4.63600         8.43700         0.45300
| 70>    H       -0.33200         5.28200         0.06900
| 71>    H       -1.16600         5.50000        -0.19500
| 72>    H        0.18200         1.07200         0.00500
| 73>    H       -0.18300        -1.08000        -0.02100
| 74>    H       -5.86400        -4.96200         1.89500
| 75>    H       -4.79400         2.27200         0.13900
| 76>    H       -4.80000        -2.16000        -1.99400
| 77>    H       -6.84100        -3.58200        -1.89300
| 78>    H       -8.42800        -4.53600         0.54600
| 79>    H       -7.95600        -5.33700        -0.98100
| 80>    H       -7.45600        -6.03700         0.58400
| 81>    H       -5.28700        -0.34400         0.10000
| 82>    H       -3.78000        -3.60100         1.94700
| 83>    H        3.58700        -6.86800        -1.84300
| 84>    H       -2.27600        -4.77400        -0.05000
| 85>    H        3.71400        -3.72400         1.92600
| 86>    H        5.09200        -5.79500         1.87100
| 87>    H        6.20500        -7.32900        -0.43900
| 88>    H        5.39300        -7.91700         1.04200
| 89>    H        4.75900        -8.37300        -0.56400
| 90>    H        0.32900        -5.29000        -0.00800
| 91>    H        2.14600        -4.84200        -1.94000
| 92>    H        5.80800         4.98600        -1.95600
| 93>    H        4.78800        -2.28100        -0.18500
| 94>    H        4.86000         2.11400         1.91200
| 95>    H        6.90100         3.53100         1.77200
| 96>    H        7.38300         6.10900         0.35600
| 97>    H        8.41400         4.65200         0.43500
| 98>    H        7.92100         5.31000        -1.15000
| 99>    H        5.28300         0.33600        -0.17900
|100>    H        3.72000         3.63200        -1.96700
|101> *
|102>
|103>                          ****END OF INPUT****

CARTESIAN COORDINATES (ANGSTROEM)
---------------------------------
  C     -3.041000    6.493000   -0.044000
  C      1.474000    4.041000    0.057000
  C     -2.802000    4.093000    0.049000
  C     -4.194000    4.012000    0.211000
  C     -4.957000    5.162000    0.236000
  C     -5.229000    7.591000    0.107000
  C      0.132000    4.307000    0.061000
  C     -0.569000    3.056000    0.047000
  C      1.649000    2.618000    0.023000
  C     -2.236000    5.371000   -0.082000
  N     -4.379000    6.380000    0.114000
  N      0.388000    2.067000    0.025000
  N     -2.010000    0.395000   -0.075000
  N     -0.388000   -2.074000   -0.027000
  N      2.010000   -0.401000    0.065000
  C     -1.960000    2.861000    0.024000
  C     -2.623000    1.615000   -0.018000
  C     -5.573000   -4.329000    1.066000
  C     -4.073000    1.471000    0.056000
  C     -4.106000   -2.756000   -0.026000
  C     -4.995000   -2.757000   -1.111000
  C     -6.132000   -3.542000   -1.076000
  C     -7.651000   -5.113000    0.040000
  C     -4.324000    0.141000    0.037000
  C     -3.025000   -0.520000   -0.048000
  C     -4.422000   -3.566000    1.075000
  N     -6.407000   -4.313000    0.001000
  C     -2.867000   -1.922000   -0.040000
  C     -1.650000   -2.624000   -0.027000
  C      3.568000   -6.142000   -1.040000
  C     -1.476000   -4.049000   -0.034000
  C      2.803000   -4.099000   -0.008000
  C      3.657000   -4.384000    1.069000
  C      4.427000   -5.530000    1.059000
  C      5.245000   -7.588000    0.014000
  C     -0.134000   -4.315000   -0.022000
  C      0.568000   -3.064000   -0.027000
  C      2.775000   -5.012000   -1.074000
  N      4.376000   -6.391000    0.017000
  C      1.959000   -2.869000   -0.009000
  C      2.621000   -1.622000    0.009000
  C      5.543000    4.339000   -1.130000
  C      4.070000   -1.479000   -0.094000
  C      4.104000    2.751000   -0.021000
  C      5.027000    2.729000    1.036000
  C      6.166000    3.509000    0.978000
  C      7.619000    5.153000   -0.115000
  C      4.321000   -0.148000   -0.092000
  C      3.025000    0.514000    0.015000
  C      4.387000    3.582000   -1.115000
  C      2.866000    1.916000    0.013000
  N      6.413000    4.296000   -0.095000
  H     -2.646000    7.498000   -0.129000
  H      2.274000    4.766000    0.081000
  H     -4.690000    3.054000    0.307000
  H     -6.033000    5.149000    0.350000
  H     -5.583000    7.772000   -0.910000
  H     -6.075000    7.430000    0.776000
  H     -4.636000    8.437000    0.453000
  H     -0.332000    5.282000    0.069000
  H     -1.166000    5.500000   -0.195000
  H      0.182000    1.072000    0.005000
  H     -0.183000   -1.080000   -0.021000
  H     -5.864000   -4.962000    1.895000
  H     -4.794000    2.272000    0.139000
  H     -4.800000   -2.160000   -1.994000
  H     -6.841000   -3.582000   -1.893000
  H     -8.428000   -4.536000    0.546000
  H     -7.956000   -5.337000   -0.981000
  H     -7.456000   -6.037000    0.584000
  H     -5.287000   -0.344000    0.100000
  H     -3.780000   -3.601000    1.947000
  H      3.587000   -6.868000   -1.843000
  H     -2.276000   -4.774000   -0.050000
  H      3.714000   -3.724000    1.926000
  H      5.092000   -5.795000    1.871000
  H      6.205000   -7.329000   -0.439000
  H      5.393000   -7.917000    1.042000
  H      4.759000   -8.373000   -0.564000
  H      0.329000   -5.290000   -0.008000
  H      2.146000   -4.842000   -1.940000
  H      5.808000    4.986000   -1.956000
  H      4.788000   -2.281000   -0.185000
  H      4.860000    2.114000    1.912000
  H      6.901000    3.531000    1.772000
  H      7.383000    6.109000    0.356000
  H      8.414000    4.652000    0.435000
  H      7.921000    5.310000   -1.150000
  H      5.283000    0.336000   -0.179000
  H      3.720000    3.632000   -1.967000

 Total Charge           Charge          ....    0
 Multiplicity           Mult            ....    1
 Number of Electrons    NEL             ....  358
 Basis Dimension        Dim             ....  918

ORBITAL ENERGIES
----------------

  NO   OCC          E(Eh)            E(eV)
   0   2.0000     -15.679983      -426.6740
   1   2.0000     -15.632903      -425.3929
   2   2.0000     -15.632809      -425.3904
   3   2.0000     -15.588102      -424.1738
   4   2.0000     -15.524835      -422.4522
   5   2.0000     -15.515467      -422.1973
   6   2.0000     -15.454036      -420.5257
   7   2.0000     -15.439353      -420.1262
   8   2.0000     -11.329444      -308.2899
   9   2.0000     -11.328657      -308.2684
  10   2.0000     -11.328044      -308.2517
  11   2.0000     -11.299033      -307.4623
  12   2.0000     -11.298620      -307.4511
  13   2.0000     -11.292148      -307.2750
  14   2.0000     -11.292072      -307.2729
  15   2.0000     -11.287396      -307.1457
  16   2.0000     -11.285515      -307.0945
  17   2.0000     -11.282205      -307.0044
  18   2.0000     -11.269533      -306.6596
  19   2.0000     -11.263461      -306.4943
  20   2.0000     -11.262457      -306.4670
  21   2.0000     -11.251486      -306.1685
  22   2.0000     -11.247631      -306.0636
  23   2.0000     -11.237620      -305.7912
  24   2.0000     -11.236638      -305.7645
  25   2.0000     -11.230523      -305.5981
  26   2.0000     -11.230357      -305.5935
  27   2.0000     -11.230281      -305.5915
  28   2.0000     -11.229557      -305.5718
  29   2.0000     -11.210699      -305.0586
  30   2.0000     -11.209288      -305.0202
  31   2.0000     -11.194036      -304.6052
  32   2.0000     -11.192071      -304.5517
  33   2.0000     -11.191399      -304.5334
  34   2.0000     -11.188860      -304.4644
  35   2.0000     -11.188196      -304.4463
  36   2.0000     -11.187374      -304.4239
  37   2.0000     -11.174419      -304.0714
  38   2.0000     -11.172767      -304.0265
  39   2.0000     -11.171599      -303.9947
  40   2.0000     -11.171404      -303.9894
  41   2.0000     -11.167925      -303.8947
  42   2.0000     -11.166882      -303.8663
  43   2.0000     -11.162249      -303.7402
  44   2.0000     -11.160928      -303.7043
  45   2.0000     -11.157186      -303.6025
  46   2.0000     -11.156156      -303.5744
  47   2.0000     -11.151036      -303.4351
  48   2.0000     -11.147288      -303.3331
  49   2.0000     -11.135500      -303.0124
  50   2.0000     -11.129376      -302.8457
  51   2.0000     -11.117659      -302.5269
  52   2.0000      -1.360538       -37.0221
  53   2.0000      -1.320531       -35.9335
  54   2.0000      -1.320229       -35.9253
  55   2.0000      -1.280155       -34.8348
  56   2.0000      -1.225899       -33.3584
  57   2.0000      -1.210412       -32.9370
  58   2.0000      -1.173767       -31.9398
  59   2.0000      -1.150622       -31.3100
  60   2.0000      -1.143776       -31.1237
  61   2.0000      -1.110371       -30.2147
  62   2.0000      -1.108808       -30.1722
  63   2.0000      -1.082208       -29.4484
  64   2.0000      -1.077239       -29.3132
  65   2.0000      -1.045127       -28.4394
  66   2.0000      -1.044471       -28.4215
  67   2.0000      -1.041169       -28.3316
  68   2.0000      -1.014922       -27.6174
  69   2.0000      -1.014673       -27.6107
  70   2.0000      -1.009109       -27.4593
  71   2.0000      -0.993286       -27.0287
  72   2.0000      -0.985634       -26.8205
  73   2.0000      -0.981751       -26.7148
  74   2.0000      -0.973777       -26.4978
  75   2.0000      -0.962513       -26.1913
  76   2.0000      -0.955079       -25.9890
  77   2.0000      -0.946677       -25.7604
  78   2.0000      -0.939681       -25.5700
  79   2.0000      -0.916719       -24.9452
  80   2.0000      -0.910703       -24.7815
  81   2.0000      -0.898127       -24.4393
  82   2.0000      -0.877185       -23.8694
  83   2.0000      -0.871733       -23.7211
  84   2.0000      -0.871218       -23.7071
  85   2.0000      -0.861447       -23.4412
  86   2.0000      -0.846007       -23.0210
  87   2.0000      -0.837263       -22.7831
  88   2.0000      -0.829245       -22.5649
  89   2.0000      -0.796374       -21.6704
  90   2.0000      -0.789251       -21.4766
  91   2.0000      -0.773597       -21.0506
  92   2.0000      -0.753129       -20.4937
  93   2.0000      -0.733895       -19.9703
  94   2.0000      -0.728128       -19.8134
  95   2.0000      -0.726765       -19.7763
  96   2.0000      -0.720333       -19.6013
  97   2.0000      -0.717926       -19.5358
  98   2.0000      -0.714331       -19.4379
  99   2.0000      -0.699903       -19.0453
 100   2.0000      -0.698249       -19.0003
 101   2.0000      -0.694686       -18.9034
 102   2.0000      -0.685429       -18.6515
 103   2.0000      -0.684468       -18.6253
 104   2.0000      -0.678792       -18.4709
 105   2.0000      -0.674598       -18.3568
 106   2.0000      -0.672934       -18.3115
 107   2.0000      -0.660994       -17.9866
 108   2.0000      -0.658134       -17.9087
 109   2.0000      -0.652868       -17.7654
 110   2.0000      -0.652031       -17.7427
 111   2.0000      -0.646308       -17.5869
 112   2.0000      -0.645782       -17.5726
 113   2.0000      -0.637888       -17.3578
 114   2.0000      -0.635580       -17.2950
 115   2.0000      -0.628855       -17.1120
 116   2.0000      -0.623327       -16.9616
 117   2.0000      -0.620670       -16.8893
 118   2.0000      -0.612893       -16.6777
 119   2.0000      -0.612284       -16.6611
 120   2.0000      -0.611611       -16.6428
 121   2.0000      -0.611474       -16.6390
 122   2.0000      -0.601708       -16.3733
 123   2.0000      -0.589091       -16.0300
 124   2.0000      -0.581417       -15.8212
 125   2.0000      -0.580869       -15.8062
 126   2.0000      -0.580187       -15.7877
 127   2.0000      -0.571205       -15.5433
 128   2.0000      -0.566705       -15.4208
 129   2.0000      -0.560080       -15.2405
 130   2.0000      -0.555267       -15.1096
 131   2.0000      -0.547868       -14.9083
 132   2.0000      -0.542720       -14.7682
 133   2.0000      -0.540224       -14.7003
 134   2.0000      -0.538360       -14.6495
 135   2.0000      -0.536467       -14.5980
 136   2.0000      -0.531729       -14.4691
 137   2.0000      -0.518362       -14.1053
 138   2.0000      -0.516450       -14.0533
 139   2.0000      -0.514677       -14.0051
 140   2.0000      -0.512197       -13.9376
 141   2.0000      -0.509906       -13.8752
 142   2.0000      -0.507183       -13.8011
 143   2.0000      -0.505646       -13.7593
 144   2.0000      -0.502609       -13.6767
 145   2.0000      -0.495589       -13.4857
 146   2.0000      -0.488238       -13.2856
 147   2.0000      -0.481110       -13.0917
 148   2.0000      -0.476925       -12.9778
 149   2.0000      -0.467836       -12.7305
 150   2.0000      -0.466288       -12.6883
 151   2.0000      -0.456566       -12.4238
 152   2.0000      -0.451749       -12.2927
 153   2.0000      -0.445045       -12.1103
 154   2.0000      -0.438010       -11.9189
 155   2.0000      -0.427661       -11.6373
 156   2.0000      -0.409400       -11.1403
 157   2.0000      -0.391440       -10.6516
 158   2.0000      -0.389239       -10.5917
 159   2.0000      -0.387610       -10.5474
 160   2.0000      -0.378559       -10.3011
 161   2.0000      -0.372696       -10.1416
 162   2.0000      -0.359528        -9.7833
 163   2.0000      -0.356704        -9.7064
 164   2.0000      -0.355759        -9.6807
 165   2.0000      -0.342081        -9.3085
 166   2.0000      -0.337567        -9.1857
 167   2.0000      -0.324501        -8.8301
 168   2.0000      -0.321546        -8.7497
 169   2.0000      -0.305084        -8.3018
 170   2.0000      -0.299412        -8.1474
 171   2.0000      -0.285872        -7.7790
 172   2.0000      -0.278336        -7.5739
 173   2.0000      -0.263762        -7.1773
 174   2.0000      -0.242060        -6.5868
 175   2.0000      -0.189970        -5.1693
 176   2.0000      -0.181324        -4.9341
 177   2.0000      -0.079966        -2.1760
 178   2.0000      -0.059784        -1.6268
 179   0.0000       0.028424         0.7735
 180   0.0000       0.065357         1.7785
 181   0.0000       0.090161         2.4534
 182   0.0000       0.106151         2.8885
 183   0.0000       0.116630         3.1737

MULLIKEN ATOMIC CHARGES
-----------------------
   0 C :    0.224229
   1 N :   -0.455116
   2 C :   -0.070035
   3 N :   -0.341587
   4 C :   -0.102266
   5 N :   -0.568665
   6 C :   -0.093339
   7 N :   -0.341060
   8 C :    0.216373
   9 N :   -0.562226
  10 C :    0.119433
  11 N :   -0.438705
  12 C :   -0.051555
  13 N :   -0.429309
  14 C :    0.216319
  15 N :   -0.440671
  16 C :    0.232964
  17 C :   -0.110365
  18 C :   -0.180245
  19 C :    0.213732
  20 C :    0.213285
  21 C :   -0.053555
  22 C :   -0.091195
  23 C :   -0.039545
  24 C :    0.192893
  25 C :    0.114756
  26 C :   -0.085259
  27 C :    0.218498
  28 C :   -0.061958
  29 C :   -0.182716
  30 C :    0.245694
  31 C :    0.230041
  32 C :   -0.061566
  33 C :   -0.059904
  34 C :   -0.051631
  35 C :    0.229206
  36 C :    0.108173
  37 C :   -0.064469
  38 C :    0.230714
  39 C :   -0.057265
  40 C :   -0.181771
  41 C :    0.226480
  42 C :    0.197570
  43 C :   -0.072499
  44 C :   -0.089070
  45 C :   -0.061676
  46 C :    0.212424
  47 C :    0.115203
  48 C :   -0.066410
  49 C :    0.238500
  50 C :   -0.046001
  51 C :   -0.192644
  52 H :    0.034122
  53 H :   -0.018497
  54 H :    0.057138
  55 H :    0.031703
  56 H :    0.049331
  57 H :    0.047690
  58 H :    0.046334
  59 H :   -0.018143
  60 H :    0.045304
  61 H :    0.171148
  62 H :    0.175386
  63 H :    0.054839
  64 H :   -0.044108
  65 H :    0.046731
  66 H :    0.055130
  67 H :    0.062036
  68 H :    0.056955
  69 H :    0.056056
  70 H :   -0.030846
  71 H :    0.044347
  72 H :    0.071510
  73 H :   -0.007905
  74 H :    0.060571
  75 H :    0.071004
  76 H :    0.075122
  77 H :    0.068149
  78 H :    0.067497
  79 H :   -0.016896
  80 H :    0.061582
  81 H :    0.054793
  82 H :   -0.024812
  83 H :    0.042347
  84 H :    0.054665
  85 H :    0.061274
  86 H :    0.055814
  87 H :    0.057520
  88 H :   -0.014377
  89 H :    0.047270
Sum of atomic charges:   -0.0000000

LOEWDIN ATOMIC CHARGES
----------------------
   0 C :   -0.016491
   1 N :    0.122461
   2 C :   -0.099997
   3 N :    0.182278
   4 C :   -0.010431
   5 N :   -0.134750
   6 C :   -0.011158
   7 N :    0.174978
   8 C :   -0.022569
   9 N :   -0.140625
  10 C :    0.022763
  11 N :    0.141214
  12 C :   -0.097797
  13 N :    0.166575
  14 C :   -0.014990
  15 N :    0.139499
  16 C :   -0.061388
  17 C :   -0.028689
  18 C :   -0.114562
  19 C :   -0.073037
  20 C :    0.004251
  21 C :   -0.094143
  22 C :    0.036239
  23 C :   -0.014652
  24 C :   -0.013625
  25 C :    0.029644
  26 C :   -0.107625
  27 C :   -0.117134
  28 C :   -0.028015
  29 C :   -0.099585
  30 C :   -0.029551
  31 C :    0.024280
  32 C :   -0.094489
  33 C :    0.082640
  34 C :   -0.015376
  35 C :    0.023891
  36 C :    0.035315
  37 C :   -0.094121
  38 C :   -0.052895
  39 C :   -0.017270
  40 C :   -0.109050
  41 C :   -0.090388
  42 C :   -0.010037
  43 C :   -0.099165
  44 C :    0.034819
  45 C :   -0.028142
  46 C :    0.002873
  47 C :    0.029667
  48 C :   -0.094344
  49 C :   -0.069404
  50 C :   -0.018341
  51 C :   -0.108019
  52 H :    0.022206
  53 H :    0.002434
  54 H :   -0.021679
  55 H :    0.021496
  56 H :    0.021834
  57 H :    0.026428
  58 H :    0.026506
  59 H :    0.002290
  60 H :   -0.006116
  61 H :    0.060258
  62 H :    0.061860
  63 H :    0.030534
  64 H :   -0.002838
  65 H :    0.045745
  66 H :    0.028995
  67 H :    0.028023
  68 H :    0.031497
  69 H :    0.030148
  70 H :   -0.004962
  71 H :    0.043272
  72 H :    0.037790
  73 H :    0.007190
  74 H :    0.050732
  75 H :    0.037535
  76 H :    0.034912
  77 H :    0.036258
  78 H :    0.035961
  79 H :    0.002824
  80 H :    0.050893
  81 H :    0.029265
  82 H :   -0.002713
  83 H :    0.042673
  84 H :    0.030119
  85 H :    0.027589
  86 H :    0.030311
  87 H :    0.031547
  88 H :    0.002446
  89 H :    0.045203

  Mayer bond orders larger than 0.100000
B(  0-C ,  1-N ) :   1.1035 B(  0-C , 17-C ) :   1.7184 B(  0-C , 52-H ) :   0.9604
B(  1-N ,  8-C ) :   1.0900 B(  1-N , 10-C ) :   0.9773 B(  2-C , 12-C ) :   1.4869
B(  2-C , 16-C ) :   1.3752 B(  2-C , 53-H ) :   0.9713 B(  3-N , 14-C ) :   1.2239
B(  3-N , 16-C ) :   1.1780 B(  3-N , 61-H ) :   0.8981 B(  4-C ,  6-C ) :   1.2235
B(  4-C , 17-C ) :   1.2252 B(  4-C , 18-C ) :   1.4831 B(  5-N , 19-C ) :   1.4639
B(  5-N , 27-C ) :   1.3685 B(  6-C ,  8-C ) :   1.7354 B(  6-C , 54-H ) :   0.8449
B(  7-N , 30-C ) :   1.1955 B(  7-N , 38-C ) :   1.1892 B(  7-N , 62-H ) :   0.8968
B(  8-C , 55-H ) :   0.9600 B(  9-N , 41-C ) :   1.3954 B(  9-N , 49-C ) :   1.4239
B( 10-C , 56-H ) :   0.9777 B( 10-C , 57-H ) :   0.9823 B( 10-C , 58-H ) :   0.9839
B( 11-N , 20-C ) :   1.1304 B( 11-N , 24-C ) :   1.1056 B( 11-N , 25-C ) :   0.9607
B( 12-C , 14-C ) :   1.3592 B( 12-C , 59-H ) :   0.9166 B( 13-N , 31-C ) :   1.1614
B( 13-N , 35-C ) :   1.1614 B( 13-N , 36-C ) :   0.9411 B( 14-C , 18-C ) :   1.1175
B( 15-N , 42-C ) :   1.1084 B( 15-N , 46-C ) :   1.1257 B( 15-N , 47-C ) :   0.9608
B( 16-C , 51-C ) :   1.1683 B( 17-C , 60-H ) :   0.8790 B( 18-C , 19-C ) :   1.1152
B( 19-C , 21-C ) :   1.2557 B( 20-C , 28-C ) :   1.6298 B( 20-C , 63-H ) :   0.9703
B( 21-C , 26-C ) :   1.5754 B( 21-C , 64-H ) :   0.8842 B( 22-C , 23-C ) :   1.2885
B( 22-C , 28-C ) :   1.2626 B( 22-C , 29-C ) :   1.2281 B( 23-C , 24-C ) :   1.6214
B( 23-C , 65-H ) :   0.9703 B( 24-C , 66-H ) :   0.9696 B( 25-C , 67-H ) :   0.9760
B( 25-C , 68-H ) :   0.9828 B( 25-C , 69-H ) :   0.9824 B( 26-C , 27-C ) :   1.2685
B( 26-C , 70-H ) :   0.9658 B( 27-C , 29-C ) :   1.2047 B( 28-C , 71-H ) :   0.9720
B( 29-C , 30-C ) :   1.2470 B( 30-C , 32-C ) :   1.2790 B( 31-C , 39-C ) :   1.5872
B( 31-C , 72-H ) :   0.9681 B( 32-C , 37-C ) :   1.5796 B( 32-C , 73-H ) :   0.9787
B( 33-C , 34-C ) :   1.3067 B( 33-C , 39-C ) :   1.3049 B( 33-C , 40-C ) :   1.1759
B( 34-C , 35-C ) :   1.5851 B( 34-C , 74-H ) :   0.9696 B( 35-C , 75-H ) :   0.9681
B( 36-C , 76-H ) :   0.9768 B( 36-C , 77-H ) :   0.9816 B( 36-C , 78-H ) :   0.9823
B( 37-C , 38-C ) :   1.2853 B( 37-C , 79-H ) :   0.9764 B( 38-C , 40-C ) :   1.2339
B( 39-C , 80-H ) :   0.9705 B( 40-C , 41-C ) :   1.2507 B( 41-C , 43-C ) :   1.1835
B( 42-C , 50-C ) :   1.6317 B( 42-C , 81-H ) :   0.9696 B( 43-C , 48-C ) :   1.6697
B( 43-C , 82-H ) :   0.9721 B( 44-C , 45-C ) :   1.2643 B( 44-C , 50-C ) :   1.2738
B( 44-C , 51-C ) :   1.2584 B( 45-C , 46-C ) :   1.6333 B( 45-C , 83-H ) :   0.9718
B( 46-C , 84-H ) :   0.9700 B( 47-C , 85-H ) :   0.9762 B( 47-C , 86-H ) :   0.9829
B( 47-C , 87-H ) :   0.9824 B( 48-C , 49-C ) :   1.1868 B( 48-C , 88-H ) :   0.9748
B( 49-C , 51-C ) :   1.2467 B( 50-C , 89-H ) :   0.9708 B( 54-H , 64-H ) :   0.1397

MP2 TOTAL ENERGY:    -2130.746280300 Eh
FINAL SINGLE POINT ENERGY     -2130.746280300388

DIPOLE MOMENT
-------------
                                X             Y             Z
Electronic contribution:      2.95546      -4.24446      -0.09008
Nuclear contribution   :     -0.04066       0.15825       0.10681
                        -----------------------------------------
Total Dipole Moment    :      2.91480      -4.08621       0.01673
                        -----------------------------------------
Magnitude (a.u.)       :      5.01931
Magnitude (Debye)      :     12.75807

Rotational constants in cm-1:     0.001503     0.001478     0.000760
Rotational constants in MHz :    45.071109    44.300155    22.781455

                             ****ORCA TERMINATED NORMALLY****
TOTAL RUN TIME: 0 days 1 hours 36 minutes 56 seconds 609 msec
