                         Program Version 5.0.4 -  RELEASE  -
|  1> ! PAL2
|  2> ! mp2 cc-pvdz TightSCF  NoKeepInts
|  3>
|  4> %scf
|  5>   MaxCore 2000
|  6> end
|  7> %mp2
|  8>   MaxCore 2000
|  9> end
| 10> * xyz 0 1
| 11>    C       -4.95500         5.18100         0.12100
| 12>    C        1.47400         4.04100         0.05700
| 13>    C       -2.80200         4.09300         0.04900
| 14>    C       -2.21600         5.36800         0.00600
| 15>    C       -3.01100         6.49700         0.02500
| 16>    C       -5.18000         7.62400         0.13500
| 17>    C        0.13200         4.30700         0.06100
| 18>    C       -0.56900         3.05600         0.04700
| 19>    C        1.64900         2.61800         0.02300
| 20>    C       -4.20200         4.02300         0.11100
| 21>    N       -4.35900         6.39400         0.07800
| 22>    N        0.38800         2.06700         0.02500
| 23>    N       -2.01000         0.39500        -0.07500
| 24>    N       -0.38800        -2.07400        -0.02700
| 25>    N        2.01000        -0.40100         0.06500
| 26>    C       -1.96000         2.86100         0.02400
| 27>    C       -2.62300         1.61500        -0.01800
| 28>    C       -5.57300        -4.32900         1.06600
| 29>    C       -4.07300         1.47100         0.05600
| 30>    C       -4.10600        -2.75600        -0.02600
| 31>    C       -4.99500        -2.75700        -1.11100
| 32>    C       -6.13200        -3.54200        -1.07600
| 33>    C       -7.65100        -5.11300         0.04000
| 34>    C       -4.32400         0.14100         0.03700
| 35>    C       -3.02500        -0.52000        -0.04800
| 36>    C       -4.42200        -3.56600         1.07500
| 37>    N       -6.40700        -4.31300         0.00100
| 38>    C       -2.86700        -1.92200        -0.04000
| 39>    C       -1.65000        -2.62400        -0.02700
| 40>    C        3.56800        -6.14200        -1.04000
| 41>    C       -1.47600        -4.04900        -0.03400
| 42>    C        2.80300        -4.09900        -0.00800
| 43>    C        3.65700        -4.38400         1.06900
| 44>    C        4.42700        -5.53000         1.05900
| 45>    C        5.24500        -7.58800         0.01400
| 46>    C       -0.13400        -4.31500        -0.02200
| 47>    C        0.56800        -3.06400        -0.02700
| 48>    C        2.77500        -5.01200        -1.07400
| 49>    N        4.37600        -6.39100         0.01700
| 50>    C        1.95900        -2.86900        -0.00900
| 51>    C        2.62100        -1.62200         0.00900
| 52>    C        5.54300         4.33900        -1.13000
| 53>    C        4.07000        -1.47900        -0.09400
| 54>    C        4.10400         2.75100        -0.02100
| 55>    C        5.02700         2.72900         1.03600
| 56>    C        6.16600         3.50900         0.97800
| 57>    C        7.61900         5.15300        -0.11500
| 58>    C        4.32100        -0.14800        -0.09200
| 59>    C        3.02500         0.51400         0.01500
| 60>    C        4.38700         3.58200        -1.11500
| 61>    C        2.86600         1.91600         0.01300
| 62>    N        6.41300         4.29600        -0.09500
| 63>    H       -6.03700         5.17400         0.15600
| 64>    H        2.27400         4.76600         0.08100
| 65>    H       -1.14000         5.48700        -0.03200
| 66>    H       -2.60500         7.50000         0.00200
| 67>    H       -5.26800         7.94500         1.17600
| 68>    H       -4.69400         8.39900        -0.45700
| 69>    H       -6.16700         7.40600        -0.27300
| 70>    H       -0.33200         5.28200         0.06900
| 71>    H       -4.71500         3.06800         0.13200
| 72>    H        0.18200         1.07200         0.00500
| 73>    H       -0.18300        -1.08000        -0.02100
| 74>    H       -5.86400        -4.96200         1.89500
| 75>    H       -4.79400         2.27200         0.13900
| 76>    H       -4.80000        -2.16000        -1.99400
| 77>    H       -6.84100        -3.58200        -1.89300
| 78>    H       -8.42800        -4.53600         0.54600
| 79>    H       -7.95600        -5.33700        -0.98100
| 80>    H       -7.45600        -6.03700         0.58400
| 81>    H       -5.28700        -0.34400         0.10000
| 82>    H       -3.78000        -3.60100         1.94700
| 83>    H        3.58700        -6.86800        -1.84300
| 84>    H       -2.27600        -4.77400        -0.05000
| 85>    H        3.71400        -3.72400         1.92600
| 86>    H        5.09200        -5.79500         1.87100
| 87>    H        6.20500        -7.32900        -0.43900
| 88>    H        5.39300        -7.91700         1.04200
| 89>    H        4.75900        -8.37300        -0.56400
| 90>    H        0.32900        -5.29000        -0.00800
| 91>    H        2.14600        -4.84200        -1.94000
| 92>    H        5.80800         4.98600        -1.95600
| 93>    H        4.78800        -2.28100        -0.18500
| 94>    H        4.86000         2.11400         1.91200
| 95>    H        6.90100         3.53100         1.77200
| 96>    H        7.38300         6.10900         0.35600
| 97>    H        8.41400         4.65200         0.43500
| 98>    H        7.92100         5.31000        -1.15000
| 99>    H        5.28300         0.33600        -0.17900
|100>    H        3.72000         3.63200        -1.96700
|101> *
|102>
|103>                          ****END OF INPUT****

CARTESIAN COORDINATES (ANGSTROEM)
---------------------------------
  C     -4.955000    5.181000    0.121000
  C      1.474000    4.041000    0.057000
  C     -2.802000    4.093000    0.049000
  C     -2.216000    5.368000    0.006000
  C     -3.011000    6.497000    0.025000
  C     -5.180000    7.624000    0.135000
  C      0.132000    4.307000    0.061000
  C     -0.569000    3.056000    0.047000
  C      1.649000    2.618000    0.023000
  C     -4.202000    4.023000    0.111000
  N     -4.359000    6.394000    0.078000
  N      0.388000    2.067000    0.025000
  N     -2.010000    0.395000   -0.075000
  N     -0.388000   -2.074000   -0.027000
  N      2.010000   -0.401000    0.065000
  C     -1.960000    2.861000    0.024000
  C     -2.623000    1.615000   -0.018000
  C     -5.573000   -4.329000    1.066000
  C     -4.073000    1.471000    0.056000
  C     -4.106000   -2.756000   -0.026000
  C     -4.995000   -2.757000   -1.111000
  C     -6.132000   -3.542000   -1.076000
  C     -7.651000   -5.113000    0.040000
  C     -4.324000    0.141000    0.037000
  C     -3.025000   -0.520000   -0.048000
  C     -4.422000   -3.566000    1.075000
  N     -6.407000   -4.313000    0.001000
  C     -2.867000   -1.922000   -0.040000
  C     -1.650000   -2.624000   -0.027000
  C      3.568000   -6.142000   -1.040000
  C     -1.476000   -4.049000   -0.034000
  C      2.803000   -4.099000   -0.008000
  C      3.657000   -4.384000    1.069000
  C      4.427000   -5.530000    1.059000
  C      5.245000   -7.588000    0.014000
  C     -0.134000   -4.315000   -0.022000
  C      0.568000   -3.064000   -0.027000
  C      2.775000   -5.012000   -1.074000
  N      4.376000   -6.391000    0.017000
  C      1.959000   -2.869000   -0.009000
  C      2.621000   -1.622000    0.009000
  C      5.543000    4.339000   -1.130000
  C      4.070000   -1.479000   -0.094000
  C      4.104000    2.751000   -0.021000
  C      5.027000    2.729000    1.036000
  C      6.166000    3.509000    0.978000
  C      7.619000    5.153000   -0.115000
  C      4.321000   -0.148000   -0.092000
  C      3.025000    0.514000    0.015000
  C      4.387000    3.582000   -1.115000
  C      2.866000    1.916000    0.013000
  N      6.413000    4.296000   -0.095000
  H     -6.037000    5.174000    0.156000
  H      2.274000    4.766000    0.081000
  H     -1.140000    5.487000   -0.032000
  H     -2.605000    7.500000    0.002000
  H     -5.268000    7.945000    1.176000
  H     -4.694000    8.399000   -0.457000
  H     -6.167000    7.406000   -0.273000
  H     -0.332000    5.282000    0.069000
  H     -4.715000    3.068000    0.132000
  H      0.182000    1.072000    0.005000
  H     -0.183000   -1.080000   -0.021000
  H     -5.864000   -4.962000    1.895000
  H     -4.794000    2.272000    0.139000
  H     -4.800000   -2.160000   -1.994000
  H     -6.841000   -3.582000   -1.893000
  H     -8.428000   -4.536000    0.546000
  H     -7.956000   -5.337000   -0.981000
  H     -7.456000   -6.037000    0.584000
  H     -5.287000   -0.344000    0.100000
  H     -3.780000   -3.601000    1.947000
  H      3.587000   -6.868000   -1.843000
  H     -2.276000   -4.774000   -0.050000
  H      3.714000   -3.724000    1.926000
  H      5.092000   -5.795000    1.871000
  H      6.205000   -7.329000   -0.439000
  H      5.393000   -7.917000    1.042000
  H      4.759000   -8.373000   -0.564000
  H      0.329000   -5.290000   -0.008000
  H      2.146000   -4.842000   -1.940000
  H      5.808000    4.986000   -1.956000
  H      4.788000   -2.281000   -0.185000
  H      4.860000    2.114000    1.912000
  H      6.901000    3.531000    1.772000
  H      7.383000    6.109000    0.356000
  H      8.414000    4.652000    0.435000
  H      7.921000    5.310000   -1.150000
  H      5.283000    0.336000   -0.179000
  H      3.720000    3.632000   -1.967000

 Total Charge           Charge          ....    0
 Multiplicity           Mult            ....    1
 Number of Electrons    NEL             ....  358
 Basis Dimension        Dim             ....  918

ORBITAL ENERGIES
----------------

  NO   OCC          E(Eh)            E(eV)
   0   2.0000     -15.679434      -426.6591
   1   2.0000     -15.633986      -425.4224
   2   2.0000     -15.631483      -425.3543
   3   2.0000     -15.588405      -424.1821
   4   2.0000     -15.524982      -422.4562
   5   2.0000     -15.515347      -422.1940
   6   2.0000     -15.453480      -420.5106
   7   2.0000     -15.439501      -420.1302
   8   2.0000     -11.329141      -308.2816
   9   2.0000     -11.328002      -308.2506
  10   2.0000     -11.327689      -308.2421
  11   2.0000     -11.299358      -307.4712
  12   2.0000     -11.298168      -307.4388
  13   2.0000     -11.293042      -307.2993
  14   2.0000     -11.290913      -307.2414
  15   2.0000     -11.286525      -307.1220
  16   2.0000     -11.286230      -307.1139
  17   2.0000     -11.281694      -306.9905
  18   2.0000     -11.269768      -306.6660
  19   2.0000     -11.263029      -306.4826
  20   2.0000     -11.262039      -306.4557
  21   2.0000     -11.250476      -306.1410
  22   2.0000     -11.248656      -306.0915
  23   2.0000     -11.237751      -305.7948
  24   2.0000     -11.236266      -305.7543
  25   2.0000     -11.231172      -305.6157
  26   2.0000     -11.230496      -305.5973
  27   2.0000     -11.229485      -305.5698
  28   2.0000     -11.229313      -305.5652
  29   2.0000     -11.211031      -305.0677
  30   2.0000     -11.209397      -305.0232
  31   2.0000     -11.194358      -304.6140
  32   2.0000     -11.192383      -304.5602
  33   2.0000     -11.190935      -304.5208
  34   2.0000     -11.187999      -304.4409
  35   2.0000     -11.187893      -304.4380
  36   2.0000     -11.186485      -304.3997
  37   2.0000     -11.174438      -304.0719
  38   2.0000     -11.172536      -304.0202
  39   2.0000     -11.170578      -303.9669
  40   2.0000     -11.170390      -303.9618
  41   2.0000     -11.168427      -303.9084
  42   2.0000     -11.166624      -303.8593
  43   2.0000     -11.161447      -303.7184
  44   2.0000     -11.161398      -303.7171
  45   2.0000     -11.156615      -303.5869
  46   2.0000     -11.156245      -303.5769
  47   2.0000     -11.150685      -303.4256
  48   2.0000     -11.147013      -303.3256
  49   2.0000     -11.135854      -303.0220
  50   2.0000     -11.130158      -302.8670
  51   2.0000     -11.118404      -302.5472
  52   2.0000      -1.360059       -37.0091
  53   2.0000      -1.321236       -35.9527
  54   2.0000      -1.319320       -35.9005
  55   2.0000      -1.280341       -34.8398
  56   2.0000      -1.226064       -33.3629
  57   2.0000      -1.210344       -32.9351
  58   2.0000      -1.173090       -31.9214
  59   2.0000      -1.150928       -31.3183
  60   2.0000      -1.143320       -31.1113
  61   2.0000      -1.110306       -30.2130
  62   2.0000      -1.108693       -30.1691
  63   2.0000      -1.081751       -29.4359
  64   2.0000      -1.077646       -29.3242
  65   2.0000      -1.045429       -28.4476
  66   2.0000      -1.043989       -28.4084
  67   2.0000      -1.040838       -28.3226
  68   2.0000      -1.015563       -27.6349
  69   2.0000      -1.014748       -27.6127
  70   2.0000      -1.009133       -27.4599
  71   2.0000      -0.993448       -27.0331
  72   2.0000      -0.985625       -26.8202
  73   2.0000      -0.981716       -26.7139
  74   2.0000      -0.974349       -26.5134
  75   2.0000      -0.962062       -26.1790
  76   2.0000      -0.954625       -25.9767
  77   2.0000      -0.947104       -25.7720
  78   2.0000      -0.939648       -25.5691
  79   2.0000      -0.916736       -24.9457
  80   2.0000      -0.910368       -24.7724
  81   2.0000      -0.898699       -24.4549
  82   2.0000      -0.877319       -23.8731
  83   2.0000      -0.872286       -23.7361
  84   2.0000      -0.870745       -23.6942
  85   2.0000      -0.861882       -23.4530
  86   2.0000      -0.845831       -23.0162
  87   2.0000      -0.839231       -22.8366
  88   2.0000      -0.829482       -22.5714
  89   2.0000      -0.796302       -21.6685
  90   2.0000      -0.789476       -21.4827
  91   2.0000      -0.776896       -21.1404
  92   2.0000      -0.752812       -20.4851
  93   2.0000      -0.734414       -19.9844
  94   2.0000      -0.729363       -19.8470
  95   2.0000      -0.726969       -19.7818
  96   2.0000      -0.720654       -19.6100
  97   2.0000      -0.717719       -19.5301
  98   2.0000      -0.714009       -19.4292
  99   2.0000      -0.700193       -19.0532
 100   2.0000      -0.698245       -19.0002
 101   2.0000      -0.694620       -18.9016
 102   2.0000      -0.685256       -18.6468
 103   2.0000      -0.684058       -18.6142
 104   2.0000      -0.678972       -18.4758
 105   2.0000      -0.674341       -18.3497
 106   2.0000      -0.672687       -18.3048
 107   2.0000      -0.661178       -17.9916
 108   2.0000      -0.658206       -17.9107
 109   2.0000      -0.652923       -17.7669
 110   2.0000      -0.651900       -17.7391
 111   2.0000      -0.646004       -17.5787
 112   2.0000      -0.645579       -17.5671
 113   2.0000      -0.638250       -17.3677
 114   2.0000      -0.635496       -17.2927
 115   2.0000      -0.628770       -17.1097
 116   2.0000      -0.623129       -16.9562
 117   2.0000      -0.620683       -16.8896
 118   2.0000      -0.612892       -16.6776
 119   2.0000      -0.612296       -16.6614
 120   2.0000      -0.611590       -16.6422
 121   2.0000      -0.611126       -16.6296
 122   2.0000      -0.601535       -16.3686
 123   2.0000      -0.589481       -16.0406
 124   2.0000      -0.581698       -15.8288
 125   2.0000      -0.580625       -15.7996
 126   2.0000      -0.580313       -15.7911
 127   2.0000      -0.570835       -15.5332
 128   2.0000      -0.566655       -15.4195
 129   2.0000      -0.559828       -15.2337
 130   2.0000      -0.556060       -15.1312
 131   2.0000      -0.547595       -14.9008
 132   2.0000      -0.542653       -14.7663
 133   2.0000      -0.540288       -14.7020
 134   2.0000      -0.538883       -14.6638
 135   2.0000      -0.535976       -14.5847
 136   2.0000      -0.532073       -14.4784
 137   2.0000      -0.518053       -14.0969
 138   2.0000      -0.516754       -14.0616
 139   2.0000      -0.514071       -13.9886
 140   2.0000      -0.511603       -13.9214
 141   2.0000      -0.510073       -13.8798
 142   2.0000      -0.507272       -13.8036
 143   2.0000      -0.505871       -13.7654
 144   2.0000      -0.502168       -13.6647
 145   2.0000      -0.495670       -13.4879
 146   2.0000      -0.488424       -13.2907
 147   2.0000      -0.481326       -13.0975
 148   2.0000      -0.476271       -12.9600
 149   2.0000      -0.467562       -12.7230
 150   2.0000      -0.466067       -12.6823
 151   2.0000      -0.455949       -12.4070
 152   2.0000      -0.451132       -12.2759
 153   2.0000      -0.445293       -12.1170
 154   2.0000      -0.438144       -11.9225
 155   2.0000      -0.427909       -11.6440
 156   2.0000      -0.408913       -11.1271
 157   2.0000      -0.390801       -10.6342
 158   2.0000      -0.387499       -10.5444
 159   2.0000      -0.383438       -10.4339
 160   2.0000      -0.378157       -10.2902
 161   2.0000      -0.373151       -10.1539
 162   2.0000      -0.358400        -9.7525
 163   2.0000      -0.356668        -9.7054
 164   2.0000      -0.355616        -9.6768
 165   2.0000      -0.341497        -9.2926
 166   2.0000      -0.337467        -9.1830
 167   2.0000      -0.324793        -8.8381
 168   2.0000      -0.321844        -8.7578
 169   2.0000      -0.305271        -8.3069
 170   2.0000      -0.299169        -8.1408
 171   2.0000      -0.286130        -7.7860
 172   2.0000      -0.278155        -7.5690
 173   2.0000      -0.263212        -7.1624
 174   2.0000      -0.242449        -6.5974
 175   2.0000      -0.189978        -5.1696
 176   2.0000      -0.181420        -4.9367
 177   2.0000      -0.080197        -2.1823
 178   2.0000      -0.059559        -1.6207
 179   0.0000       0.028536         0.7765
 180   0.0000       0.065521         1.7829
 181   0.0000       0.090373         2.4592
 182   0.0000       0.106525         2.8987
 183   0.0000       0.117143         3.1876

MULLIKEN ATOMIC CHARGES
-----------------------
   0 C :    0.224724
   1 N :   -0.454626
   2 C :   -0.065216
   3 N :   -0.341106
   4 C :   -0.139813
   5 N :   -0.568782
   6 C :   -0.097592
   7 N :   -0.341028
   8 C :    0.226506
   9 N :   -0.562506
  10 C :    0.119183
  11 N :   -0.438395
  12 C :   -0.056000
  13 N :   -0.429414
  14 C :    0.212263
  15 N :   -0.440979
  16 C :    0.234836
  17 C :   -0.093891
  18 C :   -0.180225
  19 C :    0.212845
  20 C :    0.213784
  21 C :   -0.063680
  22 C :   -0.090652
  23 C :   -0.039527
  24 C :    0.193240
  25 C :    0.114612
  26 C :   -0.079297
  27 C :    0.219395
  28 C :   -0.061814
  29 C :   -0.182773
  30 C :    0.245016
  31 C :    0.230366
  32 C :   -0.061093
  33 C :   -0.060053
  34 C :   -0.051078
  35 C :    0.228411
  36 C :    0.108239
  37 C :   -0.064804
  38 C :    0.231545
  39 C :   -0.057779
  40 C :   -0.182061
  41 C :    0.225904
  42 C :    0.197031
  43 C :   -0.072881
  44 C :   -0.089681
  45 C :   -0.061593
  46 C :    0.211589
  47 C :    0.115394
  48 C :   -0.066559
  49 C :    0.237683
  50 C :   -0.046185
  51 C :   -0.192841
  52 H :    0.031332
  53 H :   -0.018923
  54 H :    0.057468
  55 H :    0.030883
  56 H :    0.049611
  57 H :    0.047021
  58 H :    0.047038
  59 H :   -0.020287
  60 H :    0.078439
  61 H :    0.170981
  62 H :    0.175443
  63 H :    0.055274
  64 H :   -0.045535
  65 H :    0.046910
  66 H :    0.055483
  67 H :    0.062356
  68 H :    0.057190
  69 H :    0.056349
  70 H :   -0.031255
  71 H :    0.044830
  72 H :    0.071365
  73 H :   -0.007948
  74 H :    0.060472
  75 H :    0.070798
  76 H :    0.075015
  77 H :    0.068041
  78 H :    0.067329
  79 H :   -0.016738
  80 H :    0.061369
  81 H :    0.054281
  82 H :   -0.025123
  83 H :    0.041893
  84 H :    0.054142
  85 H :    0.060782
  86 H :    0.055519
  87 H :    0.057210
  88 H :   -0.014502
  89 H :    0.046843
Sum of atomic charges:   -0.0000000

LOEWDIN ATOMIC CHARGES
----------------------
   0 C :   -0.020839
   1 N :    0.123224
   2 C :   -0.099906
   3 N :    0.182252
   4 C :   -0.009686
   5 N :   -0.134965
   6 C :   -0.019724
   7 N :    0.175061
   8 C :   -0.017749
   9 N :   -0.140709
  10 C :    0.022673
  11 N :    0.141874
  12 C :   -0.090735
  13 N :    0.166317
  14 C :   -0.014669
  15 N :    0.138709
  16 C :   -0.060922
  17 C :   -0.014318
  18 C :   -0.116477
  19 C :   -0.072175
  20 C :    0.004859
  21 C :   -0.091747
  22 C :    0.037158
  23 C :   -0.014522
  24 C :   -0.013122
  25 C :    0.029790
  26 C :   -0.107007
  27 C :   -0.117247
  28 C :   -0.027702
  29 C :   -0.098584
  30 C :   -0.030548
  31 C :    0.024509
  32 C :   -0.093853
  33 C :    0.082330
  34 C :   -0.015098
  35 C :    0.023122
  36 C :    0.035250
  37 C :   -0.094492
  38 C :   -0.051684
  39 C :   -0.017656
  40 C :   -0.109329
  41 C :   -0.091290
  42 C :   -0.010778
  43 C :   -0.099639
  44 C :    0.033611
  45 C :   -0.028303
  46 C :    0.001938
  47 C :    0.029483
  48 C :   -0.094744
  49 C :   -0.069855
  50 C :   -0.018656
  51 C :   -0.108191
  52 H :    0.021639
  53 H :    0.002452
  54 H :   -0.017881
  55 H :    0.021620
  56 H :    0.022071
  57 H :    0.025936
  58 H :    0.026894
  59 H :    0.002166
  60 H :   -0.022085
  61 H :    0.060333
  62 H :    0.061910
  63 H :    0.030736
  64 H :   -0.003143
  65 H :    0.045823
  66 H :    0.029158
  67 H :    0.028185
  68 H :    0.031604
  69 H :    0.030287
  70 H :   -0.004951
  71 H :    0.043483
  72 H :    0.037742
  73 H :    0.007176
  74 H :    0.050724
  75 H :    0.037414
  76 H :    0.034853
  77 H :    0.036207
  78 H :    0.035886
  79 H :    0.002894
  80 H :    0.050778
  81 H :    0.029030
  82 H :   -0.002860
  83 H :    0.042489
  84 H :    0.029870
  85 H :    0.027341
  86 H :    0.030169
  87 H :    0.031402
  88 H :    0.002396
  89 H :    0.045011

  Mayer bond orders larger than 0.100000
B(  0-C ,  1-N ) :   1.0957 B(  0-C , 17-C ) :   1.7383 B(  0-C , 52-H ) :   0.9576
B(  1-N ,  8-C ) :   1.1008 B(  1-N , 10-C ) :   0.9770 B(  2-C , 12-C ) :   1.4830
B(  2-C , 16-C ) :   1.3810 B(  2-C , 53-H ) :   0.9699 B(  3-N , 14-C ) :   1.2267
B(  3-N , 16-C ) :   1.1767 B(  3-N , 61-H ) :   0.8971 B(  4-C ,  6-C ) :   1.2321
B(  4-C , 17-C ) :   1.2317 B(  4-C , 18-C ) :   1.4906 B(  5-N , 19-C ) :   1.4671
B(  5-N , 27-C ) :   1.3667 B(  6-C ,  8-C ) :   1.7312 B(  6-C , 54-H ) :   0.8559
B(  7-N , 30-C ) :   1.1944 B(  7-N , 38-C ) :   1.1903 B(  7-N , 62-H ) :   0.8967
B(  8-C , 55-H ) :   0.9592 B(  9-N , 41-C ) :   1.3950 B(  9-N , 49-C ) :   1.4244
B( 10-C , 56-H ) :   0.9777 B( 10-C , 57-H ) :   0.9824 B( 10-C , 58-H ) :   0.9836
B( 11-N , 20-C ) :   1.1313 B( 11-N , 24-C ) :   1.1066 B( 11-N , 25-C ) :   0.9603
B( 12-C , 14-C ) :   1.3641 B( 12-C , 59-H ) :   0.8966 B( 13-N , 31-C ) :   1.1617
B( 13-N , 35-C ) :   1.1603 B( 13-N , 36-C ) :   0.9413 B( 14-C , 18-C ) :   1.1160
B( 15-N , 42-C ) :   1.1074 B( 15-N , 46-C ) :   1.1244 B( 15-N , 47-C ) :   0.9614
B( 16-C , 51-C ) :   1.1679 B( 17-C , 60-H ) :   0.8362 B( 18-C , 19-C ) :   1.1154
B( 19-C , 21-C ) :   1.2541 B( 20-C , 28-C ) :   1.6286 B( 20-C , 63-H ) :   0.9702
B( 21-C , 26-C ) :   1.5810 B( 21-C , 64-H ) :   0.8830 B( 22-C , 23-C ) :   1.2898
B( 22-C , 28-C ) :   1.2636 B( 22-C , 29-C ) :   1.2255 B( 23-C , 24-C ) :   1.6198
B( 23-C , 65-H ) :   0.9703 B( 24-C , 66-H ) :   0.9696 B( 25-C , 67-H ) :   0.9760
B( 25-C , 68-H ) :   0.9828 B( 25-C , 69-H ) :   0.9823 B( 26-C , 27-C ) :   1.2680
B( 26-C , 70-H ) :   0.9649 B( 27-C , 29-C ) :   1.2076 B( 28-C , 71-H ) :   0.9720
B( 29-C , 30-C ) :   1.2470 B( 30-C , 32-C ) :   1.2788 B( 31-C , 39-C ) :   1.5878
B( 31-C , 72-H ) :   0.9681 B( 32-C , 37-C ) :   1.5802 B( 32-C , 73-H ) :   0.9786
B( 33-C , 34-C ) :   1.3070 B( 33-C , 39-C ) :   1.3039 B( 33-C , 40-C ) :   1.1765
B( 34-C , 35-C ) :   1.5854 B( 34-C , 74-H ) :   0.9696 B( 35-C , 75-H ) :   0.9681
B( 36-C , 76-H ) :   0.9768 B( 36-C , 77-H ) :   0.9816 B( 36-C , 78-H ) :   0.9823
B( 37-C , 38-C ) :   1.2845 B( 37-C , 79-H ) :   0.9764 B( 38-C , 40-C ) :   1.2342
B( 39-C , 80-H ) :   0.9705 B( 40-C , 41-C ) :   1.2497 B( 41-C , 43-C ) :   1.1849
B( 42-C , 50-C ) :   1.6331 B( 42-C , 81-H ) :   0.9697 B( 43-C , 48-C ) :   1.6680
B( 43-C , 82-H ) :   0.9721 B( 44-C , 45-C ) :   1.2632 B( 44-C , 50-C ) :   1.2724
B( 44-C , 51-C ) :   1.2612 B( 45-C , 46-C ) :   1.6347 B( 45-C , 83-H ) :   0.9718
B( 46-C , 84-H ) :   0.9700 B( 47-C , 85-H ) :   0.9762 B( 47-C , 86-H ) :   0.9829
B( 47-C , 87-H ) :   0.9824 B( 48-C , 49-C ) :   1.1883 B( 48-C , 88-H ) :   0.9749
B( 49-C , 51-C ) :   1.2456 B( 50-C , 89-H ) :   0.9708 B( 54-H , 59-H ) :   0.1191
B( 60-H , 64-H ) :   0.1358

MP2 TOTAL ENERGY:    -2130.729798580 Eh
FINAL SINGLE POINT ENERGY     -2130.729798579642

DIPOLE MOMENT
-------------
                                X             Y             Z
Electronic contribution:      2.69842      -4.32782      -0.19545
Nuclear contribution   :      0.06568       0.23063       0.19810
                        -----------------------------------------
Total Dipole Moment    :      2.76410      -4.09719       0.00265
                        -----------------------------------------
Magnitude (a.u.)       :      4.94239
Magnitude (Debye)      :     12.56255

Rotational constants in cm-1:     0.001502     0.001480     0.000760
Rotational constants in MHz :    45.014257    44.359904    22.780290

                             ****ORCA TERMINATED NORMALLY****
TOTAL RUN TIME: 0 days 1 hours 20 minutes 50 seconds 997 msec
