                         Program Version 5.0.4 -  RELEASE  -
|  1> ! PAL2
|  2> ! mp2 cc-pvdz TightSCF  NoKeepInts
|  3>
|  4> %scf
|  5>   MaxCore 2000
|  6> end
|  7> %mp2
|  8>   MaxCore 2000
|  9> end
| 10> * xyz 0 1
| 11>    C       -4.59200         5.44900        -0.83600
| 12>    C        1.47400         4.04100         0.05700
| 13>    C       -2.80200         4.09300         0.04900
| 14>    C       -2.58100         5.09900         1.00300
| 15>    C       -3.36600         6.23400         1.00800
| 16>    C       -5.20000         7.61000         0.15200
| 17>    C        0.13200         4.30700         0.06100
| 18>    C       -0.56900         3.05600         0.04700
| 19>    C        1.64900         2.61800         0.02300
| 20>    C       -3.83700         4.29300        -0.87800
| 21>    N       -4.35200         6.39900         0.09600
| 22>    N        0.38800         2.06700         0.02500
| 23>    N       -2.01000         0.39500        -0.07500
| 24>    N       -0.38800        -2.07400        -0.02700
| 25>    N        2.01000        -0.40100         0.06500
| 26>    C       -1.96000         2.86100         0.02400
| 27>    C       -2.62300         1.61500        -0.01800
| 28>    C       -5.57300        -4.32900         1.06600
| 29>    C       -4.07300         1.47100         0.05600
| 30>    C       -4.10600        -2.75600        -0.02600
| 31>    C       -4.99500        -2.75700        -1.11100
| 32>    C       -6.13200        -3.54200        -1.07600
| 33>    C       -7.65100        -5.11300         0.04000
| 34>    C       -4.32400         0.14100         0.03700
| 35>    C       -3.02500        -0.52000        -0.04800
| 36>    C       -4.42200        -3.56600         1.07500
| 37>    N       -6.40700        -4.31300         0.00100
| 38>    C       -2.86700        -1.92200        -0.04000
| 39>    C       -1.65000        -2.62400        -0.02700
| 40>    C        3.56800        -6.14200        -1.04000
| 41>    C       -1.47600        -4.04900        -0.03400
| 42>    C        2.80300        -4.09900        -0.00800
| 43>    C        3.65700        -4.38400         1.06900
| 44>    C        4.42700        -5.53000         1.05900
| 45>    C        5.24500        -7.58800         0.01400
| 46>    C       -0.13400        -4.31500        -0.02200
| 47>    C        0.56800        -3.06400        -0.02700
| 48>    C        2.77500        -5.01200        -1.07400
| 49>    N        4.37600        -6.39100         0.01700
| 50>    C        1.95900        -2.86900        -0.00900
| 51>    C        2.62100        -1.62200         0.00900
| 52>    C        5.54300         4.33900        -1.13000
| 53>    C        4.07000        -1.47900        -0.09400
| 54>    C        4.10400         2.75100        -0.02100
| 55>    C        5.02700         2.72900         1.03600
| 56>    C        6.16600         3.50900         0.97800
| 57>    C        7.61900         5.15300        -0.11500
| 58>    C        4.32100        -0.14800        -0.09200
| 59>    C        3.02500         0.51400         0.01500
| 60>    C        4.38700         3.58200        -1.11500
| 61>    C        2.86600         1.91600         0.01300
| 62>    N        6.41300         4.29600        -0.09500
| 63>    H       -5.39100         5.65100        -1.53800
| 64>    H        2.27400         4.76600         0.08100
| 65>    H       -1.80300         4.99800         1.75000
| 66>    H       -3.23800         7.03200         1.72900
| 67>    H       -6.02000         7.43800         0.85300
| 68>    H       -4.59100         8.45000         0.48700
| 69>    H       -5.59500         7.80800        -0.84400
| 70>    H       -0.33200         5.28200         0.06900
| 71>    H       -4.04800         3.56000        -1.64800
| 72>    H        0.18200         1.07200         0.00500
| 73>    H       -0.18300        -1.08000        -0.02100
| 74>    H       -5.86400        -4.96200         1.89500
| 75>    H       -4.79400         2.27200         0.13900
| 76>    H       -4.80000        -2.16000        -1.99400
| 77>    H       -6.84100        -3.58200        -1.89300
| 78>    H       -8.42800        -4.53600         0.54600
| 79>    H       -7.95600        -5.33700        -0.98100
| 80>    H       -7.45600        -6.03700         0.58400
| 81>    H       -5.28700        -0.34400         0.10000
| 82>    H       -3.78000        -3.60100         1.94700
| 83>    H        3.58700        -6.86800        -1.84300
| 84>    H       -2.27600        -4.77400        -0.05000
| 85>    H        3.71400        -3.72400         1.92600
| 86>    H        5.09200        -5.79500         1.87100
| 87>    H        6.20500        -7.32900        -0.43900
| 88>    H        5.39300        -7.91700         1.04200
| 89>    H        4.75900        -8.37300        -0.56400
| 90>    H        0.32900        -5.29000        -0.00800
| 91>    H        2.14600        -4.84200        -1.94000
| 92>    H        5.80800         4.98600        -1.95600
| 93>    H        4.78800        -2.28100        -0.18500
| 94>    H        4.86000         2.11400         1.91200
| 95>    H        6.90100         3.53100         1.77200
| 96>    H        7.38300         6.10900         0.35600
| 97>    H        8.41400         4.65200         0.43500
| 98>    H        7.92100         5.31000        -1.15000
| 99>    H        5.28300         0.33600        -0.17900
|100>    H        3.72000         3.63200        -1.96700
|101> *
|102>
|103>                          ****END OF INPUT****

CARTESIAN COORDINATES (ANGSTROEM)
---------------------------------
  C     -4.592000    5.449000   -0.836000
  C      1.474000    4.041000    0.057000
  C     -2.802000    4.093000    0.049000
  C     -2.581000    5.099000    1.003000
  C     -3.366000    6.234000    1.008000
  C     -5.200000    7.610000    0.152000
  C      0.132000    4.307000    0.061000
  C     -0.569000    3.056000    0.047000
  C      1.649000    2.618000    0.023000
  C     -3.837000    4.293000   -0.878000
  N     -4.352000    6.399000    0.096000
  N      0.388000    2.067000    0.025000
  N     -2.010000    0.395000   -0.075000
  N     -0.388000   -2.074000   -0.027000
  N      2.010000   -0.401000    0.065000
  C     -1.960000    2.861000    0.024000
  C     -2.623000    1.615000   -0.018000
  C     -5.573000   -4.329000    1.066000
  C     -4.073000    1.471000    0.056000
  C     -4.106000   -2.756000   -0.026000
  C     -4.995000   -2.757000   -1.111000
  C     -6.132000   -3.542000   -1.076000
  C     -7.651000   -5.113000    0.040000
  C     -4.324000    0.141000    0.037000
  C     -3.025000   -0.520000   -0.048000
  C     -4.422000   -3.566000    1.075000
  N     -6.407000   -4.313000    0.001000
  C     -2.867000   -1.922000   -0.040000
  C     -1.650000   -2.624000   -0.027000
  C      3.568000   -6.142000   -1.040000
  C     -1.476000   -4.049000   -0.034000
  C      2.803000   -4.099000   -0.008000
  C      3.657000   -4.384000    1.069000
  C      4.427000   -5.530000    1.059000
  C      5.245000   -7.588000    0.014000
  C     -0.134000   -4.315000   -0.022000
  C      0.568000   -3.064000   -0.027000
  C      2.775000   -5.012000   -1.074000
  N      4.376000   -6.391000    0.017000
  C      1.959000   -2.869000   -0.009000
  C      2.621000   -1.622000    0.009000
  C      5.543000    4.339000   -1.130000
  C      4.070000   -1.479000   -0.094000
  C      4.104000    2.751000   -0.021000
  C      5.027000    2.729000    1.036000
  C      6.166000    3.509000    0.978000
  C      7.619000    5.153000   -0.115000
  C      4.321000   -0.148000   -0.092000
  C      3.025000    0.514000    0.015000
  C      4.387000    3.582000   -1.115000
  C      2.866000    1.916000    0.013000
  N      6.413000    4.296000   -0.095000
  H     -5.391000    5.651000   -1.538000
  H      2.274000    4.766000    0.081000
  H     -1.803000    4.998000    1.750000
  H     -3.238000    7.032000    1.729000
  H     -6.020000    7.438000    0.853000
  H     -4.591000    8.450000    0.487000
  H     -5.595000    7.808000   -0.844000
  H     -0.332000    5.282000    0.069000
  H     -4.048000    3.560000   -1.648000
  H      0.182000    1.072000    0.005000
  H     -0.183000   -1.080000   -0.021000
  H     -5.864000   -4.962000    1.895000
  H     -4.794000    2.272000    0.139000
  H     -4.800000   -2.160000   -1.994000
  H     -6.841000   -3.582000   -1.893000
  H     -8.428000   -4.536000    0.546000
  H     -7.956000   -5.337000   -0.981000
  H     -7.456000   -6.037000    0.584000
  H     -5.287000   -0.344000    0.100000
  H     -3.780000   -3.601000    1.947000
  H      3.587000   -6.868000   -1.843000
  H     -2.276000   -4.774000   -0.050000
  H      3.714000   -3.724000    1.926000
  H      5.092000   -5.795000    1.871000
  H      6.205000   -7.329000   -0.439000
  H      5.393000   -7.917000    1.042000
  H      4.759000   -8.373000   -0.564000
  H      0.329000   -5.290000   -0.008000
  H      2.146000   -4.842000   -1.940000
  H      5.808000    4.986000   -1.956000
  H      4.788000   -2.281000   -0.185000
  H      4.860000    2.114000    1.912000
  H      6.901000    3.531000    1.772000
  H      7.383000    6.109000    0.356000
  H      8.414000    4.652000    0.435000
  H      7.921000    5.310000   -1.150000
  H      5.283000    0.336000   -0.179000
  H      3.720000    3.632000   -1.967000

 Total Charge           Charge          ....    0
 Multiplicity           Mult            ....    1
 Number of Electrons    NEL             ....  358
 Basis Dimension        Dim             ....  918

ORBITAL ENERGIES
----------------

  NO   OCC          E(Eh)            E(eV)
   0   2.0000     -15.653448      -425.9520
   1   2.0000     -15.639358      -425.5686
   2   2.0000     -15.628479      -425.2725
   3   2.0000     -15.608185      -424.7203
   4   2.0000     -15.521779      -422.3691
   5   2.0000     -15.515637      -422.2020
   6   2.0000     -15.447245      -420.3409
   7   2.0000     -15.443755      -420.2460
   8   2.0000     -11.311601      -307.8043
   9   2.0000     -11.307983      -307.7059
  10   2.0000     -11.305455      -307.6371
  11   2.0000     -11.302600      -307.5594
  12   2.0000     -11.295991      -307.3795
  13   2.0000     -11.295851      -307.3757
  14   2.0000     -11.292922      -307.2960
  15   2.0000     -11.286672      -307.1260
  16   2.0000     -11.284649      -307.0709
  17   2.0000     -11.284221      -307.0593
  18   2.0000     -11.270302      -306.6805
  19   2.0000     -11.270045      -306.6735
  20   2.0000     -11.257167      -306.3231
  21   2.0000     -11.244686      -305.9835
  22   2.0000     -11.243789      -305.9590
  23   2.0000     -11.242801      -305.9322
  24   2.0000     -11.234822      -305.7150
  25   2.0000     -11.234225      -305.6988
  26   2.0000     -11.233013      -305.6658
  27   2.0000     -11.226756      -305.4956
  28   2.0000     -11.226573      -305.4906
  29   2.0000     -11.216997      -305.2300
  30   2.0000     -11.211852      -305.0900
  31   2.0000     -11.211278      -305.0744
  32   2.0000     -11.205062      -304.9052
  33   2.0000     -11.204172      -304.8810
  34   2.0000     -11.191875      -304.5464
  35   2.0000     -11.191431      -304.5343
  36   2.0000     -11.179131      -304.1996
  37   2.0000     -11.176621      -304.1313
  38   2.0000     -11.176293      -304.1224
  39   2.0000     -11.173585      -304.0487
  40   2.0000     -11.167285      -303.8773
  41   2.0000     -11.166762      -303.8630
  42   2.0000     -11.166055      -303.8438
  43   2.0000     -11.165550      -303.8301
  44   2.0000     -11.163523      -303.7749
  45   2.0000     -11.163183      -303.7657
  46   2.0000     -11.150417      -303.4183
  47   2.0000     -11.149101      -303.3825
  48   2.0000     -11.147313      -303.3338
  49   2.0000     -11.145909      -303.2956
  50   2.0000     -11.138841      -303.1033
  51   2.0000     -11.134667      -302.9897
  52   2.0000      -1.337912       -36.4064
  53   2.0000      -1.325807       -36.0771
  54   2.0000      -1.316505       -35.8239
  55   2.0000      -1.300185       -35.3798
  56   2.0000      -1.221338       -33.2343
  57   2.0000      -1.211421       -32.9644
  58   2.0000      -1.164450       -31.6863
  59   2.0000      -1.156107       -31.4593
  60   2.0000      -1.124583       -30.6015
  61   2.0000      -1.113851       -30.3094
  62   2.0000      -1.105888       -30.0927
  63   2.0000      -1.092678       -29.7333
  64   2.0000      -1.061159       -28.8756
  65   2.0000      -1.049687       -28.5634
  66   2.0000      -1.041173       -28.3317
  67   2.0000      -1.029958       -28.0266
  68   2.0000      -1.026582       -27.9347
  69   2.0000      -1.012422       -27.5494
  70   2.0000      -1.009303       -27.4645
  71   2.0000      -0.994702       -27.0672
  72   2.0000      -0.985726       -26.8230
  73   2.0000      -0.974299       -26.5120
  74   2.0000      -0.972791       -26.4710
  75   2.0000      -0.958729       -26.0884
  76   2.0000      -0.951473       -25.8909
  77   2.0000      -0.945956       -25.7408
  78   2.0000      -0.938225       -25.5304
  79   2.0000      -0.922591       -25.1050
  80   2.0000      -0.895655       -24.3720
  81   2.0000      -0.885832       -24.1047
  82   2.0000      -0.876468       -23.8499
  83   2.0000      -0.868923       -23.6446
  84   2.0000      -0.862566       -23.4716
  85   2.0000      -0.855121       -23.2690
  86   2.0000      -0.848282       -23.0829
  87   2.0000      -0.840798       -22.8793
  88   2.0000      -0.821802       -22.3624
  89   2.0000      -0.798757       -21.7353
  90   2.0000      -0.796510       -21.6741
  91   2.0000      -0.741165       -20.1681
  92   2.0000      -0.734193       -19.9784
  93   2.0000      -0.730629       -19.8814
  94   2.0000      -0.722340       -19.6559
  95   2.0000      -0.719448       -19.5772
  96   2.0000      -0.712782       -19.3958
  97   2.0000      -0.705860       -19.2074
  98   2.0000      -0.700232       -19.0543
  99   2.0000      -0.695015       -18.9123
 100   2.0000      -0.689852       -18.7718
 101   2.0000      -0.681375       -18.5412
 102   2.0000      -0.678811       -18.4714
 103   2.0000      -0.673560       -18.3285
 104   2.0000      -0.670147       -18.2356
 105   2.0000      -0.667059       -18.1516
 106   2.0000      -0.664394       -18.0791
 107   2.0000      -0.660110       -17.9625
 108   2.0000      -0.657613       -17.8946
 109   2.0000      -0.656764       -17.8714
 110   2.0000      -0.651339       -17.7238
 111   2.0000      -0.648813       -17.6551
 112   2.0000      -0.644593       -17.5403
 113   2.0000      -0.637718       -17.3532
 114   2.0000      -0.634371       -17.2621
 115   2.0000      -0.626897       -17.0587
 116   2.0000      -0.622792       -16.9470
 117   2.0000      -0.616440       -16.7742
 118   2.0000      -0.612279       -16.6610
 119   2.0000      -0.610713       -16.6184
 120   2.0000      -0.608414       -16.5558
 121   2.0000      -0.602711       -16.4006
 122   2.0000      -0.594542       -16.1783
 123   2.0000      -0.594399       -16.1744
 124   2.0000      -0.590954       -16.0807
 125   2.0000      -0.585041       -15.9198
 126   2.0000      -0.578264       -15.7354
 127   2.0000      -0.575083       -15.6488
 128   2.0000      -0.565896       -15.3988
 129   2.0000      -0.559015       -15.2116
 130   2.0000      -0.553880       -15.0718
 131   2.0000      -0.548691       -14.9306
 132   2.0000      -0.541989       -14.7483
 133   2.0000      -0.537107       -14.6154
 134   2.0000      -0.534078       -14.5330
 135   2.0000      -0.529452       -14.4071
 136   2.0000      -0.525562       -14.3013
 137   2.0000      -0.522786       -14.2257
 138   2.0000      -0.519034       -14.1236
 139   2.0000      -0.517412       -14.0795
 140   2.0000      -0.509583       -13.8664
 141   2.0000      -0.507429       -13.8078
 142   2.0000      -0.506824       -13.7914
 143   2.0000      -0.501228       -13.6391
 144   2.0000      -0.500169       -13.6103
 145   2.0000      -0.498066       -13.5531
 146   2.0000      -0.494099       -13.4451
 147   2.0000      -0.490508       -13.3474
 148   2.0000      -0.488725       -13.2989
 149   2.0000      -0.469363       -12.7720
 150   2.0000      -0.461962       -12.5706
 151   2.0000      -0.453610       -12.3433
 152   2.0000      -0.448316       -12.1993
 153   2.0000      -0.446455       -12.1486
 154   2.0000      -0.446223       -12.1423
 155   2.0000      -0.439339       -11.9550
 156   2.0000      -0.435009       -11.8372
 157   2.0000      -0.430413       -11.7121
 158   2.0000      -0.395405       -10.7595
 159   2.0000      -0.383955       -10.4480
 160   2.0000      -0.379352       -10.3227
 161   2.0000      -0.371445       -10.1075
 162   2.0000      -0.369769       -10.0619
 163   2.0000      -0.360066        -9.7979
 164   2.0000      -0.352974        -9.6049
 165   2.0000      -0.339730        -9.2445
 166   2.0000      -0.337212        -9.1760
 167   2.0000      -0.334694        -9.1075
 168   2.0000      -0.329028        -8.9533
 169   2.0000      -0.300138        -8.1672
 170   2.0000      -0.299341        -8.1455
 171   2.0000      -0.287851        -7.8328
 172   2.0000      -0.286138        -7.7862
 173   2.0000      -0.256993        -6.9931
 174   2.0000      -0.247137        -6.7249
 175   2.0000      -0.188810        -5.1378
 176   2.0000      -0.178838        -4.8664
 177   2.0000      -0.069104        -1.8804
 178   2.0000      -0.055971        -1.5230
 179   0.0000       0.029923         0.8142
 180   0.0000       0.069482         1.8907
 181   0.0000       0.092798         2.5252
 182   0.0000       0.100996         2.7482
 183   0.0000       0.124087         3.3766

MULLIKEN ATOMIC CHARGES
-----------------------
   0 C :    0.204206
   1 N :   -0.448505
   2 C :   -0.064209
   3 N :   -0.336464
   4 C :   -0.063192
   5 N :   -0.561131
   6 C :   -0.086621
   7 N :   -0.339087
   8 C :    0.202855
   9 N :   -0.562800
  10 C :    0.116848
  11 N :   -0.437305
  12 C :   -0.075126
  13 N :   -0.435588
  14 C :    0.234658
  15 N :   -0.441120
  16 C :    0.231520
  17 C :   -0.084870
  18 C :   -0.191373
  19 C :    0.222431
  20 C :    0.211597
  21 C :   -0.082852
  22 C :   -0.086933
  23 C :   -0.044952
  24 C :    0.201843
  25 C :    0.113816
  26 C :   -0.073593
  27 C :    0.216960
  28 C :   -0.055891
  29 C :   -0.182417
  30 C :    0.239735
  31 C :    0.219599
  32 C :   -0.063357
  33 C :   -0.072922
  34 C :   -0.049582
  35 C :    0.213234
  36 C :    0.111714
  37 C :   -0.065622
  38 C :    0.235414
  39 C :   -0.060593
  40 C :   -0.185272
  41 C :    0.221800
  42 C :    0.200080
  43 C :   -0.073367
  44 C :   -0.090098
  45 C :   -0.056685
  46 C :    0.206174
  47 C :    0.115690
  48 C :   -0.071900
  49 C :    0.231037
  50 C :   -0.050011
  51 C :   -0.191387
  52 H :    0.046957
  53 H :   -0.015174
  54 H :    0.047070
  55 H :    0.046321
  56 H :    0.053958
  57 H :    0.052218
  58 H :    0.051412
  59 H :   -0.006153
  60 H :    0.044804
  61 H :    0.171834
  62 H :    0.174159
  63 H :    0.057110
  64 H :   -0.013525
  65 H :    0.046926
  66 H :    0.057504
  67 H :    0.063548
  68 H :    0.058219
  69 H :    0.058415
  70 H :   -0.026296
  71 H :    0.047633
  72 H :    0.062592
  73 H :   -0.011525
  74 H :    0.052401
  75 H :    0.061695
  76 H :    0.067336
  77 H :    0.062182
  78 H :    0.061338
  79 H :   -0.014556
  80 H :    0.052798
  81 H :    0.053558
  82 H :   -0.024518
  83 H :    0.041925
  84 H :    0.053015
  85 H :    0.059326
  86 H :    0.055625
  87 H :    0.056665
  88 H :   -0.018865
  89 H :    0.045680
Sum of atomic charges:    0.0000000

LOEWDIN ATOMIC CHARGES
----------------------
   0 C :   -0.014290
   1 N :    0.124966
   2 C :   -0.100807
   3 N :    0.180664
   4 C :    0.014021
   5 N :   -0.134074
   6 C :   -0.030821
   7 N :    0.176665
   8 C :   -0.015237
   9 N :   -0.139478
  10 C :    0.026092
  11 N :    0.144935
  12 C :   -0.103746
  13 N :    0.151786
  14 C :   -0.039771
  15 N :    0.137894
  16 C :   -0.052294
  17 C :   -0.031140
  18 C :   -0.104071
  19 C :   -0.086612
  20 C :    0.003798
  21 C :   -0.107521
  22 C :    0.042549
  23 C :   -0.017699
  24 C :   -0.004683
  25 C :    0.030504
  26 C :   -0.105562
  27 C :   -0.104928
  28 C :   -0.023126
  29 C :   -0.103010
  30 C :   -0.039879
  31 C :    0.011519
  32 C :   -0.096355
  33 C :    0.057442
  34 C :   -0.017234
  35 C :    0.006125
  36 C :    0.031968
  37 C :   -0.098018
  38 C :   -0.044602
  39 C :   -0.022488
  40 C :   -0.108260
  41 C :   -0.094434
  42 C :   -0.008307
  43 C :   -0.102928
  44 C :    0.032376
  45 C :   -0.025270
  46 C :   -0.003072
  47 C :    0.029196
  48 C :   -0.101389
  49 C :   -0.081019
  50 C :   -0.021302
  51 C :   -0.109269
  52 H :    0.026280
  53 H :    0.003791
  54 H :    0.041583
  55 H :    0.026632
  56 H :    0.023963
  57 H :    0.028373
  58 H :    0.028906
  59 H :    0.006456
  60 H :    0.041301
  61 H :    0.060193
  62 H :    0.061162
  63 H :    0.031421
  64 H :    0.001428
  65 H :    0.045575
  66 H :    0.030337
  67 H :    0.028838
  68 H :    0.032078
  69 H :    0.031212
  70 H :   -0.003027
  71 H :    0.044998
  72 H :    0.033650
  73 H :    0.005419
  74 H :    0.047374
  75 H :    0.032982
  76 H :    0.030860
  77 H :    0.033447
  78 H :    0.033083
  79 H :    0.003980
  80 H :    0.046968
  81 H :    0.028841
  82 H :   -0.002449
  83 H :    0.042782
  84 H :    0.029182
  85 H :    0.026656
  86 H :    0.030170
  87 H :    0.031143
  88 H :    0.000301
  89 H :    0.044302

  Mayer bond orders larger than 0.100000
B(  0-C ,  1-N ) :   1.1000 B(  0-C , 17-C ) :   1.6716 B(  0-C , 52-H ) :   0.9689
B(  1-N ,  8-C ) :   1.0978 B(  1-N , 10-C ) :   0.9708 B(  2-C , 12-C ) :   1.5260
B(  2-C , 16-C ) :   1.3361 B(  2-C , 53-H ) :   0.9773 B(  3-N , 14-C ) :   1.2109
B(  3-N , 16-C ) :   1.1937 B(  3-N , 61-H ) :   0.8990 B(  4-C ,  6-C ) :   1.2341
B(  4-C , 17-C ) :   1.2358 B(  4-C , 18-C ) :   1.3481 B(  5-N , 19-C ) :   1.4362
B(  5-N , 27-C ) :   1.3927 B(  6-C ,  8-C ) :   1.6727 B(  6-C , 54-H ) :   0.9691
B(  7-N , 30-C ) :   1.1932 B(  7-N , 38-C ) :   1.1977 B(  7-N , 62-H ) :   0.8975
B(  8-C , 55-H ) :   0.9699 B(  9-N , 41-C ) :   1.4000 B(  9-N , 49-C ) :   1.4226
B( 10-C , 56-H ) :   0.9764 B( 10-C , 57-H ) :   0.9828 B( 10-C , 58-H ) :   0.9832
B( 11-N , 20-C ) :   1.1294 B( 11-N , 24-C ) :   1.1183 B( 11-N , 25-C ) :   0.9579
B( 12-C , 14-C ) :   1.3388 B( 12-C , 59-H ) :   0.9757 B( 13-N , 31-C ) :   1.1400
B( 13-N , 35-C ) :   1.1331 B( 13-N , 36-C ) :   0.9522 B( 14-C , 18-C ) :   1.1677
B( 15-N , 42-C ) :   1.1110 B( 15-N , 46-C ) :   1.1176 B( 15-N , 47-C ) :   0.9624
B( 16-C , 51-C ) :   1.1882 B( 17-C , 60-H ) :   0.9690 B( 18-C , 19-C ) :   1.1775
B( 19-C , 21-C ) :   1.2265 B( 20-C , 28-C ) :   1.6230 B( 20-C , 63-H ) :   0.9702
B( 21-C , 26-C ) :   1.6314 B( 21-C , 64-H ) :   0.9721 B( 22-C , 23-C ) :   1.2884
B( 22-C , 28-C ) :   1.2723 B( 22-C , 29-C ) :   1.2223 B( 23-C , 24-C ) :   1.6163
B( 23-C , 65-H ) :   0.9707 B( 24-C , 66-H ) :   0.9692 B( 25-C , 67-H ) :   0.9761
B( 25-C , 68-H ) :   0.9828 B( 25-C , 69-H ) :   0.9822 B( 26-C , 27-C ) :   1.2213
B( 26-C , 70-H ) :   0.9723 B( 27-C , 29-C ) :   1.2233 B( 28-C , 71-H ) :   0.9716
B( 29-C , 30-C ) :   1.2266 B( 30-C , 32-C ) :   1.2971 B( 31-C , 39-C ) :   1.6132
B( 31-C , 72-H ) :   0.9690 B( 32-C , 37-C ) :   1.5616 B( 32-C , 73-H ) :   0.9781
B( 33-C , 34-C ) :   1.2893 B( 33-C , 39-C ) :   1.2820 B( 33-C , 40-C ) :   1.2174
B( 34-C , 35-C ) :   1.6098 B( 34-C , 74-H ) :   0.9701 B( 35-C , 75-H ) :   0.9691
B( 36-C , 76-H ) :   0.9765 B( 36-C , 77-H ) :   0.9819 B( 36-C , 78-H ) :   0.9828
B( 37-C , 38-C ) :   1.2997 B( 37-C , 79-H ) :   0.9773 B( 38-C , 40-C ) :   1.2200
B( 39-C , 80-H ) :   0.9712 B( 40-C , 41-C ) :   1.2313 B( 41-C , 43-C ) :   1.2038
B( 42-C , 50-C ) :   1.6348 B( 42-C , 81-H ) :   0.9696 B( 43-C , 48-C ) :   1.6477
B( 43-C , 82-H ) :   0.9730 B( 44-C , 45-C ) :   1.2662 B( 44-C , 50-C ) :   1.2682
B( 44-C , 51-C ) :   1.2608 B( 45-C , 46-C ) :   1.6350 B( 45-C , 83-H ) :   0.9715
B( 46-C , 84-H ) :   0.9702 B( 47-C , 85-H ) :   0.9761 B( 47-C , 86-H ) :   0.9829
B( 47-C , 87-H ) :   0.9825 B( 48-C , 49-C ) :   1.2055 B( 48-C , 88-H ) :   0.9743
B( 49-C , 51-C ) :   1.2250 B( 50-C , 89-H ) :   0.9711

MP2 TOTAL ENERGY:    -2130.915856451 Eh
FINAL SINGLE POINT ENERGY     -2130.915856450674

DIPOLE MOMENT
-------------
                                X             Y             Z
Electronic contribution:      0.86273      -2.40455      -0.21634
Nuclear contribution   :      0.01503       0.19485       0.22797
                        -----------------------------------------
Total Dipole Moment    :      0.87776      -2.20970       0.01163
                        -----------------------------------------
Magnitude (a.u.)       :      2.37768
Magnitude (Debye)      :      6.04358

Rotational constants in cm-1:     0.001499     0.001476     0.000762
Rotational constants in MHz :    44.929922    44.236072    22.834417

                             ****ORCA TERMINATED NORMALLY****
TOTAL RUN TIME: 0 days 1 hours 29 minutes 35 seconds 501 msec
