                         Program Version 5.0.4 -  RELEASE  -
|  1> ! PAL2
|  2> ! mp2 cc-pvdz TightSCF  NoKeepInts
|  3>
|  4> %scf
|  5>   MaxCore 2000
|  6> end
|  7> %mp2
|  8>   MaxCore 2000
|  9> end
| 10> * xyz 0 1
| 11>    C       -4.88100         5.24200        -0.37900
| 12>    C        1.47400         4.04100         0.05700
| 13>    C       -2.80200         4.09300         0.04900
| 14>    C       -2.28700         5.30900         0.52500
| 15>    C       -3.07900         6.44000         0.53700
| 16>    C       -5.18800         7.61800         0.14600
| 17>    C        0.13200         4.30700         0.06100
| 18>    C       -0.56900         3.05600         0.04700
| 19>    C        1.64900         2.61800         0.02300
| 20>    C       -4.13000         4.08300        -0.40500
| 21>    N       -4.35400         6.39800         0.08600
| 22>    N        0.38800         2.06700         0.02500
| 23>    N       -2.01000         0.39500        -0.07500
| 24>    N       -0.38800        -2.07400        -0.02700
| 25>    N        2.01000        -0.40100         0.06500
| 26>    C       -1.96000         2.86100         0.02400
| 27>    C       -2.62300         1.61500        -0.01800
| 28>    C       -5.57300        -4.32900         1.06600
| 29>    C       -4.07300         1.47100         0.05600
| 30>    C       -4.10600        -2.75600        -0.02600
| 31>    C       -4.99500        -2.75700        -1.11100
| 32>    C       -6.13200        -3.54200        -1.07600
| 33>    C       -7.65100        -5.11300         0.04000
| 34>    C       -4.32400         0.14100         0.03700
| 35>    C       -3.02500        -0.52000        -0.04800
| 36>    C       -4.42200        -3.56600         1.07500
| 37>    N       -6.40700        -4.31300         0.00100
| 38>    C       -2.86700        -1.92200        -0.04000
| 39>    C       -1.65000        -2.62400        -0.02700
| 40>    C        3.56800        -6.14200        -1.04000
| 41>    C       -1.47600        -4.04900        -0.03400
| 42>    C        2.80300        -4.09900        -0.00800
| 43>    C        3.65700        -4.38400         1.06900
| 44>    C        4.42700        -5.53000         1.05900
| 45>    C        5.24500        -7.58800         0.01400
| 46>    C       -0.13400        -4.31500        -0.02200
| 47>    C        0.56800        -3.06400        -0.02700
| 48>    C        2.77500        -5.01200        -1.07400
| 49>    N        4.37600        -6.39100         0.01700
| 50>    C        1.95900        -2.86900        -0.00900
| 51>    C        2.62100        -1.62200         0.00900
| 52>    C        5.54300         4.33900        -1.13000
| 53>    C        4.07000        -1.47900        -0.09400
| 54>    C        4.10400         2.75100        -0.02100
| 55>    C        5.02700         2.72900         1.03600
| 56>    C        6.16600         3.50900         0.97800
| 57>    C        7.61900         5.15300        -0.11500
| 58>    C        4.32100        -0.14800        -0.09200
| 59>    C        3.02500         0.51400         0.01500
| 60>    C        4.38700         3.58200        -1.11500
| 61>    C        2.86600         1.91600         0.01300
| 62>    N        6.41300         4.29600        -0.09500
| 63>    H       -5.90400         5.28300        -0.73100
| 64>    H        2.27400         4.76600         0.08100
| 65>    H       -1.27300         5.37800         0.89800
| 66>    H       -2.72900         7.39700         0.90200
| 67>    H       -5.65000         7.68500         1.13400
| 68>    H       -4.55300         8.48700        -0.03000
| 69>    H       -5.95700         7.55600        -0.62300
| 70>    H       -0.33200         5.28200         0.06900
| 71>    H       -4.58000         3.17800        -0.79800
| 72>    H        0.18200         1.07200         0.00500
| 73>    H       -0.18300        -1.08000        -0.02100
| 74>    H       -5.86400        -4.96200         1.89500
| 75>    H       -4.79400         2.27200         0.13900
| 76>    H       -4.80000        -2.16000        -1.99400
| 77>    H       -6.84100        -3.58200        -1.89300
| 78>    H       -8.42800        -4.53600         0.54600
| 79>    H       -7.95600        -5.33700        -0.98100
| 80>    H       -7.45600        -6.03700         0.58400
| 81>    H       -5.28700        -0.34400         0.10000
| 82>    H       -3.78000        -3.60100         1.94700
| 83>    H        3.58700        -6.86800        -1.84300
| 84>    H       -2.27600        -4.77400        -0.05000
| 85>    H        3.71400        -3.72400         1.92600
| 86>    H        5.09200        -5.79500         1.87100
| 87>    H        6.20500        -7.32900        -0.43900
| 88>    H        5.39300        -7.91700         1.04200
| 89>    H        4.75900        -8.37300        -0.56400
| 90>    H        0.32900        -5.29000        -0.00800
| 91>    H        2.14600        -4.84200        -1.94000
| 92>    H        5.80800         4.98600        -1.95600
| 93>    H        4.78800        -2.28100        -0.18500
| 94>    H        4.86000         2.11400         1.91200
| 95>    H        6.90100         3.53100         1.77200
| 96>    H        7.38300         6.10900         0.35600
| 97>    H        8.41400         4.65200         0.43500
| 98>    H        7.92100         5.31000        -1.15000
| 99>    H        5.28300         0.33600        -0.17900
|100>    H        3.72000         3.63200        -1.96700
|101> *
|102>
|103>                          ****END OF INPUT****

CARTESIAN COORDINATES (ANGSTROEM)
---------------------------------
  C     -4.881000    5.242000   -0.379000
  C      1.474000    4.041000    0.057000
  C     -2.802000    4.093000    0.049000
  C     -2.287000    5.309000    0.525000
  C     -3.079000    6.440000    0.537000
  C     -5.188000    7.618000    0.146000
  C      0.132000    4.307000    0.061000
  C     -0.569000    3.056000    0.047000
  C      1.649000    2.618000    0.023000
  C     -4.130000    4.083000   -0.405000
  N     -4.354000    6.398000    0.086000
  N      0.388000    2.067000    0.025000
  N     -2.010000    0.395000   -0.075000
  N     -0.388000   -2.074000   -0.027000
  N      2.010000   -0.401000    0.065000
  C     -1.960000    2.861000    0.024000
  C     -2.623000    1.615000   -0.018000
  C     -5.573000   -4.329000    1.066000
  C     -4.073000    1.471000    0.056000
  C     -4.106000   -2.756000   -0.026000
  C     -4.995000   -2.757000   -1.111000
  C     -6.132000   -3.542000   -1.076000
  C     -7.651000   -5.113000    0.040000
  C     -4.324000    0.141000    0.037000
  C     -3.025000   -0.520000   -0.048000
  C     -4.422000   -3.566000    1.075000
  N     -6.407000   -4.313000    0.001000
  C     -2.867000   -1.922000   -0.040000
  C     -1.650000   -2.624000   -0.027000
  C      3.568000   -6.142000   -1.040000
  C     -1.476000   -4.049000   -0.034000
  C      2.803000   -4.099000   -0.008000
  C      3.657000   -4.384000    1.069000
  C      4.427000   -5.530000    1.059000
  C      5.245000   -7.588000    0.014000
  C     -0.134000   -4.315000   -0.022000
  C      0.568000   -3.064000   -0.027000
  C      2.775000   -5.012000   -1.074000
  N      4.376000   -6.391000    0.017000
  C      1.959000   -2.869000   -0.009000
  C      2.621000   -1.622000    0.009000
  C      5.543000    4.339000   -1.130000
  C      4.070000   -1.479000   -0.094000
  C      4.104000    2.751000   -0.021000
  C      5.027000    2.729000    1.036000
  C      6.166000    3.509000    0.978000
  C      7.619000    5.153000   -0.115000
  C      4.321000   -0.148000   -0.092000
  C      3.025000    0.514000    0.015000
  C      4.387000    3.582000   -1.115000
  C      2.866000    1.916000    0.013000
  N      6.413000    4.296000   -0.095000
  H     -5.904000    5.283000   -0.731000
  H      2.274000    4.766000    0.081000
  H     -1.273000    5.378000    0.898000
  H     -2.729000    7.397000    0.902000
  H     -5.650000    7.685000    1.134000
  H     -4.553000    8.487000   -0.030000
  H     -5.957000    7.556000   -0.623000
  H     -0.332000    5.282000    0.069000
  H     -4.580000    3.178000   -0.798000
  H      0.182000    1.072000    0.005000
  H     -0.183000   -1.080000   -0.021000
  H     -5.864000   -4.962000    1.895000
  H     -4.794000    2.272000    0.139000
  H     -4.800000   -2.160000   -1.994000
  H     -6.841000   -3.582000   -1.893000
  H     -8.428000   -4.536000    0.546000
  H     -7.956000   -5.337000   -0.981000
  H     -7.456000   -6.037000    0.584000
  H     -5.287000   -0.344000    0.100000
  H     -3.780000   -3.601000    1.947000
  H      3.587000   -6.868000   -1.843000
  H     -2.276000   -4.774000   -0.050000
  H      3.714000   -3.724000    1.926000
  H      5.092000   -5.795000    1.871000
  H      6.205000   -7.329000   -0.439000
  H      5.393000   -7.917000    1.042000
  H      4.759000   -8.373000   -0.564000
  H      0.329000   -5.290000   -0.008000
  H      2.146000   -4.842000   -1.940000
  H      5.808000    4.986000   -1.956000
  H      4.788000   -2.281000   -0.185000
  H      4.860000    2.114000    1.912000
  H      6.901000    3.531000    1.772000
  H      7.383000    6.109000    0.356000
  H      8.414000    4.652000    0.435000
  H      7.921000    5.310000   -1.150000
  H      5.283000    0.336000   -0.179000
  H      3.720000    3.632000   -1.967000

 Total Charge           Charge          ....    0
 Multiplicity           Mult            ....    1
 Number of Electrons    NEL             ....  358
 Basis Dimension        Dim             ....  918

ORBITAL ENERGIES
----------------

  NO   OCC          E(Eh)            E(eV)
   0   2.0000     -15.677603      -426.6093
   1   2.0000     -15.636448      -425.4894
   2   2.0000     -15.629490      -425.3000
   3   2.0000     -15.587756      -424.1644
   4   2.0000     -15.525662      -422.4747
   5   2.0000     -15.515622      -422.2015
   6   2.0000     -15.452891      -420.4945
   7   2.0000     -15.441601      -420.1873
   8   2.0000     -11.327942      -308.2490
   9   2.0000     -11.326580      -308.2119
  10   2.0000     -11.326158      -308.2004
  11   2.0000     -11.300868      -307.5122
  12   2.0000     -11.296889      -307.4040
  13   2.0000     -11.294950      -307.3512
  14   2.0000     -11.289085      -307.1916
  15   2.0000     -11.288925      -307.1873
  16   2.0000     -11.284672      -307.0715
  17   2.0000     -11.280022      -306.9450
  18   2.0000     -11.270647      -306.6899
  19   2.0000     -11.261875      -306.4512
  20   2.0000     -11.260910      -306.4249
  21   2.0000     -11.252687      -306.2012
  22   2.0000     -11.251050      -306.1566
  23   2.0000     -11.240149      -305.8600
  24   2.0000     -11.234345      -305.7021
  25   2.0000     -11.233061      -305.6671
  26   2.0000     -11.232446      -305.6504
  27   2.0000     -11.228013      -305.5298
  28   2.0000     -11.227686      -305.5209
  29   2.0000     -11.211678      -305.0853
  30   2.0000     -11.210169      -305.0442
  31   2.0000     -11.195837      -304.6542
  32   2.0000     -11.190707      -304.5146
  33   2.0000     -11.189736      -304.4882
  34   2.0000     -11.188245      -304.4476
  35   2.0000     -11.186604      -304.4030
  36   2.0000     -11.185374      -304.3695
  37   2.0000     -11.184331      -304.3411
  38   2.0000     -11.184032      -304.3330
  39   2.0000     -11.174792      -304.0816
  40   2.0000     -11.174115      -304.0631
  41   2.0000     -11.169372      -303.9341
  42   2.0000     -11.169073      -303.9259
  43   2.0000     -11.160644      -303.6966
  44   2.0000     -11.160155      -303.6833
  45   2.0000     -11.158477      -303.6376
  46   2.0000     -11.155782      -303.5643
  47   2.0000     -11.154730      -303.5356
  48   2.0000     -11.146230      -303.3043
  49   2.0000     -11.136429      -303.0376
  50   2.0000     -11.131680      -302.9084
  51   2.0000     -11.120856      -302.6139
  52   2.0000      -1.358519       -36.9672
  53   2.0000      -1.323367       -36.0107
  54   2.0000      -1.317601       -35.8538
  55   2.0000      -1.281638       -34.8751
  56   2.0000      -1.226693       -33.3800
  57   2.0000      -1.209934       -32.9240
  58   2.0000      -1.172145       -31.8957
  59   2.0000      -1.151943       -31.3460
  60   2.0000      -1.142086       -31.0777
  61   2.0000      -1.111980       -30.2585
  62   2.0000      -1.107354       -30.1326
  63   2.0000      -1.080358       -29.3980
  64   2.0000      -1.078088       -29.3363
  65   2.0000      -1.047476       -28.5033
  66   2.0000      -1.042355       -28.3639
  67   2.0000      -1.040186       -28.3049
  68   2.0000      -1.015321       -27.6283
  69   2.0000      -1.011964       -27.5369
  70   2.0000      -1.008824       -27.4515
  71   2.0000      -0.994024       -27.0488
  72   2.0000      -0.985900       -26.8277
  73   2.0000      -0.981335       -26.7035
  74   2.0000      -0.971975       -26.4488
  75   2.0000      -0.960947       -26.1487
  76   2.0000      -0.953647       -25.9500
  77   2.0000      -0.945699       -25.7338
  78   2.0000      -0.935103       -25.4454
  79   2.0000      -0.917945       -24.9786
  80   2.0000      -0.908958       -24.7340
  81   2.0000      -0.895185       -24.3592
  82   2.0000      -0.875790       -23.8315
  83   2.0000      -0.873589       -23.7716
  84   2.0000      -0.868619       -23.6363
  85   2.0000      -0.857389       -23.3307
  86   2.0000      -0.839074       -22.8324
  87   2.0000      -0.836557       -22.7639
  88   2.0000      -0.824884       -22.4462
  89   2.0000      -0.797282       -21.6951
  90   2.0000      -0.790054       -21.4985
  91   2.0000      -0.752859       -20.4863
  92   2.0000      -0.746802       -20.3215
  93   2.0000      -0.733847       -19.9690
  94   2.0000      -0.725308       -19.7366
  95   2.0000      -0.722630       -19.6638
  96   2.0000      -0.716945       -19.5091
  97   2.0000      -0.713799       -19.4235
  98   2.0000      -0.708269       -19.2730
  99   2.0000      -0.697917       -18.9913
 100   2.0000      -0.696293       -18.9471
 101   2.0000      -0.685324       -18.6486
 102   2.0000      -0.682812       -18.5803
 103   2.0000      -0.680243       -18.5104
 104   2.0000      -0.679547       -18.4914
 105   2.0000      -0.672897       -18.3104
 106   2.0000      -0.670727       -18.2514
 107   2.0000      -0.660859       -17.9829
 108   2.0000      -0.655548       -17.8384
 109   2.0000      -0.654495       -17.8097
 110   2.0000      -0.649911       -17.6850
 111   2.0000      -0.644568       -17.5396
 112   2.0000      -0.644022       -17.5247
 113   2.0000      -0.638571       -17.3764
 114   2.0000      -0.636919       -17.3315
 115   2.0000      -0.626962       -17.0605
 116   2.0000      -0.622078       -16.9276
 117   2.0000      -0.619284       -16.8516
 118   2.0000      -0.614362       -16.7176
 119   2.0000      -0.613301       -16.6888
 120   2.0000      -0.610108       -16.6019
 121   2.0000      -0.609581       -16.5875
 122   2.0000      -0.599543       -16.3144
 123   2.0000      -0.586664       -15.9639
 124   2.0000      -0.582980       -15.8637
 125   2.0000      -0.580499       -15.7962
 126   2.0000      -0.578893       -15.7525
 127   2.0000      -0.573501       -15.6058
 128   2.0000      -0.568952       -15.4820
 129   2.0000      -0.559195       -15.2165
 130   2.0000      -0.551513       -15.0074
 131   2.0000      -0.547708       -14.9039
 132   2.0000      -0.543296       -14.7838
 133   2.0000      -0.542337       -14.7578
 134   2.0000      -0.539614       -14.6836
 135   2.0000      -0.534643       -14.5484
 136   2.0000      -0.528857       -14.3909
 137   2.0000      -0.520223       -14.1560
 138   2.0000      -0.518437       -14.1074
 139   2.0000      -0.514249       -13.9934
 140   2.0000      -0.511750       -13.9254
 141   2.0000      -0.510724       -13.8975
 142   2.0000      -0.510176       -13.8826
 143   2.0000      -0.504202       -13.7200
 144   2.0000      -0.500445       -13.6178
 145   2.0000      -0.495836       -13.4924
 146   2.0000      -0.492563       -13.4033
 147   2.0000      -0.482357       -13.1256
 148   2.0000      -0.477761       -13.0005
 149   2.0000      -0.467194       -12.7130
 150   2.0000      -0.466066       -12.6823
 151   2.0000      -0.457019       -12.4361
 152   2.0000      -0.450581       -12.2609
 153   2.0000      -0.445770       -12.1300
 154   2.0000      -0.440630       -11.9901
 155   2.0000      -0.427946       -11.6450
 156   2.0000      -0.419022       -11.4022
 157   2.0000      -0.411085       -11.1862
 158   2.0000      -0.407560       -11.0903
 159   2.0000      -0.387309       -10.5392
 160   2.0000      -0.386202       -10.5091
 161   2.0000      -0.378041       -10.2870
 162   2.0000      -0.371387       -10.1060
 163   2.0000      -0.358383        -9.7521
 164   2.0000      -0.354255        -9.6398
 165   2.0000      -0.340834        -9.2746
 166   2.0000      -0.337880        -9.1942
 167   2.0000      -0.326237        -8.8773
 168   2.0000      -0.321616        -8.7516
 169   2.0000      -0.305847        -8.3225
 170   2.0000      -0.299340        -8.1455
 171   2.0000      -0.285117        -7.7584
 172   2.0000      -0.280073        -7.6212
 173   2.0000      -0.262741        -7.1496
 174   2.0000      -0.242322        -6.5939
 175   2.0000      -0.190122        -5.1735
 176   2.0000      -0.180704        -4.9172
 177   2.0000      -0.078192        -2.1277
 178   2.0000      -0.059113        -1.6086
 179   0.0000       0.028187         0.7670
 180   0.0000       0.065453         1.7811
 181   0.0000       0.090798         2.4707
 182   0.0000       0.107592         2.9277
 183   0.0000       0.112709         3.0670

MULLIKEN ATOMIC CHARGES
-----------------------
   0 C :    0.210772
   1 N :   -0.456477
   2 C :   -0.073005
   3 N :   -0.338986
   4 C :   -0.057622
   5 N :   -0.564347
   6 C :   -0.123338
   7 N :   -0.340703
   8 C :    0.212880
   9 N :   -0.562594
  10 C :    0.118923
  11 N :   -0.437968
  12 C :   -0.071757
  13 N :   -0.429862
  14 C :    0.215175
  15 N :   -0.441438
  16 C :    0.231530
  17 C :   -0.120480
  18 C :   -0.155814
  19 C :    0.203426
  20 C :    0.214480
  21 C :   -0.085817
  22 C :   -0.089119
  23 C :   -0.040099
  24 C :    0.195098
  25 C :    0.114277
  26 C :   -0.084056
  27 C :    0.212875
  28 C :   -0.061083
  29 C :   -0.181877
  30 C :    0.245588
  31 C :    0.230300
  32 C :   -0.061304
  33 C :   -0.061403
  34 C :   -0.050082
  35 C :    0.226285
  36 C :    0.108514
  37 C :   -0.064339
  38 C :    0.232292
  39 C :   -0.058711
  40 C :   -0.180976
  41 C :    0.224541
  42 C :    0.196983
  43 C :   -0.072682
  44 C :   -0.090863
  45 C :   -0.061286
  46 C :    0.210127
  47 C :    0.115633
  48 C :   -0.067523
  49 C :    0.237948
  50 C :   -0.046576
  51 C :   -0.194895
  52 H :    0.037628
  53 H :   -0.017513
  54 H :    0.049554
  55 H :    0.036370
  56 H :    0.048978
  57 H :    0.047636
  58 H :    0.046520
  59 H :   -0.000662
  60 H :    0.052911
  61 H :    0.170952
  62 H :    0.175667
  63 H :    0.056190
  64 H :   -0.005933
  65 H :    0.047138
  66 H :    0.056317
  67 H :    0.063210
  68 H :    0.057634
  69 H :    0.056961
  70 H :   -0.029273
  71 H :    0.045767
  72 H :    0.070778
  73 H :   -0.008053
  74 H :    0.059939
  75 H :    0.070090
  76 H :    0.074488
  77 H :    0.067616
  78 H :    0.066804
  79 H :   -0.016043
  80 H :    0.060632
  81 H :    0.053847
  82 H :   -0.025256
  83 H :    0.041097
  84 H :    0.053358
  85 H :    0.060188
  86 H :    0.055087
  87 H :    0.056834
  88 H :   -0.014705
  89 H :    0.046681
Sum of atomic charges:   -0.0000000

LOEWDIN ATOMIC CHARGES
----------------------
   0 C :   -0.024235
   1 N :    0.116922
   2 C :   -0.102706
   3 N :    0.183329
   4 C :   -0.012983
   5 N :   -0.131465
   6 C :   -0.043836
   7 N :    0.175321
   8 C :   -0.020089
   9 N :   -0.140609
  10 C :    0.022998
  11 N :    0.143162
  12 C :   -0.115715
  13 N :    0.165223
  14 C :   -0.025515
  15 N :    0.137668
  16 C :   -0.058562
  17 C :   -0.042344
  18 C :   -0.104065
  19 C :   -0.080337
  20 C :    0.005796
  21 C :   -0.122566
  22 C :    0.038854
  23 C :   -0.014665
  24 C :   -0.011051
  25 C :    0.030111
  26 C :   -0.109057
  27 C :   -0.116730
  28 C :   -0.026774
  29 C :   -0.098653
  30 C :   -0.031246
  31 C :    0.024182
  32 C :   -0.093509
  33 C :    0.080123
  34 C :   -0.014669
  35 C :    0.020952
  36 C :    0.035007
  37 C :   -0.094283
  38 C :   -0.050152
  39 C :   -0.018437
  40 C :   -0.108164
  41 C :   -0.093253
  42 C :   -0.010977
  43 C :   -0.099793
  44 C :    0.031671
  45 C :   -0.028444
  46 C :    0.000355
  47 C :    0.029246
  48 C :   -0.095953
  49 C :   -0.069747
  50 C :   -0.019128
  51 C :   -0.110128
  52 H :    0.022768
  53 H :    0.002646
  54 H :    0.033690
  55 H :    0.022948
  56 H :    0.021609
  57 H :    0.026373
  58 H :    0.026615
  59 H :    0.011716
  60 H :    0.037937
  61 H :    0.060011
  62 H :    0.061941
  63 H :    0.031147
  64 H :    0.008580
  65 H :    0.045896
  66 H :    0.029576
  67 H :    0.028611
  68 H :    0.031813
  69 H :    0.030578
  70 H :   -0.004457
  71 H :    0.043913
  72 H :    0.037495
  73 H :    0.007101
  74 H :    0.050545
  75 H :    0.037028
  76 H :    0.034568
  77 H :    0.036005
  78 H :    0.035646
  79 H :    0.003221
  80 H :    0.050404
  81 H :    0.028850
  82 H :   -0.002923
  83 H :    0.042163
  84 H :    0.029484
  85 H :    0.027043
  86 H :    0.029961
  87 H :    0.031229
  88 H :    0.002284
  89 H :    0.044903

  Mayer bond orders larger than 0.100000
B(  0-C ,  1-N ) :   1.0875 B(  0-C , 17-C ) :   1.7156 B(  0-C , 52-H ) :   0.9649
B(  1-N ,  8-C ) :   1.0928 B(  1-N , 10-C ) :   0.9787 B(  2-C , 12-C ) :   1.4969
B(  2-C , 16-C ) :   1.3639 B(  2-C , 53-H ) :   0.9749 B(  3-N , 14-C ) :   1.2193
B(  3-N , 16-C ) :   1.1879 B(  3-N , 61-H ) :   0.8993 B(  4-C ,  6-C ) :   1.2112
B(  4-C , 17-C ) :   1.2118 B(  4-C , 18-C ) :   1.4554 B(  5-N , 19-C ) :   1.4550
B(  5-N , 27-C ) :   1.3761 B(  6-C ,  8-C ) :   1.7127 B(  6-C , 54-H ) :   0.9383
B(  7-N , 30-C ) :   1.1943 B(  7-N , 38-C ) :   1.1911 B(  7-N , 62-H ) :   0.8966
B(  8-C , 55-H ) :   0.9659 B(  9-N , 41-C ) :   1.3923 B(  9-N , 49-C ) :   1.4279
B( 10-C , 56-H ) :   0.9771 B( 10-C , 57-H ) :   0.9832 B( 10-C , 58-H ) :   0.9834
B( 11-N , 20-C ) :   1.1324 B( 11-N , 24-C ) :   1.1092 B( 11-N , 25-C ) :   0.9592
B( 12-C , 14-C ) :   1.3584 B( 12-C , 59-H ) :   0.9653 B( 13-N , 31-C ) :   1.1610
B( 13-N , 35-C ) :   1.1569 B( 13-N , 36-C ) :   0.9422 B( 14-C , 18-C ) :   1.1220
B( 15-N , 42-C ) :   1.1066 B( 15-N , 46-C ) :   1.1222 B( 15-N , 47-C ) :   0.9621
B( 16-C , 51-C ) :   1.1686 B( 17-C , 60-H ) :   0.9405 B( 18-C , 19-C ) :   1.1237
B( 19-C , 21-C ) :   1.2487 B( 20-C , 28-C ) :   1.6265 B( 20-C , 63-H ) :   0.9702
B( 21-C , 26-C ) :   1.6002 B( 21-C , 64-H ) :   0.9652 B( 22-C , 23-C ) :   1.2910
B( 22-C , 28-C ) :   1.2661 B( 22-C , 29-C ) :   1.2217 B( 23-C , 24-C ) :   1.6179
B( 23-C , 65-H ) :   0.9704 B( 24-C , 66-H ) :   0.9695 B( 25-C , 67-H ) :   0.9760
B( 25-C , 68-H ) :   0.9828 B( 25-C , 69-H ) :   0.9823 B( 26-C , 27-C ) :   1.2466
B( 26-C , 70-H ) :   0.9691 B( 27-C , 29-C ) :   1.2102 B( 28-C , 71-H ) :   0.9719
B( 29-C , 30-C ) :   1.2460 B( 30-C , 32-C ) :   1.2789 B( 31-C , 39-C ) :   1.5899
B( 31-C , 72-H ) :   0.9682 B( 32-C , 37-C ) :   1.5804 B( 32-C , 73-H ) :   0.9785
B( 33-C , 34-C ) :   1.3070 B( 33-C , 39-C ) :   1.3016 B( 33-C , 40-C ) :   1.1778
B( 34-C , 35-C ) :   1.5866 B( 34-C , 74-H ) :   0.9696 B( 35-C , 75-H ) :   0.9682
B( 36-C , 76-H ) :   0.9767 B( 36-C , 77-H ) :   0.9816 B( 36-C , 78-H ) :   0.9824
B( 37-C , 38-C ) :   1.2839 B( 37-C , 79-H ) :   0.9766 B( 38-C , 40-C ) :   1.2344
B( 39-C , 80-H ) :   0.9706 B( 40-C , 41-C ) :   1.2492 B( 41-C , 43-C ) :   1.1874
B( 42-C , 50-C ) :   1.6355 B( 42-C , 81-H ) :   0.9697 B( 43-C , 48-C ) :   1.6649
B( 43-C , 82-H ) :   0.9721 B( 44-C , 45-C ) :   1.2620 B( 44-C , 50-C ) :   1.2700
B( 44-C , 51-C ) :   1.2651 B( 45-C , 46-C ) :   1.6367 B( 45-C , 83-H ) :   0.9718
B( 46-C , 84-H ) :   0.9701 B( 47-C , 85-H ) :   0.9762 B( 47-C , 86-H ) :   0.9829
B( 47-C , 87-H ) :   0.9825 B( 48-C , 49-C ) :   1.1909 B( 48-C , 88-H ) :   0.9749
B( 49-C , 51-C ) :   1.2402 B( 50-C , 89-H ) :   0.9709

MP2 TOTAL ENERGY:    -2130.863950401 Eh
FINAL SINGLE POINT ENERGY     -2130.863950400946

DIPOLE MOMENT
-------------
                                X             Y             Z
Electronic contribution:      2.45004      -4.34387      -0.22185
Nuclear contribution   :      0.04495       0.21506       0.21832
                        -----------------------------------------
Total Dipole Moment    :      2.49499      -4.12881      -0.00353
                        -----------------------------------------
Magnitude (a.u.)       :      4.82411
Magnitude (Debye)      :     12.26192

Rotational constants in cm-1:     0.001501     0.001479     0.000760
Rotational constants in MHz :    44.990282    44.332496    22.793447

                             ****ORCA TERMINATED NORMALLY****
TOTAL RUN TIME: 0 days 1 hours 25 minutes 38 seconds 556 msec
