                         Program Version 5.0.4 -  RELEASE  -
|  1> ! PAL2
|  2> ! mp2 cc-pvdz TightSCF  NoKeepInts
|  3>
|  4> %scf
|  5>   MaxCore 2000
|  6> end
|  7> %mp2
|  8>   MaxCore 2000
|  9> end
| 10> * xyz 0 1
| 11>    C       -3.42100         6.21100         1.02600
| 12>    C        1.47400         4.04100         0.05700
| 13>    C       -2.80200         4.09300         0.04900
| 14>    C       -3.81300         4.29500        -0.90300
| 15>    C       -4.58600         5.43800        -0.86200
| 16>    C       -5.20700         7.60600         0.08800
| 17>    C        0.13200         4.30700         0.06100
| 18>    C       -0.56900         3.05600         0.04700
| 19>    C        1.64900         2.61800         0.02300
| 20>    C       -2.61800         5.08700         1.02300
| 21>    N       -4.38800         6.37500         0.09400
| 22>    N        0.38800         2.06700         0.02500
| 23>    N       -2.01000         0.39500        -0.07500
| 24>    N       -0.38800        -2.07400        -0.02700
| 25>    N        2.01000        -0.40100         0.06500
| 26>    C       -1.96000         2.86100         0.02400
| 27>    C       -2.62300         1.61500        -0.01800
| 28>    C       -5.57300        -4.32900         1.06600
| 29>    C       -4.07300         1.47100         0.05600
| 30>    C       -4.10600        -2.75600        -0.02600
| 31>    C       -4.99500        -2.75700        -1.11100
| 32>    C       -6.13200        -3.54200        -1.07600
| 33>    C       -7.65100        -5.11300         0.04000
| 34>    C       -4.32400         0.14100         0.03700
| 35>    C       -3.02500        -0.52000        -0.04800
| 36>    C       -4.42200        -3.56600         1.07500
| 37>    N       -6.40700        -4.31300         0.00100
| 38>    C       -2.86700        -1.92200        -0.04000
| 39>    C       -1.65000        -2.62400        -0.02700
| 40>    C        3.56800        -6.14200        -1.04000
| 41>    C       -1.47600        -4.04900        -0.03400
| 42>    C        2.80300        -4.09900        -0.00800
| 43>    C        3.65700        -4.38400         1.06900
| 44>    C        4.42700        -5.53000         1.05900
| 45>    C        5.24500        -7.58800         0.01400
| 46>    C       -0.13400        -4.31500        -0.02200
| 47>    C        0.56800        -3.06400        -0.02700
| 48>    C        2.77500        -5.01200        -1.07400
| 49>    N        4.37600        -6.39100         0.01700
| 50>    C        1.95900        -2.86900        -0.00900
| 51>    C        2.62100        -1.62200         0.00900
| 52>    C        5.54300         4.33900        -1.13000
| 53>    C        4.07000        -1.47900        -0.09400
| 54>    C        4.10400         2.75100        -0.02100
| 55>    C        5.02700         2.72900         1.03600
| 56>    C        6.16600         3.50900         0.97800
| 57>    C        7.61900         5.15300        -0.11500
| 58>    C        4.32100        -0.14800        -0.09200
| 59>    C        3.02500         0.51400         0.01500
| 60>    C        4.38700         3.58200        -1.11500
| 61>    C        2.86600         1.91600         0.01300
| 62>    N        6.41300         4.29600        -0.09500
| 63>    H       -3.32300         6.99700         1.76500
| 64>    H        2.27400         4.76600         0.08100
| 65>    H       -3.99700         3.56800        -1.68500
| 66>    H       -5.37100         5.64100        -1.57900
| 67>    H       -4.74500         8.33800        -0.57800
| 68>    H       -6.20900         7.36000        -0.26400
| 69>    H       -5.25500         8.00100         1.10300
| 70>    H       -0.33200         5.28200         0.06900
| 71>    H       -1.86300         4.98300         1.79400
| 72>    H        0.18200         1.07200         0.00500
| 73>    H       -0.18300        -1.08000        -0.02100
| 74>    H       -5.86400        -4.96200         1.89500
| 75>    H       -4.79400         2.27200         0.13900
| 76>    H       -4.80000        -2.16000        -1.99400
| 77>    H       -6.84100        -3.58200        -1.89300
| 78>    H       -8.42800        -4.53600         0.54600
| 79>    H       -7.95600        -5.33700        -0.98100
| 80>    H       -7.45600        -6.03700         0.58400
| 81>    H       -5.28700        -0.34400         0.10000
| 82>    H       -3.78000        -3.60100         1.94700
| 83>    H        3.58700        -6.86800        -1.84300
| 84>    H       -2.27600        -4.77400        -0.05000
| 85>    H        3.71400        -3.72400         1.92600
| 86>    H        5.09200        -5.79500         1.87100
| 87>    H        6.20500        -7.32900        -0.43900
| 88>    H        5.39300        -7.91700         1.04200
| 89>    H        4.75900        -8.37300        -0.56400
| 90>    H        0.32900        -5.29000        -0.00800
| 91>    H        2.14600        -4.84200        -1.94000
| 92>    H        5.80800         4.98600        -1.95600
| 93>    H        4.78800        -2.28100        -0.18500
| 94>    H        4.86000         2.11400         1.91200
| 95>    H        6.90100         3.53100         1.77200
| 96>    H        7.38300         6.10900         0.35600
| 97>    H        8.41400         4.65200         0.43500
| 98>    H        7.92100         5.31000        -1.15000
| 99>    H        5.28300         0.33600        -0.17900
|100>    H        3.72000         3.63200        -1.96700
|101> *
|102>
|103>                          ****END OF INPUT****

CARTESIAN COORDINATES (ANGSTROEM)
---------------------------------
  C     -3.421000    6.211000    1.026000
  C      1.474000    4.041000    0.057000
  C     -2.802000    4.093000    0.049000
  C     -3.813000    4.295000   -0.903000
  C     -4.586000    5.438000   -0.862000
  C     -5.207000    7.606000    0.088000
  C      0.132000    4.307000    0.061000
  C     -0.569000    3.056000    0.047000
  C      1.649000    2.618000    0.023000
  C     -2.618000    5.087000    1.023000
  N     -4.388000    6.375000    0.094000
  N      0.388000    2.067000    0.025000
  N     -2.010000    0.395000   -0.075000
  N     -0.388000   -2.074000   -0.027000
  N      2.010000   -0.401000    0.065000
  C     -1.960000    2.861000    0.024000
  C     -2.623000    1.615000   -0.018000
  C     -5.573000   -4.329000    1.066000
  C     -4.073000    1.471000    0.056000
  C     -4.106000   -2.756000   -0.026000
  C     -4.995000   -2.757000   -1.111000
  C     -6.132000   -3.542000   -1.076000
  C     -7.651000   -5.113000    0.040000
  C     -4.324000    0.141000    0.037000
  C     -3.025000   -0.520000   -0.048000
  C     -4.422000   -3.566000    1.075000
  N     -6.407000   -4.313000    0.001000
  C     -2.867000   -1.922000   -0.040000
  C     -1.650000   -2.624000   -0.027000
  C      3.568000   -6.142000   -1.040000
  C     -1.476000   -4.049000   -0.034000
  C      2.803000   -4.099000   -0.008000
  C      3.657000   -4.384000    1.069000
  C      4.427000   -5.530000    1.059000
  C      5.245000   -7.588000    0.014000
  C     -0.134000   -4.315000   -0.022000
  C      0.568000   -3.064000   -0.027000
  C      2.775000   -5.012000   -1.074000
  N      4.376000   -6.391000    0.017000
  C      1.959000   -2.869000   -0.009000
  C      2.621000   -1.622000    0.009000
  C      5.543000    4.339000   -1.130000
  C      4.070000   -1.479000   -0.094000
  C      4.104000    2.751000   -0.021000
  C      5.027000    2.729000    1.036000
  C      6.166000    3.509000    0.978000
  C      7.619000    5.153000   -0.115000
  C      4.321000   -0.148000   -0.092000
  C      3.025000    0.514000    0.015000
  C      4.387000    3.582000   -1.115000
  C      2.866000    1.916000    0.013000
  N      6.413000    4.296000   -0.095000
  H     -3.323000    6.997000    1.765000
  H      2.274000    4.766000    0.081000
  H     -3.997000    3.568000   -1.685000
  H     -5.371000    5.641000   -1.579000
  H     -4.745000    8.338000   -0.578000
  H     -6.209000    7.360000   -0.264000
  H     -5.255000    8.001000    1.103000
  H     -0.332000    5.282000    0.069000
  H     -1.863000    4.983000    1.794000
  H      0.182000    1.072000    0.005000
  H     -0.183000   -1.080000   -0.021000
  H     -5.864000   -4.962000    1.895000
  H     -4.794000    2.272000    0.139000
  H     -4.800000   -2.160000   -1.994000
  H     -6.841000   -3.582000   -1.893000
  H     -8.428000   -4.536000    0.546000
  H     -7.956000   -5.337000   -0.981000
  H     -7.456000   -6.037000    0.584000
  H     -5.287000   -0.344000    0.100000
  H     -3.780000   -3.601000    1.947000
  H      3.587000   -6.868000   -1.843000
  H     -2.276000   -4.774000   -0.050000
  H      3.714000   -3.724000    1.926000
  H      5.092000   -5.795000    1.871000
  H      6.205000   -7.329000   -0.439000
  H      5.393000   -7.917000    1.042000
  H      4.759000   -8.373000   -0.564000
  H      0.329000   -5.290000   -0.008000
  H      2.146000   -4.842000   -1.940000
  H      5.808000    4.986000   -1.956000
  H      4.788000   -2.281000   -0.185000
  H      4.860000    2.114000    1.912000
  H      6.901000    3.531000    1.772000
  H      7.383000    6.109000    0.356000
  H      8.414000    4.652000    0.435000
  H      7.921000    5.310000   -1.150000
  H      5.283000    0.336000   -0.179000
  H      3.720000    3.632000   -1.967000

 Total Charge           Charge          ....    0
 Multiplicity           Mult            ....    1
 Number of Electrons    NEL             ....  358
 Basis Dimension        Dim             ....  918

ORBITAL ENERGIES
----------------

  NO   OCC          E(Eh)            E(eV)
   0   2.0000     -15.651014      -425.8857
   1   2.0000     -15.639327      -425.5677
   2   2.0000     -15.628691      -425.2783
   3   2.0000     -15.610836      -424.7924
   4   2.0000     -15.521271      -422.3552
   5   2.0000     -15.515559      -422.1998
   6   2.0000     -15.446698      -420.3260
   7   2.0000     -15.443844      -420.2484
   8   2.0000     -11.310087      -307.7631
   9   2.0000     -11.305930      -307.6500
  10   2.0000     -11.303394      -307.5810
  11   2.0000     -11.302584      -307.5589
  12   2.0000     -11.296085      -307.3821
  13   2.0000     -11.295653      -307.3703
  14   2.0000     -11.293072      -307.3001
  15   2.0000     -11.286674      -307.1260
  16   2.0000     -11.285726      -307.1002
  17   2.0000     -11.284917      -307.0782
  18   2.0000     -11.273094      -306.7565
  19   2.0000     -11.271454      -306.7119
  20   2.0000     -11.254852      -306.2601
  21   2.0000     -11.242940      -305.9359
  22   2.0000     -11.242759      -305.9310
  23   2.0000     -11.242046      -305.9116
  24   2.0000     -11.234750      -305.7131
  25   2.0000     -11.234155      -305.6969
  26   2.0000     -11.233176      -305.6702
  27   2.0000     -11.226835      -305.4977
  28   2.0000     -11.226669      -305.4932
  29   2.0000     -11.219163      -305.2890
  30   2.0000     -11.213894      -305.1456
  31   2.0000     -11.213431      -305.1330
  32   2.0000     -11.204253      -304.8832
  33   2.0000     -11.203459      -304.8616
  34   2.0000     -11.192209      -304.5555
  35   2.0000     -11.191838      -304.5454
  36   2.0000     -11.177943      -304.1673
  37   2.0000     -11.175692      -304.1060
  38   2.0000     -11.175465      -304.0999
  39   2.0000     -11.173291      -304.0407
  40   2.0000     -11.167409      -303.8806
  41   2.0000     -11.167199      -303.8749
  42   2.0000     -11.166724      -303.8620
  43   2.0000     -11.164554      -303.8030
  44   2.0000     -11.163727      -303.7804
  45   2.0000     -11.162738      -303.7535
  46   2.0000     -11.150812      -303.4290
  47   2.0000     -11.148078      -303.3546
  48   2.0000     -11.148069      -303.3544
  49   2.0000     -11.145120      -303.2741
  50   2.0000     -11.139374      -303.1178
  51   2.0000     -11.135551      -303.0137
  52   2.0000      -1.335832       -36.3498
  53   2.0000      -1.325779       -36.0763
  54   2.0000      -1.316657       -35.8280
  55   2.0000      -1.302315       -35.4378
  56   2.0000      -1.220691       -33.2167
  57   2.0000      -1.211583       -32.9688
  58   2.0000      -1.163803       -31.6687
  59   2.0000      -1.156410       -31.4675
  60   2.0000      -1.122835       -30.5539
  61   2.0000      -1.113791       -30.3078
  62   2.0000      -1.105943       -30.0942
  63   2.0000      -1.094442       -29.7813
  64   2.0000      -1.059217       -28.8227
  65   2.0000      -1.049649       -28.5624
  66   2.0000      -1.041293       -28.3350
  67   2.0000      -1.029190       -28.0057
  68   2.0000      -1.028392       -27.9840
  69   2.0000      -1.011909       -27.5354
  70   2.0000      -1.009353       -27.4659
  71   2.0000      -0.995369       -27.0854
  72   2.0000      -0.985087       -26.8056
  73   2.0000      -0.974409       -26.5150
  74   2.0000      -0.972118       -26.4527
  75   2.0000      -0.958876       -26.0923
  76   2.0000      -0.951779       -25.8992
  77   2.0000      -0.945334       -25.7238
  78   2.0000      -0.938702       -25.5434
  79   2.0000      -0.922815       -25.1111
  80   2.0000      -0.894958       -24.3531
  81   2.0000      -0.884416       -24.0662
  82   2.0000      -0.876409       -23.8483
  83   2.0000      -0.868896       -23.6439
  84   2.0000      -0.862236       -23.4626
  85   2.0000      -0.855585       -23.2817
  86   2.0000      -0.848679       -23.0937
  87   2.0000      -0.841445       -22.8969
  88   2.0000      -0.821762       -22.3613
  89   2.0000      -0.798728       -21.7345
  90   2.0000      -0.796882       -21.6843
  91   2.0000      -0.740617       -20.1532
  92   2.0000      -0.733248       -19.9527
  93   2.0000      -0.730271       -19.8717
  94   2.0000      -0.722007       -19.6468
  95   2.0000      -0.719528       -19.5794
  96   2.0000      -0.712590       -19.3906
  97   2.0000      -0.706411       -19.2224
  98   2.0000      -0.699854       -19.0440
  99   2.0000      -0.694514       -18.8987
 100   2.0000      -0.688618       -18.7382
 101   2.0000      -0.681259       -18.5380
 102   2.0000      -0.678986       -18.4761
 103   2.0000      -0.673439       -18.3252
 104   2.0000      -0.669801       -18.2262
 105   2.0000      -0.665549       -18.1105
 106   2.0000      -0.664612       -18.0850
 107   2.0000      -0.659392       -17.9430
 108   2.0000      -0.658282       -17.9128
 109   2.0000      -0.657247       -17.8846
 110   2.0000      -0.651666       -17.7327
 111   2.0000      -0.649233       -17.6665
 112   2.0000      -0.645246       -17.5580
 113   2.0000      -0.638529       -17.3753
 114   2.0000      -0.635086       -17.2816
 115   2.0000      -0.625121       -17.0104
 116   2.0000      -0.622747       -16.9458
 117   2.0000      -0.616408       -16.7733
 118   2.0000      -0.611929       -16.6514
 119   2.0000      -0.610290       -16.6068
 120   2.0000      -0.608477       -16.5575
 121   2.0000      -0.602952       -16.4072
 122   2.0000      -0.596069       -16.2199
 123   2.0000      -0.592926       -16.1343
 124   2.0000      -0.591632       -16.0991
 125   2.0000      -0.585060       -15.9203
 126   2.0000      -0.578368       -15.7382
 127   2.0000      -0.574410       -15.6305
 128   2.0000      -0.567114       -15.4320
 129   2.0000      -0.559407       -15.2222
 130   2.0000      -0.553912       -15.0727
 131   2.0000      -0.547760       -14.9053
 132   2.0000      -0.541838       -14.7442
 133   2.0000      -0.536613       -14.6020
 134   2.0000      -0.534115       -14.5340
 135   2.0000      -0.528884       -14.3917
 136   2.0000      -0.525562       -14.3013
 137   2.0000      -0.522373       -14.2145
 138   2.0000      -0.519567       -14.1381
 139   2.0000      -0.517241       -14.0748
 140   2.0000      -0.509625       -13.8676
 141   2.0000      -0.506854       -13.7922
 142   2.0000      -0.506152       -13.7731
 143   2.0000      -0.501171       -13.6376
 144   2.0000      -0.500013       -13.6060
 145   2.0000      -0.498345       -13.5607
 146   2.0000      -0.494495       -13.4559
 147   2.0000      -0.491533       -13.3753
 148   2.0000      -0.489297       -13.3144
 149   2.0000      -0.469235       -12.7685
 150   2.0000      -0.461582       -12.5603
 151   2.0000      -0.453050       -12.3281
 152   2.0000      -0.448403       -12.2017
 153   2.0000      -0.446255       -12.1432
 154   2.0000      -0.446210       -12.1420
 155   2.0000      -0.439191       -11.9510
 156   2.0000      -0.435356       -11.8466
 157   2.0000      -0.430860       -11.7243
 158   2.0000      -0.394350       -10.7308
 159   2.0000      -0.383541       -10.4367
 160   2.0000      -0.379459       -10.3256
 161   2.0000      -0.371687       -10.1141
 162   2.0000      -0.368189       -10.0189
 163   2.0000      -0.360022        -9.7967
 164   2.0000      -0.353042        -9.6067
 165   2.0000      -0.341448        -9.2913
 166   2.0000      -0.337255        -9.1772
 167   2.0000      -0.334154        -9.0928
 168   2.0000      -0.329195        -8.9578
 169   2.0000      -0.300118        -8.1666
 170   2.0000      -0.298653        -8.1267
 171   2.0000      -0.288036        -7.8379
 172   2.0000      -0.286485        -7.7957
 173   2.0000      -0.256480        -6.9792
 174   2.0000      -0.247448        -6.7334
 175   2.0000      -0.188655        -5.1336
 176   2.0000      -0.178651        -4.8614
 177   2.0000      -0.068481        -1.8635
 178   2.0000      -0.055719        -1.5162
 179   0.0000       0.030106         0.8192
 180   0.0000       0.069774         1.8987
 181   0.0000       0.092869         2.5271
 182   0.0000       0.100080         2.7233
 183   0.0000       0.125800         3.4232

MULLIKEN ATOMIC CHARGES
-----------------------
   0 C :    0.204619
   1 N :   -0.447618
   2 C :   -0.064503
   3 N :   -0.336817
   4 C :   -0.065447
   5 N :   -0.561170
   6 C :   -0.078435
   7 N :   -0.338960
   8 C :    0.202280
   9 N :   -0.562799
  10 C :    0.116508
  11 N :   -0.437320
  12 C :   -0.073150
  13 N :   -0.436146
  14 C :    0.235043
  15 N :   -0.441008
  16 C :    0.232096
  17 C :   -0.084804
  18 C :   -0.192516
  19 C :    0.223054
  20 C :    0.211098
  21 C :   -0.082112
  22 C :   -0.086788
  23 C :   -0.045529
  24 C :    0.202424
  25 C :    0.113813
  26 C :   -0.073387
  27 C :    0.217719
  28 C :   -0.055359
  29 C :   -0.182921
  30 C :    0.239220
  31 C :    0.218425
  32 C :   -0.063611
  33 C :   -0.074051
  34 C :   -0.049650
  35 C :    0.212043
  36 C :    0.112035
  37 C :   -0.065720
  38 C :    0.235586
  39 C :   -0.060696
  40 C :   -0.185755
  41 C :    0.221633
  42 C :    0.200609
  43 C :   -0.073396
  44 C :   -0.089801
  45 C :   -0.056149
  46 C :    0.205912
  47 C :    0.115650
  48 C :   -0.072329
  49 C :    0.230352
  50 C :   -0.050366
  51 C :   -0.191167
  52 H :    0.048497
  53 H :   -0.015032
  54 H :    0.045156
  55 H :    0.046578
  56 H :    0.054103
  57 H :    0.052863
  58 H :    0.052324
  59 H :   -0.007893
  60 H :    0.046091
  61 H :    0.171945
  62 H :    0.173982
  63 H :    0.057078
  64 H :   -0.014044
  65 H :    0.046793
  66 H :    0.057499
  67 H :    0.063468
  68 H :    0.058202
  69 H :    0.058493
  70 H :   -0.026059
  71 H :    0.047714
  72 H :    0.061752
  73 H :   -0.011881
  74 H :    0.051630
  75 H :    0.060848
  76 H :    0.066607
  77 H :    0.061634
  78 H :    0.060797
  79 H :   -0.014452
  80 H :    0.052012
  81 H :    0.053642
  82 H :   -0.024400
  83 H :    0.042137
  84 H :    0.053101
  85 H :    0.059355
  86 H :    0.055757
  87 H :    0.056716
  88 H :   -0.019317
  89 H :    0.045667
Sum of atomic charges:   -0.0000000

LOEWDIN ATOMIC CHARGES
----------------------
   0 C :   -0.012076
   1 N :    0.126519
   2 C :   -0.100722
   3 N :    0.180177
   4 C :    0.016590
   5 N :   -0.134540
   6 C :   -0.027701
   7 N :    0.176759
   8 C :   -0.014599
   9 N :   -0.139371
  10 C :    0.026063
  11 N :    0.144920
  12 C :   -0.103221
  13 N :    0.150449
  14 C :   -0.040434
  15 N :    0.138113
  16 C :   -0.051484
  17 C :   -0.032169
  18 C :   -0.104564
  19 C :   -0.086915
  20 C :    0.003367
  21 C :   -0.107090
  22 C :    0.042694
  23 C :   -0.018105
  24 C :   -0.004174
  25 C :    0.030499
  26 C :   -0.105397
  27 C :   -0.103508
  28 C :   -0.022807
  29 C :   -0.103630
  30 C :   -0.040623
  31 C :    0.010151
  32 C :   -0.096739
  33 C :    0.055177
  34 C :   -0.017571
  35 C :    0.004735
  36 C :    0.031663
  37 C :   -0.098353
  38 C :   -0.044249
  39 C :   -0.022848
  40 C :   -0.108289
  41 C :   -0.094368
  42 C :   -0.007806
  43 C :   -0.103176
  44 C :    0.032845
  45 C :   -0.024869
  46 C :   -0.003243
  47 C :    0.029234
  48 C :   -0.101908
  49 C :   -0.082147
  50 C :   -0.021483
  51 C :   -0.109219
  52 H :    0.026935
  53 H :    0.003853
  54 H :    0.041876
  55 H :    0.026661
  56 H :    0.024014
  57 H :    0.028687
  58 H :    0.029429
  59 H :    0.005982
  60 H :    0.041642
  61 H :    0.060221
  62 H :    0.061071
  63 H :    0.031389
  64 H :    0.001200
  65 H :    0.045491
  66 H :    0.030358
  67 H :    0.028805
  68 H :    0.032070
  69 H :    0.031243
  70 H :   -0.002911
  71 H :    0.045064
  72 H :    0.033253
  73 H :    0.005248
  74 H :    0.047043
  75 H :    0.032580
  76 H :    0.030484
  77 H :    0.033190
  78 H :    0.032829
  79 H :    0.004038
  80 H :    0.046630
  81 H :    0.028896
  82 H :   -0.002379
  83 H :    0.042902
  84 H :    0.029207
  85 H :    0.026676
  86 H :    0.030228
  87 H :    0.031166
  88 H :    0.000085
  89 H :    0.044280

  Mayer bond orders larger than 0.100000
B(  0-C ,  1-N ) :   1.1032 B(  0-C , 17-C ) :   1.6674 B(  0-C , 52-H ) :   0.9688
B(  1-N ,  8-C ) :   1.0981 B(  1-N , 10-C ) :   0.9701 B(  2-C , 12-C ) :   1.5275
B(  2-C , 16-C ) :   1.3339 B(  2-C , 53-H ) :   0.9774 B(  3-N , 14-C ) :   1.2096
B(  3-N , 16-C ) :   1.1938 B(  3-N , 61-H ) :   0.8990 B(  4-C ,  6-C ) :   1.2403
B(  4-C , 17-C ) :   1.2375 B(  4-C , 18-C ) :   1.3374 B(  5-N , 19-C ) :   1.4338
B(  5-N , 27-C ) :   1.3945 B(  6-C ,  8-C ) :   1.6676 B(  6-C , 54-H ) :   0.9692
B(  7-N , 30-C ) :   1.1932 B(  7-N , 38-C ) :   1.1982 B(  7-N , 62-H ) :   0.8976
B(  8-C , 55-H ) :   0.9702 B(  9-N , 41-C ) :   1.4010 B(  9-N , 49-C ) :   1.4219
B( 10-C , 56-H ) :   0.9763 B( 10-C , 57-H ) :   0.9827 B( 10-C , 58-H ) :   0.9832
B( 11-N , 20-C ) :   1.1288 B( 11-N , 24-C ) :   1.1190 B( 11-N , 25-C ) :   0.9579
B( 12-C , 14-C ) :   1.3369 B( 12-C , 59-H ) :   0.9759 B( 13-N , 31-C ) :   1.1378
B( 13-N , 35-C ) :   1.1309 B( 13-N , 36-C ) :   0.9532 B( 14-C , 18-C ) :   1.1725
B( 15-N , 42-C ) :   1.1118 B( 15-N , 46-C ) :   1.1174 B( 15-N , 47-C ) :   0.9623
B( 16-C , 51-C ) :   1.1902 B( 17-C , 60-H ) :   0.9697 B( 18-C , 19-C ) :   1.1820
B( 19-C , 21-C ) :   1.2246 B( 20-C , 28-C ) :   1.6230 B( 20-C , 63-H ) :   0.9702
B( 21-C , 26-C ) :   1.6326 B( 21-C , 64-H ) :   0.9725 B( 22-C , 23-C ) :   1.2877
B( 22-C , 28-C ) :   1.2727 B( 22-C , 29-C ) :   1.2233 B( 23-C , 24-C ) :   1.6165
B( 23-C , 65-H ) :   0.9707 B( 24-C , 66-H ) :   0.9692 B( 25-C , 67-H ) :   0.9761
B( 25-C , 68-H ) :   0.9828 B( 25-C , 69-H ) :   0.9822 B( 26-C , 27-C ) :   1.2200
B( 26-C , 70-H ) :   0.9725 B( 27-C , 29-C ) :   1.2238 B( 28-C , 71-H ) :   0.9716
B( 29-C , 30-C ) :   1.2248 B( 30-C , 32-C ) :   1.2990 B( 31-C , 39-C ) :   1.6155
B( 31-C , 72-H ) :   0.9691 B( 32-C , 37-C ) :   1.5597 B( 32-C , 73-H ) :   0.9780
B( 33-C , 34-C ) :   1.2874 B( 33-C , 39-C ) :   1.2802 B( 33-C , 40-C ) :   1.2216
B( 34-C , 35-C ) :   1.6122 B( 34-C , 74-H ) :   0.9701 B( 35-C , 75-H ) :   0.9691
B( 36-C , 76-H ) :   0.9764 B( 36-C , 77-H ) :   0.9819 B( 36-C , 78-H ) :   0.9828
B( 37-C , 38-C ) :   1.3015 B( 37-C , 79-H ) :   0.9774 B( 38-C , 40-C ) :   1.2185
B( 39-C , 80-H ) :   0.9712 B( 40-C , 41-C ) :   1.2296 B( 41-C , 43-C ) :   1.2053
B( 42-C , 50-C ) :   1.6344 B( 42-C , 81-H ) :   0.9696 B( 43-C , 48-C ) :   1.6461
B( 43-C , 82-H ) :   0.9731 B( 44-C , 45-C ) :   1.2669 B( 44-C , 50-C ) :   1.2682
B( 44-C , 51-C ) :   1.2598 B( 45-C , 46-C ) :   1.6345 B( 45-C , 83-H ) :   0.9714
B( 46-C , 84-H ) :   0.9702 B( 47-C , 85-H ) :   0.9762 B( 47-C , 86-H ) :   0.9829
B( 47-C , 87-H ) :   0.9825 B( 48-C , 49-C ) :   1.2067 B( 48-C , 88-H ) :   0.9742
B( 49-C , 51-C ) :   1.2239 B( 50-C , 89-H ) :   0.9712

MP2 TOTAL ENERGY:    -2130.916141022 Eh
FINAL SINGLE POINT ENERGY     -2130.916141022007

DIPOLE MOMENT
-------------
                                X             Y             Z
Electronic contribution:      0.70187      -2.20203      -0.05944
Nuclear contribution   :      0.01676       0.19934       0.07182
                        -----------------------------------------
Total Dipole Moment    :      0.71863      -2.00269       0.01238
                        -----------------------------------------
Magnitude (a.u.)       :      2.12776
Magnitude (Debye)      :      5.40833

Rotational constants in cm-1:     0.001500     0.001474     0.000762
Rotational constants in MHz :    44.973173    44.185909    22.836936

                             ****ORCA TERMINATED NORMALLY****
TOTAL RUN TIME: 0 days 1 hours 6 minutes 14 seconds 852 msec
