                         Program Version 5.0.4 -  RELEASE  -
|  1> ! PAL2
|  2> ! mp2 cc-pvdz TightSCF  NoKeepInts
|  3>
|  4> %scf
|  5>   MaxCore 2000
|  6> end
|  7> %mp2
|  8>   MaxCore 2000
|  9> end
| 10> * xyz 0 1
| 11>    C       -3.25000         6.36200        -0.64100
| 12>    C        1.47400         4.04100         0.05700
| 13>    C       -2.80200         4.09300         0.04900
| 14>    C       -3.97000         4.15200         0.82500
| 15>    C       -4.73500         5.30200         0.84000
| 16>    C       -5.23100         7.59000         0.12500
| 17>    C        0.13200         4.30700         0.06100
| 18>    C       -0.56900         3.05600         0.04700
| 19>    C        1.64900         2.61800         0.02300
| 20>    C       -2.45600         5.23300        -0.69300
| 21>    N       -4.37000         6.38600         0.11700
| 22>    N        0.38800         2.06700         0.02500
| 23>    N       -2.01000         0.39500        -0.07500
| 24>    N       -0.38800        -2.07400        -0.02700
| 25>    N        2.01000        -0.40100         0.06500
| 26>    C       -1.96000         2.86100         0.02400
| 27>    C       -2.62300         1.61500        -0.01800
| 28>    C       -5.57300        -4.32900         1.06600
| 29>    C       -4.07300         1.47100         0.05600
| 30>    C       -4.10600        -2.75600        -0.02600
| 31>    C       -4.99500        -2.75700        -1.11100
| 32>    C       -6.13200        -3.54200        -1.07600
| 33>    C       -7.65100        -5.11300         0.04000
| 34>    C       -4.32400         0.14100         0.03700
| 35>    C       -3.02500        -0.52000        -0.04800
| 36>    C       -4.42200        -3.56600         1.07500
| 37>    N       -6.40700        -4.31300         0.00100
| 38>    C       -2.86700        -1.92200        -0.04000
| 39>    C       -1.65000        -2.62400        -0.02700
| 40>    C        3.56800        -6.14200        -1.04000
| 41>    C       -1.47600        -4.04900        -0.03400
| 42>    C        2.80300        -4.09900        -0.00800
| 43>    C        3.65700        -4.38400         1.06900
| 44>    C        4.42700        -5.53000         1.05900
| 45>    C        5.24500        -7.58800         0.01400
| 46>    C       -0.13400        -4.31500        -0.02200
| 47>    C        0.56800        -3.06400        -0.02700
| 48>    C        2.77500        -5.01200        -1.07400
| 49>    N        4.37600        -6.39100         0.01700
| 50>    C        1.95900        -2.86900        -0.00900
| 51>    C        2.62100        -1.62200         0.00900
| 52>    C        5.54300         4.33900        -1.13000
| 53>    C        4.07000        -1.47900        -0.09400
| 54>    C        4.10400         2.75100        -0.02100
| 55>    C        5.02700         2.72900         1.03600
| 56>    C        6.16600         3.50900         0.97800
| 57>    C        7.61900         5.15300        -0.11500
| 58>    C        4.32100        -0.14800        -0.09200
| 59>    C        3.02500         0.51400         0.01500
| 60>    C        4.38700         3.58200        -1.11500
| 61>    C        2.86600         1.91600         0.01300
| 62>    N        6.41300         4.29600        -0.09500
| 63>    H       -3.01500         7.26700        -1.18700
| 64>    H        2.27400         4.76600         0.08100
| 65>    H       -4.29500         3.30200         1.41200
| 66>    H       -5.64700         5.39200         1.41500
| 67>    H       -6.00800         7.47600        -0.63300
| 68>    H       -5.68100         7.69200         1.11200
| 69>    H       -4.61600         8.46200        -0.09700
| 70>    H       -0.33200         5.28200         0.06900
| 71>    H       -1.55800         5.25400        -1.30100
| 72>    H        0.18200         1.07200         0.00500
| 73>    H       -0.18300        -1.08000        -0.02100
| 74>    H       -5.86400        -4.96200         1.89500
| 75>    H       -4.79400         2.27200         0.13900
| 76>    H       -4.80000        -2.16000        -1.99400
| 77>    H       -6.84100        -3.58200        -1.89300
| 78>    H       -8.42800        -4.53600         0.54600
| 79>    H       -7.95600        -5.33700        -0.98100
| 80>    H       -7.45600        -6.03700         0.58400
| 81>    H       -5.28700        -0.34400         0.10000
| 82>    H       -3.78000        -3.60100         1.94700
| 83>    H        3.58700        -6.86800        -1.84300
| 84>    H       -2.27600        -4.77400        -0.05000
| 85>    H        3.71400        -3.72400         1.92600
| 86>    H        5.09200        -5.79500         1.87100
| 87>    H        6.20500        -7.32900        -0.43900
| 88>    H        5.39300        -7.91700         1.04200
| 89>    H        4.75900        -8.37300        -0.56400
| 90>    H        0.32900        -5.29000        -0.00800
| 91>    H        2.14600        -4.84200        -1.94000
| 92>    H        5.80800         4.98600        -1.95600
| 93>    H        4.78800        -2.28100        -0.18500
| 94>    H        4.86000         2.11400         1.91200
| 95>    H        6.90100         3.53100         1.77200
| 96>    H        7.38300         6.10900         0.35600
| 97>    H        8.41400         4.65200         0.43500
| 98>    H        7.92100         5.31000        -1.15000
| 99>    H        5.28300         0.33600        -0.17900
|100>    H        3.72000         3.63200        -1.96700
|101> *
|102>
|103>                          ****END OF INPUT****

CARTESIAN COORDINATES (ANGSTROEM)
---------------------------------
  C     -3.250000    6.362000   -0.641000
  C      1.474000    4.041000    0.057000
  C     -2.802000    4.093000    0.049000
  C     -3.970000    4.152000    0.825000
  C     -4.735000    5.302000    0.840000
  C     -5.231000    7.590000    0.125000
  C      0.132000    4.307000    0.061000
  C     -0.569000    3.056000    0.047000
  C      1.649000    2.618000    0.023000
  C     -2.456000    5.233000   -0.693000
  N     -4.370000    6.386000    0.117000
  N      0.388000    2.067000    0.025000
  N     -2.010000    0.395000   -0.075000
  N     -0.388000   -2.074000   -0.027000
  N      2.010000   -0.401000    0.065000
  C     -1.960000    2.861000    0.024000
  C     -2.623000    1.615000   -0.018000
  C     -5.573000   -4.329000    1.066000
  C     -4.073000    1.471000    0.056000
  C     -4.106000   -2.756000   -0.026000
  C     -4.995000   -2.757000   -1.111000
  C     -6.132000   -3.542000   -1.076000
  C     -7.651000   -5.113000    0.040000
  C     -4.324000    0.141000    0.037000
  C     -3.025000   -0.520000   -0.048000
  C     -4.422000   -3.566000    1.075000
  N     -6.407000   -4.313000    0.001000
  C     -2.867000   -1.922000   -0.040000
  C     -1.650000   -2.624000   -0.027000
  C      3.568000   -6.142000   -1.040000
  C     -1.476000   -4.049000   -0.034000
  C      2.803000   -4.099000   -0.008000
  C      3.657000   -4.384000    1.069000
  C      4.427000   -5.530000    1.059000
  C      5.245000   -7.588000    0.014000
  C     -0.134000   -4.315000   -0.022000
  C      0.568000   -3.064000   -0.027000
  C      2.775000   -5.012000   -1.074000
  N      4.376000   -6.391000    0.017000
  C      1.959000   -2.869000   -0.009000
  C      2.621000   -1.622000    0.009000
  C      5.543000    4.339000   -1.130000
  C      4.070000   -1.479000   -0.094000
  C      4.104000    2.751000   -0.021000
  C      5.027000    2.729000    1.036000
  C      6.166000    3.509000    0.978000
  C      7.619000    5.153000   -0.115000
  C      4.321000   -0.148000   -0.092000
  C      3.025000    0.514000    0.015000
  C      4.387000    3.582000   -1.115000
  C      2.866000    1.916000    0.013000
  N      6.413000    4.296000   -0.095000
  H     -3.015000    7.267000   -1.187000
  H      2.274000    4.766000    0.081000
  H     -4.295000    3.302000    1.412000
  H     -5.647000    5.392000    1.415000
  H     -6.008000    7.476000   -0.633000
  H     -5.681000    7.692000    1.112000
  H     -4.616000    8.462000   -0.097000
  H     -0.332000    5.282000    0.069000
  H     -1.558000    5.254000   -1.301000
  H      0.182000    1.072000    0.005000
  H     -0.183000   -1.080000   -0.021000
  H     -5.864000   -4.962000    1.895000
  H     -4.794000    2.272000    0.139000
  H     -4.800000   -2.160000   -1.994000
  H     -6.841000   -3.582000   -1.893000
  H     -8.428000   -4.536000    0.546000
  H     -7.956000   -5.337000   -0.981000
  H     -7.456000   -6.037000    0.584000
  H     -5.287000   -0.344000    0.100000
  H     -3.780000   -3.601000    1.947000
  H      3.587000   -6.868000   -1.843000
  H     -2.276000   -4.774000   -0.050000
  H      3.714000   -3.724000    1.926000
  H      5.092000   -5.795000    1.871000
  H      6.205000   -7.329000   -0.439000
  H      5.393000   -7.917000    1.042000
  H      4.759000   -8.373000   -0.564000
  H      0.329000   -5.290000   -0.008000
  H      2.146000   -4.842000   -1.940000
  H      5.808000    4.986000   -1.956000
  H      4.788000   -2.281000   -0.185000
  H      4.860000    2.114000    1.912000
  H      6.901000    3.531000    1.772000
  H      7.383000    6.109000    0.356000
  H      8.414000    4.652000    0.435000
  H      7.921000    5.310000   -1.150000
  H      5.283000    0.336000   -0.179000
  H      3.720000    3.632000   -1.967000

 Total Charge           Charge          ....    0
 Multiplicity           Mult            ....    1
 Number of Electrons    NEL             ....  358
 Basis Dimension        Dim             ....  918

ORBITAL ENERGIES
----------------

  NO   OCC          E(Eh)            E(eV)
   0   2.0000     -15.664621      -426.2560
   1   2.0000     -15.635728      -425.4698
   2   2.0000     -15.630451      -425.3262
   3   2.0000     -15.598497      -424.4567
   4   2.0000     -15.523357      -422.4120
   5   2.0000     -15.516391      -422.2225
   6   2.0000     -15.450499      -420.4295
   7   2.0000     -15.442359      -420.2079
   8   2.0000     -11.318556      -307.9936
   9   2.0000     -11.317039      -307.9523
  10   2.0000     -11.315320      -307.9055
  11   2.0000     -11.300406      -307.4997
  12   2.0000     -11.297381      -307.4174
  13   2.0000     -11.293644      -307.3157
  14   2.0000     -11.289078      -307.1914
  15   2.0000     -11.288923      -307.1872
  16   2.0000     -11.286055      -307.1092
  17   2.0000     -11.278026      -306.8907
  18   2.0000     -11.267786      -306.6121
  19   2.0000     -11.262979      -306.4812
  20   2.0000     -11.261294      -306.4354
  21   2.0000     -11.252687      -306.2012
  22   2.0000     -11.251757      -306.1759
  23   2.0000     -11.239284      -305.8365
  24   2.0000     -11.235146      -305.7239
  25   2.0000     -11.232412      -305.6495
  26   2.0000     -11.231612      -305.6277
  27   2.0000     -11.228600      -305.5457
  28   2.0000     -11.228496      -305.5429
  29   2.0000     -11.207848      -304.9811
  30   2.0000     -11.207360      -304.9678
  31   2.0000     -11.206360      -304.9405
  32   2.0000     -11.202724      -304.8416
  33   2.0000     -11.201246      -304.8014
  34   2.0000     -11.191188      -304.5277
  35   2.0000     -11.190473      -304.5082
  36   2.0000     -11.184611      -304.3487
  37   2.0000     -11.182368      -304.2877
  38   2.0000     -11.181529      -304.2649
  39   2.0000     -11.172555      -304.0207
  40   2.0000     -11.169557      -303.9391
  41   2.0000     -11.169078      -303.9261
  42   2.0000     -11.165154      -303.8193
  43   2.0000     -11.163687      -303.7794
  44   2.0000     -11.161935      -303.7317
  45   2.0000     -11.160483      -303.6922
  46   2.0000     -11.155197      -303.5483
  47   2.0000     -11.151314      -303.4427
  48   2.0000     -11.149714      -303.3991
  49   2.0000     -11.143971      -303.2429
  50   2.0000     -11.135479      -303.0118
  51   2.0000     -11.128518      -302.8224
  52   2.0000      -1.347473       -36.6666
  53   2.0000      -1.322724       -35.9931
  54   2.0000      -1.318342       -35.8739
  55   2.0000      -1.291604       -35.1463
  56   2.0000      -1.223320       -33.2882
  57   2.0000      -1.211286       -32.9608
  58   2.0000      -1.168719       -31.8025
  59   2.0000      -1.153913       -31.3996
  60   2.0000      -1.132759       -30.8239
  61   2.0000      -1.111356       -30.2415
  62   2.0000      -1.107823       -30.1454
  63   2.0000      -1.086243       -29.5582
  64   2.0000      -1.070083       -29.1184
  65   2.0000      -1.046809       -28.4851
  66   2.0000      -1.043044       -28.3827
  67   2.0000      -1.034116       -28.1397
  68   2.0000      -1.019324       -27.7372
  69   2.0000      -1.013468       -27.5779
  70   2.0000      -1.009847       -27.4793
  71   2.0000      -0.992632       -27.0109
  72   2.0000      -0.987215       -26.8635
  73   2.0000      -0.976879       -26.5822
  74   2.0000      -0.973037       -26.4777
  75   2.0000      -0.959858       -26.1191
  76   2.0000      -0.951269       -25.8853
  77   2.0000      -0.947998       -25.7963
  78   2.0000      -0.936172       -25.4745
  79   2.0000      -0.921287       -25.0695
  80   2.0000      -0.900567       -24.5057
  81   2.0000      -0.891019       -24.2459
  82   2.0000      -0.874412       -23.7940
  83   2.0000      -0.870818       -23.6962
  84   2.0000      -0.865930       -23.5631
  85   2.0000      -0.855803       -23.2876
  86   2.0000      -0.844457       -22.9788
  87   2.0000      -0.837875       -22.7997
  88   2.0000      -0.822872       -22.3915
  89   2.0000      -0.798554       -21.7298
  90   2.0000      -0.794454       -21.6182
  91   2.0000      -0.745404       -20.2835
  92   2.0000      -0.738129       -20.0855
  93   2.0000      -0.731571       -19.9071
  94   2.0000      -0.722646       -19.6642
  95   2.0000      -0.720965       -19.6184
  96   2.0000      -0.714033       -19.4298
  97   2.0000      -0.707121       -19.2417
  98   2.0000      -0.703227       -19.1358
  99   2.0000      -0.695825       -18.9344
 100   2.0000      -0.694200       -18.8901
 101   2.0000      -0.682193       -18.5634
 102   2.0000      -0.678605       -18.4658
 103   2.0000      -0.676148       -18.3989
 104   2.0000      -0.674417       -18.3518
 105   2.0000      -0.671932       -18.2842
 106   2.0000      -0.665416       -18.1069
 107   2.0000      -0.662285       -18.0217
 108   2.0000      -0.655130       -17.8270
 109   2.0000      -0.654152       -17.8004
 110   2.0000      -0.650269       -17.6947
 111   2.0000      -0.646447       -17.5907
 112   2.0000      -0.642282       -17.4774
 113   2.0000      -0.637999       -17.3608
 114   2.0000      -0.635082       -17.2815
 115   2.0000      -0.629815       -17.1382
 116   2.0000      -0.625808       -17.0291
 117   2.0000      -0.616093       -16.7648
 118   2.0000      -0.613695       -16.6995
 119   2.0000      -0.611426       -16.6378
 120   2.0000      -0.610251       -16.6058
 121   2.0000      -0.602305       -16.3896
 122   2.0000      -0.600774       -16.3479
 123   2.0000      -0.588550       -16.0152
 124   2.0000      -0.585544       -15.9335
 125   2.0000      -0.582288       -15.8449
 126   2.0000      -0.579582       -15.7712
 127   2.0000      -0.576922       -15.6989
 128   2.0000      -0.563826       -15.3425
 129   2.0000      -0.558546       -15.1988
 130   2.0000      -0.554108       -15.0780
 131   2.0000      -0.548695       -14.9307
 132   2.0000      -0.541535       -14.7359
 133   2.0000      -0.537926       -14.6377
 134   2.0000      -0.535531       -14.5725
 135   2.0000      -0.535195       -14.5634
 136   2.0000      -0.525925       -14.3111
 137   2.0000      -0.524460       -14.2713
 138   2.0000      -0.516437       -14.0530
 139   2.0000      -0.515855       -14.0371
 140   2.0000      -0.511391       -13.9156
 141   2.0000      -0.510367       -13.8878
 142   2.0000      -0.508283       -13.8311
 143   2.0000      -0.502694       -13.6790
 144   2.0000      -0.501227       -13.6391
 145   2.0000      -0.497899       -13.5485
 146   2.0000      -0.494263       -13.4496
 147   2.0000      -0.486344       -13.2341
 148   2.0000      -0.483897       -13.1675
 149   2.0000      -0.468309       -12.7433
 150   2.0000      -0.464180       -12.6310
 151   2.0000      -0.456263       -12.4156
 152   2.0000      -0.449010       -12.2182
 153   2.0000      -0.446201       -12.1418
 154   2.0000      -0.444039       -12.0829
 155   2.0000      -0.440730       -11.9929
 156   2.0000      -0.431618       -11.7449
 157   2.0000      -0.425404       -11.5758
 158   2.0000      -0.400527       -10.8989
 159   2.0000      -0.387413       -10.5420
 160   2.0000      -0.378726       -10.3057
 161   2.0000      -0.377077       -10.2608
 162   2.0000      -0.370249       -10.0750
 163   2.0000      -0.357733        -9.7344
 164   2.0000      -0.354735        -9.6528
 165   2.0000      -0.338395        -9.2082
 166   2.0000      -0.337030        -9.1710
 167   2.0000      -0.331373        -9.0171
 168   2.0000      -0.327261        -8.9052
 169   2.0000      -0.301799        -8.2124
 170   2.0000      -0.299894        -8.1605
 171   2.0000      -0.287100        -7.8124
 172   2.0000      -0.284408        -7.7391
 173   2.0000      -0.260641        -7.0924
 174   2.0000      -0.245026        -6.6675
 175   2.0000      -0.189478        -5.1559
 176   2.0000      -0.179693        -4.8897
 177   2.0000      -0.072438        -1.9711
 178   2.0000      -0.057129        -1.5546
 179   0.0000       0.029108         0.7921
 180   0.0000       0.067955         1.8492
 181   0.0000       0.092025         2.5041
 182   0.0000       0.105509         2.8710
 183   0.0000       0.116313         3.1650

MULLIKEN ATOMIC CHARGES
-----------------------
   0 C :    0.207884
   1 N :   -0.452640
   2 C :   -0.062701
   3 N :   -0.336052
   4 C :   -0.049599
   5 N :   -0.563003
   6 C :   -0.101267
   7 N :   -0.339509
   8 C :    0.205345
   9 N :   -0.562576
  10 C :    0.118425
  11 N :   -0.438049
  12 C :   -0.083215
  13 N :   -0.433040
  14 C :    0.240580
  15 N :   -0.441011
  16 C :    0.228106
  17 C :   -0.111011
  18 C :   -0.206407
  19 C :    0.233497
  20 C :    0.211847
  21 C :   -0.095993
  22 C :   -0.090312
  23 C :   -0.042266
  24 C :    0.197275
  25 C :    0.114355
  26 C :   -0.075170
  27 C :    0.214233
  28 C :   -0.058944
  29 C :   -0.180875
  30 C :    0.242703
  31 C :    0.223854
  32 C :   -0.062923
  33 C :   -0.067530
  34 C :   -0.050621
  35 C :    0.220029
  36 C :    0.110228
  37 C :   -0.065213
  38 C :    0.233242
  39 C :   -0.058978
  40 C :   -0.183877
  41 C :    0.224366
  42 C :    0.198984
  43 C :   -0.072637
  44 C :   -0.089661
  45 C :   -0.058557
  46 C :    0.208855
  47 C :    0.115480
  48 C :   -0.069289
  49 C :    0.234833
  50 C :   -0.048530
  51 C :   -0.190450
  52 H :    0.042975
  53 H :   -0.015732
  54 H :    0.052534
  55 H :    0.042100
  56 H :    0.051452
  57 H :    0.050000
  58 H :    0.049277
  59 H :   -0.000661
  60 H :    0.048225
  61 H :    0.171599
  62 H :    0.174622
  63 H :    0.055700
  64 H :   -0.008788
  65 H :    0.047453
  66 H :    0.056448
  67 H :    0.062482
  68 H :    0.057621
  69 H :    0.057150
  70 H :   -0.027755
  71 H :    0.045634
  72 H :    0.066389
  73 H :   -0.009862
  74 H :    0.055829
  75 H :    0.065653
  76 H :    0.070581
  77 H :    0.064695
  78 H :    0.063962
  79 H :   -0.015615
  80 H :    0.056573
  81 H :    0.053810
  82 H :   -0.024310
  83 H :    0.042300
  84 H :    0.053853
  85 H :    0.060267
  86 H :    0.055750
  87 H :    0.056897
  88 H :   -0.016628
  89 H :    0.045307
Sum of atomic charges:   -0.0000000

LOEWDIN ATOMIC CHARGES
----------------------
   0 C :   -0.018054
   1 N :    0.119897
   2 C :   -0.100790
   3 N :    0.182671
   4 C :    0.002428
   5 N :   -0.133628
   6 C :   -0.034031
   7 N :    0.176389
   8 C :   -0.019374
   9 N :   -0.140095
  10 C :    0.025294
  11 N :    0.142854
  12 C :   -0.109121
  13 N :    0.157909
  14 C :   -0.033486
  15 N :    0.138502
  16 C :   -0.056270
  17 C :   -0.039733
  18 C :   -0.103109
  19 C :   -0.083881
  20 C :    0.003394
  21 C :   -0.116268
  22 C :    0.038095
  23 C :   -0.016053
  24 C :   -0.009117
  25 C :    0.030020
  26 C :   -0.105812
  27 C :   -0.110515
  28 C :   -0.025643
  29 C :   -0.101954
  30 C :   -0.034965
  31 C :    0.016794
  32 C :   -0.096005
  33 C :    0.067800
  34 C :   -0.016549
  35 C :    0.013680
  36 C :    0.033370
  37 C :   -0.096615
  38 C :   -0.048538
  39 C :   -0.020135
  40 C :   -0.108375
  41 C :   -0.092067
  42 C :   -0.009232
  43 C :   -0.100878
  44 C :    0.032992
  45 C :   -0.026276
  46 C :   -0.000510
  47 C :    0.029399
  48 C :   -0.097708
  49 C :   -0.075883
  50 C :   -0.020454
  51 C :   -0.108396
  52 H :    0.024874
  53 H :    0.003504
  54 H :    0.042772
  55 H :    0.024753
  56 H :    0.022580
  57 H :    0.027391
  58 H :    0.027968
  59 H :    0.008542
  60 H :    0.040554
  61 H :    0.060177
  62 H :    0.061421
  63 H :    0.030832
  64 H :    0.003884
  65 H :    0.045875
  66 H :    0.029720
  67 H :    0.028282
  68 H :    0.031801
  69 H :    0.030633
  70 H :   -0.003567
  71 H :    0.043963
  72 H :    0.035405
  73 H :    0.006221
  74 H :    0.048765
  75 H :    0.034915
  76 H :    0.032547
  77 H :    0.034630
  78 H :    0.034306
  79 H :    0.003445
  80 H :    0.048658
  81 H :    0.028899
  82 H :   -0.002411
  83 H :    0.042828
  84 H :    0.029642
  85 H :    0.027095
  86 H :    0.030253
  87 H :    0.031255
  88 H :    0.001362
  89 H :    0.044258

  Mayer bond orders larger than 0.100000
B(  0-C ,  1-N ) :   1.0962 B(  0-C , 17-C ) :   1.6869 B(  0-C , 52-H ) :   0.9683
B(  1-N ,  8-C ) :   1.0914 B(  1-N , 10-C ) :   0.9741 B(  2-C , 12-C ) :   1.5171
B(  2-C , 16-C ) :   1.3472 B(  2-C , 53-H ) :   0.9762 B(  3-N , 14-C ) :   1.2157
B(  3-N , 16-C ) :   1.1922 B(  3-N , 61-H ) :   0.8990 B(  4-C ,  6-C ) :   1.2216
B(  4-C , 17-C ) :   1.2230 B(  4-C , 18-C ) :   1.3969 B(  5-N , 19-C ) :   1.4448
B(  5-N , 27-C ) :   1.3851 B(  6-C ,  8-C ) :   1.6914 B(  6-C , 54-H ) :   0.9635
B(  7-N , 30-C ) :   1.1954 B(  7-N , 38-C ) :   1.1940 B(  7-N , 62-H ) :   0.8973
B(  8-C , 55-H ) :   0.9684 B(  9-N , 41-C ) :   1.3982 B(  9-N , 49-C ) :   1.4227
B( 10-C , 56-H ) :   0.9768 B( 10-C , 57-H ) :   0.9821 B( 10-C , 58-H ) :   0.9842
B( 11-N , 20-C ) :   1.1292 B( 11-N , 24-C ) :   1.1116 B( 11-N , 25-C ) :   0.9595
B( 12-C , 14-C ) :   1.3483 B( 12-C , 59-H ) :   0.9744 B( 13-N , 31-C ) :   1.1486
B( 13-N , 35-C ) :   1.1448 B( 13-N , 36-C ) :   0.9476 B( 14-C , 18-C ) :   1.1463
B( 15-N , 42-C ) :   1.1098 B( 15-N , 46-C ) :   1.1206 B( 15-N , 47-C ) :   0.9617
B( 16-C , 51-C ) :   1.1787 B( 17-C , 60-H ) :   0.9653 B( 18-C , 19-C ) :   1.1540
B( 19-C , 21-C ) :   1.2354 B( 20-C , 28-C ) :   1.6268 B( 20-C , 63-H ) :   0.9703
B( 21-C , 26-C ) :   1.6208 B( 21-C , 64-H ) :   0.9698 B( 22-C , 23-C ) :   1.2882
B( 22-C , 28-C ) :   1.2672 B( 22-C , 29-C ) :   1.2238 B( 23-C , 24-C ) :   1.6192
B( 23-C , 65-H ) :   0.9705 B( 24-C , 66-H ) :   0.9694 B( 25-C , 67-H ) :   0.9761
B( 25-C , 68-H ) :   0.9828 B( 25-C , 69-H ) :   0.9822 B( 26-C , 27-C ) :   1.2315
B( 26-C , 70-H ) :   0.9716 B( 27-C , 29-C ) :   1.2198 B( 28-C , 71-H ) :   0.9718
B( 29-C , 30-C ) :   1.2319 B( 30-C , 32-C ) :   1.2918 B( 31-C , 39-C ) :   1.6025
B( 31-C , 72-H ) :   0.9686 B( 32-C , 37-C ) :   1.5669 B( 32-C , 73-H ) :   0.9784
B( 33-C , 34-C ) :   1.2966 B( 33-C , 39-C ) :   1.2916 B( 33-C , 40-C ) :   1.2003
B( 34-C , 35-C ) :   1.5996 B( 34-C , 74-H ) :   0.9699 B( 35-C , 75-H ) :   0.9687
B( 36-C , 76-H ) :   0.9766 B( 36-C , 77-H ) :   0.9817 B( 36-C , 78-H ) :   0.9826
B( 37-C , 38-C ) :   1.2955 B( 37-C , 79-H ) :   0.9769 B( 38-C , 40-C ) :   1.2240
B( 39-C , 80-H ) :   0.9709 B( 40-C , 41-C ) :   1.2408 B( 41-C , 43-C ) :   1.1938
B( 42-C , 50-C ) :   1.6335 B( 42-C , 81-H ) :   0.9697 B( 43-C , 48-C ) :   1.6584
B( 43-C , 82-H ) :   0.9727 B( 44-C , 45-C ) :   1.2655 B( 44-C , 50-C ) :   1.2704
B( 44-C , 51-C ) :   1.2592 B( 45-C , 46-C ) :   1.6345 B( 45-C , 83-H ) :   0.9716
B( 46-C , 84-H ) :   0.9701 B( 47-C , 85-H ) :   0.9762 B( 47-C , 86-H ) :   0.9829
B( 47-C , 87-H ) :   0.9825 B( 48-C , 49-C ) :   1.1964 B( 48-C , 88-H ) :   0.9746
B( 49-C , 51-C ) :   1.2352 B( 50-C , 89-H ) :   0.9711

MP2 TOTAL ENERGY:    -2130.904192265 Eh
FINAL SINGLE POINT ENERGY     -2130.904192264745

DIPOLE MOMENT
-------------
                                X             Y             Z
Electronic contribution:      1.83521      -3.12809      -0.12204
Nuclear contribution   :     -0.04874       0.15197       0.14801
                        -----------------------------------------
Total Dipole Moment    :      1.78646      -2.97612       0.02596
                        -----------------------------------------
Magnitude (a.u.)       :      3.47123
Magnitude (Debye)      :      8.82316

Rotational constants in cm-1:     0.001501     0.001476     0.000761
Rotational constants in MHz :    44.997181    44.244197    22.815146

                             ****ORCA TERMINATED NORMALLY****
TOTAL RUN TIME: 0 days 1 hours 38 minutes 6 seconds 868 msec
