                         Program Version 5.0.4 -  RELEASE  -
|  1> ! PAL2
|  2> ! mp2 cc-pvdz TightSCF  NoKeepInts
|  3>
|  4> %scf
|  5>   MaxCore 2000
|  6> end
|  7> %mp2
|  8>   MaxCore 2000
|  9> end
| 10> * xyz 0 1
| 11>    C       -4.87500         5.24700        -0.39600
| 12>    C        1.47400         4.04100         0.05700
| 13>    C       -2.80200         4.09300         0.04900
| 14>    C       -2.29300         5.30400         0.54300
| 15>    C       -3.08400         6.43500         0.55400
| 16>    C       -5.18800         7.61800         0.14700
| 17>    C        0.13200         4.30700         0.06100
| 18>    C       -0.56900         3.05600         0.04700
| 19>    C        1.64900         2.61800         0.02300
| 20>    C       -4.12400         4.08700        -0.42300
| 21>    N       -4.35400         6.39800         0.08600
| 22>    N        0.38800         2.06700         0.02500
| 23>    N       -2.01000         0.39500        -0.07500
| 24>    N       -0.38800        -2.07400        -0.02700
| 25>    N        2.01000        -0.40100         0.06500
| 26>    C       -1.96000         2.86100         0.02400
| 27>    C       -2.62300         1.61500        -0.01800
| 28>    C       -5.57300        -4.32900         1.06600
| 29>    C       -4.07300         1.47100         0.05600
| 30>    C       -4.10600        -2.75600        -0.02600
| 31>    C       -4.99500        -2.75700        -1.11100
| 32>    C       -6.13200        -3.54200        -1.07600
| 33>    C       -7.65100        -5.11300         0.04000
| 34>    C       -4.32400         0.14100         0.03700
| 35>    C       -3.02500        -0.52000        -0.04800
| 36>    C       -4.42200        -3.56600         1.07500
| 37>    N       -6.40700        -4.31300         0.00100
| 38>    C       -2.86700        -1.92200        -0.04000
| 39>    C       -1.65000        -2.62400        -0.02700
| 40>    C        3.56800        -6.14200        -1.04000
| 41>    C       -1.47600        -4.04900        -0.03400
| 42>    C        2.80300        -4.09900        -0.00800
| 43>    C        3.65700        -4.38400         1.06900
| 44>    C        4.42700        -5.53000         1.05900
| 45>    C        5.24500        -7.58800         0.01400
| 46>    C       -0.13400        -4.31500        -0.02200
| 47>    C        0.56800        -3.06400        -0.02700
| 48>    C        2.77500        -5.01200        -1.07400
| 49>    N        4.37600        -6.39100         0.01700
| 50>    C        1.95900        -2.86900        -0.00900
| 51>    C        2.62100        -1.62200         0.00900
| 52>    C        5.54300         4.33900        -1.13000
| 53>    C        4.07000        -1.47900        -0.09400
| 54>    C        4.10400         2.75100        -0.02100
| 55>    C        5.02700         2.72900         1.03600
| 56>    C        6.16600         3.50900         0.97800
| 57>    C        7.61900         5.15300        -0.11500
| 58>    C        4.32100        -0.14800        -0.09200
| 59>    C        3.02500         0.51400         0.01500
| 60>    C        4.38700         3.58200        -1.11500
| 61>    C        2.86600         1.91600         0.01300
| 62>    N        6.41300         4.29600        -0.09500
| 63>    H       -5.89300         5.29200        -0.76100
| 64>    H        2.27400         4.76600         0.08100
| 65>    H       -1.28400         5.37000         0.93000
| 66>    H       -2.73900         7.38900         0.93300
| 67>    H       -5.66300         7.67600         1.12900
| 68>    H       -4.55100         8.48800        -0.01400
| 69>    H       -5.94700         7.56300        -0.63300
| 70>    H       -0.33200         5.28200         0.06900
| 71>    H       -4.56900         3.18700        -0.83000
| 72>    H        0.18200         1.07200         0.00500
| 73>    H       -0.18300        -1.08000        -0.02100
| 74>    H       -5.86400        -4.96200         1.89500
| 75>    H       -4.79400         2.27200         0.13900
| 76>    H       -4.80000        -2.16000        -1.99400
| 77>    H       -6.84100        -3.58200        -1.89300
| 78>    H       -8.42800        -4.53600         0.54600
| 79>    H       -7.95600        -5.33700        -0.98100
| 80>    H       -7.45600        -6.03700         0.58400
| 81>    H       -5.28700        -0.34400         0.10000
| 82>    H       -3.78000        -3.60100         1.94700
| 83>    H        3.58700        -6.86800        -1.84300
| 84>    H       -2.27600        -4.77400        -0.05000
| 85>    H        3.71400        -3.72400         1.92600
| 86>    H        5.09200        -5.79500         1.87100
| 87>    H        6.20500        -7.32900        -0.43900
| 88>    H        5.39300        -7.91700         1.04200
| 89>    H        4.75900        -8.37300        -0.56400
| 90>    H        0.32900        -5.29000        -0.00800
| 91>    H        2.14600        -4.84200        -1.94000
| 92>    H        5.80800         4.98600        -1.95600
| 93>    H        4.78800        -2.28100        -0.18500
| 94>    H        4.86000         2.11400         1.91200
| 95>    H        6.90100         3.53100         1.77200
| 96>    H        7.38300         6.10900         0.35600
| 97>    H        8.41400         4.65200         0.43500
| 98>    H        7.92100         5.31000        -1.15000
| 99>    H        5.28300         0.33600        -0.17900
|100>    H        3.72000         3.63200        -1.96700
|101> *
|102>
|103>                          ****END OF INPUT****

CARTESIAN COORDINATES (ANGSTROEM)
---------------------------------
  C     -4.875000    5.247000   -0.396000
  C      1.474000    4.041000    0.057000
  C     -2.802000    4.093000    0.049000
  C     -2.293000    5.304000    0.543000
  C     -3.084000    6.435000    0.554000
  C     -5.188000    7.618000    0.147000
  C      0.132000    4.307000    0.061000
  C     -0.569000    3.056000    0.047000
  C      1.649000    2.618000    0.023000
  C     -4.124000    4.087000   -0.423000
  N     -4.354000    6.398000    0.086000
  N      0.388000    2.067000    0.025000
  N     -2.010000    0.395000   -0.075000
  N     -0.388000   -2.074000   -0.027000
  N      2.010000   -0.401000    0.065000
  C     -1.960000    2.861000    0.024000
  C     -2.623000    1.615000   -0.018000
  C     -5.573000   -4.329000    1.066000
  C     -4.073000    1.471000    0.056000
  C     -4.106000   -2.756000   -0.026000
  C     -4.995000   -2.757000   -1.111000
  C     -6.132000   -3.542000   -1.076000
  C     -7.651000   -5.113000    0.040000
  C     -4.324000    0.141000    0.037000
  C     -3.025000   -0.520000   -0.048000
  C     -4.422000   -3.566000    1.075000
  N     -6.407000   -4.313000    0.001000
  C     -2.867000   -1.922000   -0.040000
  C     -1.650000   -2.624000   -0.027000
  C      3.568000   -6.142000   -1.040000
  C     -1.476000   -4.049000   -0.034000
  C      2.803000   -4.099000   -0.008000
  C      3.657000   -4.384000    1.069000
  C      4.427000   -5.530000    1.059000
  C      5.245000   -7.588000    0.014000
  C     -0.134000   -4.315000   -0.022000
  C      0.568000   -3.064000   -0.027000
  C      2.775000   -5.012000   -1.074000
  N      4.376000   -6.391000    0.017000
  C      1.959000   -2.869000   -0.009000
  C      2.621000   -1.622000    0.009000
  C      5.543000    4.339000   -1.130000
  C      4.070000   -1.479000   -0.094000
  C      4.104000    2.751000   -0.021000
  C      5.027000    2.729000    1.036000
  C      6.166000    3.509000    0.978000
  C      7.619000    5.153000   -0.115000
  C      4.321000   -0.148000   -0.092000
  C      3.025000    0.514000    0.015000
  C      4.387000    3.582000   -1.115000
  C      2.866000    1.916000    0.013000
  N      6.413000    4.296000   -0.095000
  H     -5.893000    5.292000   -0.761000
  H      2.274000    4.766000    0.081000
  H     -1.284000    5.370000    0.930000
  H     -2.739000    7.389000    0.933000
  H     -5.663000    7.676000    1.129000
  H     -4.551000    8.488000   -0.014000
  H     -5.947000    7.563000   -0.633000
  H     -0.332000    5.282000    0.069000
  H     -4.569000    3.187000   -0.830000
  H      0.182000    1.072000    0.005000
  H     -0.183000   -1.080000   -0.021000
  H     -5.864000   -4.962000    1.895000
  H     -4.794000    2.272000    0.139000
  H     -4.800000   -2.160000   -1.994000
  H     -6.841000   -3.582000   -1.893000
  H     -8.428000   -4.536000    0.546000
  H     -7.956000   -5.337000   -0.981000
  H     -7.456000   -6.037000    0.584000
  H     -5.287000   -0.344000    0.100000
  H     -3.780000   -3.601000    1.947000
  H      3.587000   -6.868000   -1.843000
  H     -2.276000   -4.774000   -0.050000
  H      3.714000   -3.724000    1.926000
  H      5.092000   -5.795000    1.871000
  H      6.205000   -7.329000   -0.439000
  H      5.393000   -7.917000    1.042000
  H      4.759000   -8.373000   -0.564000
  H      0.329000   -5.290000   -0.008000
  H      2.146000   -4.842000   -1.940000
  H      5.808000    4.986000   -1.956000
  H      4.788000   -2.281000   -0.185000
  H      4.860000    2.114000    1.912000
  H      6.901000    3.531000    1.772000
  H      7.383000    6.109000    0.356000
  H      8.414000    4.652000    0.435000
  H      7.921000    5.310000   -1.150000
  H      5.283000    0.336000   -0.179000
  H      3.720000    3.632000   -1.967000

 Total Charge           Charge          ....    0
 Multiplicity           Mult            ....    1
 Number of Electrons    NEL             ....  358
 Basis Dimension        Dim             ....  918

ORBITAL ENERGIES
----------------

  NO   OCC          E(Eh)            E(eV)
   0   2.0000     -15.677220      -426.5988
   1   2.0000     -15.636542      -425.4919
   2   2.0000     -15.629396      -425.2975
   3   2.0000     -15.587884      -424.1679
   4   2.0000     -15.525640      -422.4741
   5   2.0000     -15.515660      -422.2026
   6   2.0000     -15.452806      -420.4922
   7   2.0000     -15.441722      -420.1906
   8   2.0000     -11.327638      -308.2407
   9   2.0000     -11.326344      -308.2055
  10   2.0000     -11.325823      -308.1913
  11   2.0000     -11.300927      -307.5138
  12   2.0000     -11.296829      -307.4023
  13   2.0000     -11.295009      -307.3528
  14   2.0000     -11.289033      -307.1902
  15   2.0000     -11.288985      -307.1889
  16   2.0000     -11.284609      -307.0698
  17   2.0000     -11.279664      -306.9353
  18   2.0000     -11.270796      -306.6940
  19   2.0000     -11.261609      -306.4440
  20   2.0000     -11.260646      -306.4178
  21   2.0000     -11.252895      -306.2068
  22   2.0000     -11.251416      -306.1666
  23   2.0000     -11.240240      -305.8625
  24   2.0000     -11.234252      -305.6995
  25   2.0000     -11.233135      -305.6691
  26   2.0000     -11.232523      -305.6525
  27   2.0000     -11.227945      -305.5279
  28   2.0000     -11.227618      -305.5190
  29   2.0000     -11.211616      -305.0836
  30   2.0000     -11.210109      -305.0426
  31   2.0000     -11.196184      -304.6637
  32   2.0000     -11.190542      -304.5101
  33   2.0000     -11.189685      -304.4868
  34   2.0000     -11.188295      -304.4490
  35   2.0000     -11.186433      -304.3983
  36   2.0000     -11.185291      -304.3672
  37   2.0000     -11.185219      -304.3653
  38   2.0000     -11.184918      -304.3571
  39   2.0000     -11.174674      -304.0783
  40   2.0000     -11.174174      -304.0647
  41   2.0000     -11.169328      -303.9329
  42   2.0000     -11.169027      -303.9247
  43   2.0000     -11.160699      -303.6981
  44   2.0000     -11.159967      -303.6781
  45   2.0000     -11.158636      -303.6419
  46   2.0000     -11.156057      -303.5717
  47   2.0000     -11.154572      -303.5313
  48   2.0000     -11.146329      -303.3070
  49   2.0000     -11.136753      -303.0465
  50   2.0000     -11.131862      -302.9134
  51   2.0000     -11.121285      -302.6256
  52   2.0000      -1.358194       -36.9583
  53   2.0000      -1.323450       -36.0129
  54   2.0000      -1.317520       -35.8515
  55   2.0000      -1.281753       -34.8783
  56   2.0000      -1.226645       -33.3787
  57   2.0000      -1.209958       -32.9246
  58   2.0000      -1.172013       -31.8921
  59   2.0000      -1.152047       -31.3488
  60   2.0000      -1.141814       -31.0703
  61   2.0000      -1.112053       -30.2605
  62   2.0000      -1.107283       -30.1307
  63   2.0000      -1.080057       -29.3898
  64   2.0000      -1.078308       -29.3422
  65   2.0000      -1.047556       -28.5054
  66   2.0000      -1.042279       -28.3619
  67   2.0000      -1.040005       -28.3000
  68   2.0000      -1.015313       -27.6281
  69   2.0000      -1.011944       -27.5364
  70   2.0000      -1.008872       -27.4528
  71   2.0000      -0.993970       -27.0473
  72   2.0000      -0.985975       -26.8297
  73   2.0000      -0.981226       -26.7005
  74   2.0000      -0.971947       -26.4480
  75   2.0000      -0.960866       -26.1465
  76   2.0000      -0.953557       -25.9476
  77   2.0000      -0.945761       -25.7355
  78   2.0000      -0.935040       -25.4437
  79   2.0000      -0.918067       -24.9819
  80   2.0000      -0.908689       -24.7267
  81   2.0000      -0.895016       -24.3546
  82   2.0000      -0.875714       -23.8294
  83   2.0000      -0.873535       -23.7701
  84   2.0000      -0.868511       -23.6334
  85   2.0000      -0.857229       -23.3264
  86   2.0000      -0.839060       -22.8320
  87   2.0000      -0.836556       -22.7638
  88   2.0000      -0.824704       -22.4413
  89   2.0000      -0.797361       -21.6973
  90   2.0000      -0.790184       -21.5020
  91   2.0000      -0.752548       -20.4779
  92   2.0000      -0.745942       -20.2981
  93   2.0000      -0.733806       -19.9679
  94   2.0000      -0.725184       -19.7333
  95   2.0000      -0.722445       -19.6587
  96   2.0000      -0.716786       -19.5047
  97   2.0000      -0.713450       -19.4140
  98   2.0000      -0.707980       -19.2651
  99   2.0000      -0.697809       -18.9884
 100   2.0000      -0.696262       -18.9462
 101   2.0000      -0.685163       -18.6442
 102   2.0000      -0.682565       -18.5735
 103   2.0000      -0.679694       -18.4954
 104   2.0000      -0.679470       -18.4893
 105   2.0000      -0.672748       -18.3064
 106   2.0000      -0.670528       -18.2460
 107   2.0000      -0.660923       -17.9846
 108   2.0000      -0.655365       -17.8334
 109   2.0000      -0.654536       -17.8108
 110   2.0000      -0.649794       -17.6818
 111   2.0000      -0.644301       -17.5323
 112   2.0000      -0.643870       -17.5206
 113   2.0000      -0.638771       -17.3819
 114   2.0000      -0.636889       -17.3306
 115   2.0000      -0.626896       -17.0587
 116   2.0000      -0.622317       -16.9341
 117   2.0000      -0.619040       -16.8449
 118   2.0000      -0.614426       -16.7194
 119   2.0000      -0.613291       -16.6885
 120   2.0000      -0.609912       -16.5966
 121   2.0000      -0.609459       -16.5842
 122   2.0000      -0.599466       -16.3123
 123   2.0000      -0.586603       -15.9623
 124   2.0000      -0.583013       -15.8646
 125   2.0000      -0.580496       -15.7961
 126   2.0000      -0.578852       -15.7514
 127   2.0000      -0.573876       -15.6160
 128   2.0000      -0.568790       -15.4775
 129   2.0000      -0.559132       -15.2148
 130   2.0000      -0.551212       -14.9992
 131   2.0000      -0.547648       -14.9023
 132   2.0000      -0.543383       -14.7862
 133   2.0000      -0.542224       -14.7547
 134   2.0000      -0.539625       -14.6839
 135   2.0000      -0.534592       -14.5470
 136   2.0000      -0.528680       -14.3861
 137   2.0000      -0.520481       -14.1630
 138   2.0000      -0.518436       -14.1074
 139   2.0000      -0.514200       -13.9921
 140   2.0000      -0.511783       -13.9263
 141   2.0000      -0.510698       -13.8968
 142   2.0000      -0.510253       -13.8847
 143   2.0000      -0.504150       -13.7186
 144   2.0000      -0.500405       -13.6167
 145   2.0000      -0.495908       -13.4943
 146   2.0000      -0.492829       -13.4106
 147   2.0000      -0.482490       -13.1292
 148   2.0000      -0.477897       -13.0042
 149   2.0000      -0.467121       -12.7110
 150   2.0000      -0.466062       -12.6822
 151   2.0000      -0.457063       -12.4373
 152   2.0000      -0.450513       -12.2591
 153   2.0000      -0.445810       -12.1311
 154   2.0000      -0.440817       -11.9952
 155   2.0000      -0.428050       -11.6478
 156   2.0000      -0.420888       -11.4529
 157   2.0000      -0.412738       -11.2312
 158   2.0000      -0.407399       -11.0859
 159   2.0000      -0.387317       -10.5394
 160   2.0000      -0.385955       -10.5024
 161   2.0000      -0.378079       -10.2881
 162   2.0000      -0.371386       -10.1059
 163   2.0000      -0.358450        -9.7539
 164   2.0000      -0.354189        -9.6380
 165   2.0000      -0.340738        -9.2719
 166   2.0000      -0.337883        -9.1943
 167   2.0000      -0.326327        -8.8798
 168   2.0000      -0.321808        -8.7568
 169   2.0000      -0.305782        -8.3208
 170   2.0000      -0.299373        -8.1464
 171   2.0000      -0.285152        -7.7594
 172   2.0000      -0.280269        -7.6265
 173   2.0000      -0.262675        -7.1478
 174   2.0000      -0.242425        -6.5967
 175   2.0000      -0.190112        -5.1732
 176   2.0000      -0.180665        -4.9161
 177   2.0000      -0.077966        -2.1216
 178   2.0000      -0.059047        -1.6067
 179   0.0000       0.028199         0.7673
 180   0.0000       0.065513         1.7827
 181   0.0000       0.090863         2.4725
 182   0.0000       0.107832         2.9343
 183   0.0000       0.112424         3.0592

MULLIKEN ATOMIC CHARGES
-----------------------
   0 C :    0.210633
   1 N :   -0.456685
   2 C :   -0.072359
   3 N :   -0.338749
   4 C :   -0.057146
   5 N :   -0.564061
   6 C :   -0.122339
   7 N :   -0.340669
   8 C :    0.211646
   9 N :   -0.562601
  10 C :    0.119039
  11 N :   -0.437951
  12 C :   -0.073075
  13 N :   -0.429956
  14 C :    0.215732
  15 N :   -0.441454
  16 C :    0.231339
  17 C :   -0.119968
  18 C :   -0.156147
  19 C :    0.203650
  20 C :    0.214453
  21 C :   -0.086773
  22 C :   -0.089102
  23 C :   -0.040173
  24 C :    0.195224
  25 C :    0.114264
  26 C :   -0.083347
  27 C :    0.212787
  28 C :   -0.060998
  29 C :   -0.181771
  30 C :    0.245495
  31 C :    0.230156
  32 C :   -0.061319
  33 C :   -0.061599
  34 C :   -0.050043
  35 C :    0.226044
  36 C :    0.108566
  37 C :   -0.064359
  38 C :    0.232373
  39 C :   -0.058765
  40 C :   -0.181015
  41 C :    0.224470
  42 C :    0.196992
  43 C :   -0.072693
  44 C :   -0.090920
  45 C :   -0.061226
  46 C :    0.210021
  47 C :    0.115645
  48 C :   -0.067599
  49 C :    0.237850
  50 C :   -0.046639
  51 C :   -0.194790
  52 H :    0.037694
  53 H :   -0.017432
  54 H :    0.049952
  55 H :    0.036708
  56 H :    0.049030
  57 H :    0.047672
  58 H :    0.046504
  59 H :   -0.000185
  60 H :    0.052361
  61 H :    0.170958
  62 H :    0.175647
  63 H :    0.056223
  64 H :   -0.005553
  65 H :    0.047136
  66 H :    0.056350
  67 H :    0.063231
  68 H :    0.057652
  69 H :    0.056994
  70 H :   -0.029188
  71 H :    0.045811
  72 H :    0.070651
  73 H :   -0.008094
  74 H :    0.059821
  75 H :    0.069956
  76 H :    0.074375
  77 H :    0.067529
  78 H :    0.066715
  79 H :   -0.016003
  80 H :    0.060504
  81 H :    0.053818
  82 H :   -0.025250
  83 H :    0.041077
  84 H :    0.053322
  85 H :    0.060149
  86 H :    0.055076
  87 H :    0.056815
  88 H :   -0.014758
  89 H :    0.046642
Sum of atomic charges:   -0.0000000

LOEWDIN ATOMIC CHARGES
----------------------
   0 C :   -0.024031
   1 N :    0.116546
   2 C :   -0.102681
   3 N :    0.183373
   4 C :   -0.012682
   5 N :   -0.131335
   6 C :   -0.043811
   7 N :    0.175354
   8 C :   -0.020272
   9 N :   -0.140588
  10 C :    0.023087
  11 N :    0.143210
  12 C :   -0.115827
  13 N :    0.165005
  14 C :   -0.026147
  15 N :    0.137622
  16 C :   -0.058476
  17 C :   -0.042444
  18 C :   -0.103639
  19 C :   -0.080780
  20 C :    0.005785
  21 C :   -0.122271
  22 C :    0.038902
  23 C :   -0.014710
  24 C :   -0.010931
  25 C :    0.030122
  26 C :   -0.109015
  27 C :   -0.116594
  28 C :   -0.026705
  29 C :   -0.098673
  30 C :   -0.031405
  31 C :    0.024004
  32 C :   -0.093519
  33 C :    0.079749
  34 C :   -0.014690
  35 C :    0.020687
  36 C :    0.034958
  37 C :   -0.094346
  38 C :   -0.050014
  39 C :   -0.018515
  40 C :   -0.108147
  41 C :   -0.093317
  42 C :   -0.010979
  43 C :   -0.099852
  44 C :    0.031568
  45 C :   -0.028412
  46 C :    0.000249
  47 C :    0.029235
  48 C :   -0.096043
  49 C :   -0.069918
  50 C :   -0.019181
  51 C :   -0.110119
  52 H :    0.022735
  53 H :    0.002684
  54 H :    0.035082
  55 H :    0.023092
  56 H :    0.021554
  57 H :    0.026336
  58 H :    0.026730
  59 H :    0.011808
  60 H :    0.038402
  61 H :    0.060009
  62 H :    0.061930
  63 H :    0.031160
  64 H :    0.008524
  65 H :    0.045891
  66 H :    0.029594
  67 H :    0.028622
  68 H :    0.031821
  69 H :    0.030592
  70 H :   -0.004415
  71 H :    0.043936
  72 H :    0.037436
  73 H :    0.007080
  74 H :    0.050497
  75 H :    0.036962
  76 H :    0.034509
  77 H :    0.035965
  78 H :    0.035604
  79 H :    0.003240
  80 H :    0.050346
  81 H :    0.028839
  82 H :   -0.002919
  83 H :    0.042158
  84 H :    0.029465
  85 H :    0.027023
  86 H :    0.029955
  87 H :    0.031220
  88 H :    0.002259
  89 H :    0.044883

  Mayer bond orders larger than 0.100000
B(  0-C ,  1-N ) :   1.0883 B(  0-C , 17-C ) :   1.7144 B(  0-C , 52-H ) :   0.9652
B(  1-N ,  8-C ) :   1.0912 B(  1-N , 10-C ) :   0.9787 B(  2-C , 12-C ) :   1.4981
B(  2-C , 16-C ) :   1.3630 B(  2-C , 53-H ) :   0.9750 B(  3-N , 14-C ) :   1.2192
B(  3-N , 16-C ) :   1.1883 B(  3-N , 61-H ) :   0.8993 B(  4-C ,  6-C ) :   1.2109
B(  4-C , 17-C ) :   1.2117 B(  4-C , 18-C ) :   1.4531 B(  5-N , 19-C ) :   1.4547
B(  5-N , 27-C ) :   1.3766 B(  6-C ,  8-C ) :   1.7129 B(  6-C , 54-H ) :   0.9411
B(  7-N , 30-C ) :   1.1943 B(  7-N , 38-C ) :   1.1913 B(  7-N , 62-H ) :   0.8967
B(  8-C , 55-H ) :   0.9661 B(  9-N , 41-C ) :   1.3923 B(  9-N , 49-C ) :   1.4279
B( 10-C , 56-H ) :   0.9771 B( 10-C , 57-H ) :   0.9832 B( 10-C , 58-H ) :   0.9834
B( 11-N , 20-C ) :   1.1323 B( 11-N , 24-C ) :   1.1094 B( 11-N , 25-C ) :   0.9592
B( 12-C , 14-C ) :   1.3583 B( 12-C , 59-H ) :   0.9669 B( 13-N , 31-C ) :   1.1607
B( 13-N , 35-C ) :   1.1565 B( 13-N , 36-C ) :   0.9423 B( 14-C , 18-C ) :   1.1227
B( 15-N , 42-C ) :   1.1066 B( 15-N , 46-C ) :   1.1220 B( 15-N , 47-C ) :   0.9622
B( 16-C , 51-C ) :   1.1689 B( 17-C , 60-H ) :   0.9433 B( 18-C , 19-C ) :   1.1247
B( 19-C , 21-C ) :   1.2483 B( 20-C , 28-C ) :   1.6264 B( 20-C , 63-H ) :   0.9702
B( 21-C , 26-C ) :   1.6016 B( 21-C , 64-H ) :   0.9664 B( 22-C , 23-C ) :   1.2910
B( 22-C , 28-C ) :   1.2663 B( 22-C , 29-C ) :   1.2215 B( 23-C , 24-C ) :   1.6179
B( 23-C , 65-H ) :   0.9704 B( 24-C , 66-H ) :   0.9695 B( 25-C , 67-H ) :   0.9760
B( 25-C , 68-H ) :   0.9828 B( 25-C , 69-H ) :   0.9823 B( 26-C , 27-C ) :   1.2455
B( 26-C , 70-H ) :   0.9692 B( 27-C , 29-C ) :   1.2106 B( 28-C , 71-H ) :   0.9719
B( 29-C , 30-C ) :   1.2456 B( 30-C , 32-C ) :   1.2792 B( 31-C , 39-C ) :   1.5903
B( 31-C , 72-H ) :   0.9682 B( 32-C , 37-C ) :   1.5801 B( 32-C , 73-H ) :   0.9785
B( 33-C , 34-C ) :   1.3067 B( 33-C , 39-C ) :   1.3012 B( 33-C , 40-C ) :   1.1784
B( 34-C , 35-C ) :   1.5870 B( 34-C , 74-H ) :   0.9696 B( 35-C , 75-H ) :   0.9682
B( 36-C , 76-H ) :   0.9767 B( 36-C , 77-H ) :   0.9816 B( 36-C , 78-H ) :   0.9824
B( 37-C , 38-C ) :   1.2841 B( 37-C , 79-H ) :   0.9766 B( 38-C , 40-C ) :   1.2342
B( 39-C , 80-H ) :   0.9706 B( 40-C , 41-C ) :   1.2489 B( 41-C , 43-C ) :   1.1877
B( 42-C , 50-C ) :   1.6356 B( 42-C , 81-H ) :   0.9697 B( 43-C , 48-C ) :   1.6646
B( 43-C , 82-H ) :   0.9721 B( 44-C , 45-C ) :   1.2620 B( 44-C , 50-C ) :   1.2699
B( 44-C , 51-C ) :   1.2651 B( 45-C , 46-C ) :   1.6367 B( 45-C , 83-H ) :   0.9718
B( 46-C , 84-H ) :   0.9701 B( 47-C , 85-H ) :   0.9762 B( 47-C , 86-H ) :   0.9829
B( 47-C , 87-H ) :   0.9825 B( 48-C , 49-C ) :   1.1912 B( 48-C , 88-H ) :   0.9749
B( 49-C , 51-C ) :   1.2399 B( 50-C , 89-H ) :   0.9709

MP2 TOTAL ENERGY:    -2130.868080775 Eh
FINAL SINGLE POINT ENERGY     -2130.868080774754

DIPOLE MOMENT
-------------
                                X             Y             Z
Electronic contribution:      2.42140      -4.32069      -0.22220
Nuclear contribution   :      0.04432       0.21658       0.21946
                        -----------------------------------------
Total Dipole Moment    :      2.46572      -4.10411      -0.00274
                        -----------------------------------------
Magnitude (a.u.)       :      4.78785
Magnitude (Debye)      :     12.16974

Rotational constants in cm-1:     0.001501     0.001479     0.000760
Rotational constants in MHz :    44.988726    44.330816    22.794668

                             ****ORCA TERMINATED NORMALLY****
TOTAL RUN TIME: 0 days 1 hours 19 minutes 4 seconds 581 msec
