                         Program Version 5.0.4 -  RELEASE  -
|  1> ! PAL2
|  2> ! mp2 cc-pvdz TightSCF  NoKeepInts
|  3>
|  4> %scf
|  5>   MaxCore 2000
|  6> end
|  7> %mp2
|  8>   MaxCore 2000
|  9> end
| 10> * xyz 0 1
| 11>    C       -4.93300         5.19200         0.32100
| 12>    C        1.47400         4.04100         0.05700
| 13>    C       -2.80200         4.09300         0.04900
| 14>    C       -2.24100         5.35500        -0.20000
| 15>    C       -3.03500         6.48400        -0.17800
| 16>    C       -5.17900         7.62500         0.13000
| 17>    C        0.13200         4.30700         0.06100
| 18>    C       -0.56900         3.05600         0.04700
| 19>    C        1.64900         2.61800         0.02300
| 20>    C       -4.17900         4.03500         0.31600
| 21>    N       -4.36200         6.39300         0.07600
| 22>    N        0.38800         2.06700         0.02500
| 23>    N       -2.01000         0.39500        -0.07500
| 24>    N       -0.38800        -2.07400        -0.02700
| 25>    N        2.01000        -0.40100         0.06500
| 26>    C       -1.96000         2.86100         0.02400
| 27>    C       -2.62300         1.61500        -0.01800
| 28>    C       -5.57300        -4.32900         1.06600
| 29>    C       -4.07300         1.47100         0.05600
| 30>    C       -4.10600        -2.75600        -0.02600
| 31>    C       -4.99500        -2.75700        -1.11100
| 32>    C       -6.13200        -3.54200        -1.07600
| 33>    C       -7.65100        -5.11300         0.04000
| 34>    C       -4.32400         0.14100         0.03700
| 35>    C       -3.02500        -0.52000        -0.04800
| 36>    C       -4.42200        -3.56600         1.07500
| 37>    N       -6.40700        -4.31300         0.00100
| 38>    C       -2.86700        -1.92200        -0.04000
| 39>    C       -1.65000        -2.62400        -0.02700
| 40>    C        3.56800        -6.14200        -1.04000
| 41>    C       -1.47600        -4.04900        -0.03400
| 42>    C        2.80300        -4.09900        -0.00800
| 43>    C        3.65700        -4.38400         1.06900
| 44>    C        4.42700        -5.53000         1.05900
| 45>    C        5.24500        -7.58800         0.01400
| 46>    C       -0.13400        -4.31500        -0.02200
| 47>    C        0.56800        -3.06400        -0.02700
| 48>    C        2.77500        -5.01200        -1.07400
| 49>    N        4.37600        -6.39100         0.01700
| 50>    C        1.95900        -2.86900        -0.00900
| 51>    C        2.62100        -1.62200         0.00900
| 52>    C        5.54300         4.33900        -1.13000
| 53>    C        4.07000        -1.47900        -0.09400
| 54>    C        4.10400         2.75100        -0.02100
| 55>    C        5.02700         2.72900         1.03600
| 56>    C        6.16600         3.50900         0.97800
| 57>    C        7.61900         5.15300        -0.11500
| 58>    C        4.32100        -0.14800        -0.09200
| 59>    C        3.02500         0.51400         0.01500
| 60>    C        4.38700         3.58200        -1.11500
| 61>    C        2.86600         1.91600         0.01300
| 62>    N        6.41300         4.29600        -0.09500
| 63>    H       -6.00000         5.19300         0.51000
| 64>    H        2.27400         4.76600         0.08100
| 65>    H       -1.18300         5.46600        -0.40300
| 66>    H       -2.64700         7.47800        -0.35500
| 67>    H       -5.12100         8.04600         1.13600
| 68>    H       -4.78900         8.33700        -0.59700
| 69>    H       -6.21100         7.37200        -0.11100
| 70>    H       -0.33200         5.28200         0.06900
| 71>    H       -4.67300         3.08800         0.50200
| 72>    H        0.18200         1.07200         0.00500
| 73>    H       -0.18300        -1.08000        -0.02100
| 74>    H       -5.86400        -4.96200         1.89500
| 75>    H       -4.79400         2.27200         0.13900
| 76>    H       -4.80000        -2.16000        -1.99400
| 77>    H       -6.84100        -3.58200        -1.89300
| 78>    H       -8.42800        -4.53600         0.54600
| 79>    H       -7.95600        -5.33700        -0.98100
| 80>    H       -7.45600        -6.03700         0.58400
| 81>    H       -5.28700        -0.34400         0.10000
| 82>    H       -3.78000        -3.60100         1.94700
| 83>    H        3.58700        -6.86800        -1.84300
| 84>    H       -2.27600        -4.77400        -0.05000
| 85>    H        3.71400        -3.72400         1.92600
| 86>    H        5.09200        -5.79500         1.87100
| 87>    H        6.20500        -7.32900        -0.43900
| 88>    H        5.39300        -7.91700         1.04200
| 89>    H        4.75900        -8.37300        -0.56400
| 90>    H        0.32900        -5.29000        -0.00800
| 91>    H        2.14600        -4.84200        -1.94000
| 92>    H        5.80800         4.98600        -1.95600
| 93>    H        4.78800        -2.28100        -0.18500
| 94>    H        4.86000         2.11400         1.91200
| 95>    H        6.90100         3.53100         1.77200
| 96>    H        7.38300         6.10900         0.35600
| 97>    H        8.41400         4.65200         0.43500
| 98>    H        7.92100         5.31000        -1.15000
| 99>    H        5.28300         0.33600        -0.17900
|100>    H        3.72000         3.63200        -1.96700
|101> *
|102>
|103>                          ****END OF INPUT****

CARTESIAN COORDINATES (ANGSTROEM)
---------------------------------
  C     -4.933000    5.192000    0.321000
  C      1.474000    4.041000    0.057000
  C     -2.802000    4.093000    0.049000
  C     -2.241000    5.355000   -0.200000
  C     -3.035000    6.484000   -0.178000
  C     -5.179000    7.625000    0.130000
  C      0.132000    4.307000    0.061000
  C     -0.569000    3.056000    0.047000
  C      1.649000    2.618000    0.023000
  C     -4.179000    4.035000    0.316000
  N     -4.362000    6.393000    0.076000
  N      0.388000    2.067000    0.025000
  N     -2.010000    0.395000   -0.075000
  N     -0.388000   -2.074000   -0.027000
  N      2.010000   -0.401000    0.065000
  C     -1.960000    2.861000    0.024000
  C     -2.623000    1.615000   -0.018000
  C     -5.573000   -4.329000    1.066000
  C     -4.073000    1.471000    0.056000
  C     -4.106000   -2.756000   -0.026000
  C     -4.995000   -2.757000   -1.111000
  C     -6.132000   -3.542000   -1.076000
  C     -7.651000   -5.113000    0.040000
  C     -4.324000    0.141000    0.037000
  C     -3.025000   -0.520000   -0.048000
  C     -4.422000   -3.566000    1.075000
  N     -6.407000   -4.313000    0.001000
  C     -2.867000   -1.922000   -0.040000
  C     -1.650000   -2.624000   -0.027000
  C      3.568000   -6.142000   -1.040000
  C     -1.476000   -4.049000   -0.034000
  C      2.803000   -4.099000   -0.008000
  C      3.657000   -4.384000    1.069000
  C      4.427000   -5.530000    1.059000
  C      5.245000   -7.588000    0.014000
  C     -0.134000   -4.315000   -0.022000
  C      0.568000   -3.064000   -0.027000
  C      2.775000   -5.012000   -1.074000
  N      4.376000   -6.391000    0.017000
  C      1.959000   -2.869000   -0.009000
  C      2.621000   -1.622000    0.009000
  C      5.543000    4.339000   -1.130000
  C      4.070000   -1.479000   -0.094000
  C      4.104000    2.751000   -0.021000
  C      5.027000    2.729000    1.036000
  C      6.166000    3.509000    0.978000
  C      7.619000    5.153000   -0.115000
  C      4.321000   -0.148000   -0.092000
  C      3.025000    0.514000    0.015000
  C      4.387000    3.582000   -1.115000
  C      2.866000    1.916000    0.013000
  N      6.413000    4.296000   -0.095000
  H     -6.000000    5.193000    0.510000
  H      2.274000    4.766000    0.081000
  H     -1.183000    5.466000   -0.403000
  H     -2.647000    7.478000   -0.355000
  H     -5.121000    8.046000    1.136000
  H     -4.789000    8.337000   -0.597000
  H     -6.211000    7.372000   -0.111000
  H     -0.332000    5.282000    0.069000
  H     -4.673000    3.088000    0.502000
  H      0.182000    1.072000    0.005000
  H     -0.183000   -1.080000   -0.021000
  H     -5.864000   -4.962000    1.895000
  H     -4.794000    2.272000    0.139000
  H     -4.800000   -2.160000   -1.994000
  H     -6.841000   -3.582000   -1.893000
  H     -8.428000   -4.536000    0.546000
  H     -7.956000   -5.337000   -0.981000
  H     -7.456000   -6.037000    0.584000
  H     -5.287000   -0.344000    0.100000
  H     -3.780000   -3.601000    1.947000
  H      3.587000   -6.868000   -1.843000
  H     -2.276000   -4.774000   -0.050000
  H      3.714000   -3.724000    1.926000
  H      5.092000   -5.795000    1.871000
  H      6.205000   -7.329000   -0.439000
  H      5.393000   -7.917000    1.042000
  H      4.759000   -8.373000   -0.564000
  H      0.329000   -5.290000   -0.008000
  H      2.146000   -4.842000   -1.940000
  H      5.808000    4.986000   -1.956000
  H      4.788000   -2.281000   -0.185000
  H      4.860000    2.114000    1.912000
  H      6.901000    3.531000    1.772000
  H      7.383000    6.109000    0.356000
  H      8.414000    4.652000    0.435000
  H      7.921000    5.310000   -1.150000
  H      5.283000    0.336000   -0.179000
  H      3.720000    3.632000   -1.967000

 Total Charge           Charge          ....    0
 Multiplicity           Mult            ....    1
 Number of Electrons    NEL             ....  358
 Basis Dimension        Dim             ....  918

ORBITAL ENERGIES
----------------

  NO   OCC          E(Eh)            E(eV)
   0   2.0000     -15.679710      -426.6666
   1   2.0000     -15.633542      -425.4103
   2   2.0000     -15.632271      -425.3757
   3   2.0000     -15.588210      -424.1767
   4   2.0000     -15.525027      -422.4575
   5   2.0000     -15.515659      -422.2026
   6   2.0000     -15.453893      -420.5218
   7   2.0000     -15.439558      -420.1317
   8   2.0000     -11.329306      -308.2861
   9   2.0000     -11.328338      -308.2598
  10   2.0000     -11.327878      -308.2472
  11   2.0000     -11.299052      -307.4628
  12   2.0000     -11.298642      -307.4517
  13   2.0000     -11.292654      -307.2887
  14   2.0000     -11.291570      -307.2592
  15   2.0000     -11.286943      -307.1333
  16   2.0000     -11.286145      -307.1116
  17   2.0000     -11.281961      -306.9978
  18   2.0000     -11.269857      -306.6684
  19   2.0000     -11.263301      -306.4900
  20   2.0000     -11.262305      -306.4629
  21   2.0000     -11.251085      -306.1576
  22   2.0000     -11.249663      -306.1189
  23   2.0000     -11.237314      -305.7829
  24   2.0000     -11.237032      -305.7752
  25   2.0000     -11.230807      -305.6058
  26   2.0000     -11.230067      -305.5857
  27   2.0000     -11.230042      -305.5850
  28   2.0000     -11.229910      -305.5814
  29   2.0000     -11.210903      -305.0642
  30   2.0000     -11.209531      -305.0269
  31   2.0000     -11.194388      -304.6148
  32   2.0000     -11.191607      -304.5391
  33   2.0000     -11.191432      -304.5344
  34   2.0000     -11.188549      -304.4559
  35   2.0000     -11.188327      -304.4498
  36   2.0000     -11.187152      -304.4179
  37   2.0000     -11.176360      -304.1242
  38   2.0000     -11.174582      -304.0758
  39   2.0000     -11.171922      -304.0035
  40   2.0000     -11.171711      -303.9977
  41   2.0000     -11.170950      -303.9770
  42   2.0000     -11.168195      -303.9020
  43   2.0000     -11.162005      -303.7336
  44   2.0000     -11.160488      -303.6923
  45   2.0000     -11.156826      -303.5927
  46   2.0000     -11.156520      -303.5844
  47   2.0000     -11.152329      -303.4703
  48   2.0000     -11.147000      -303.3253
  49   2.0000     -11.135283      -303.0064
  50   2.0000     -11.129439      -302.8474
  51   2.0000     -11.117273      -302.5164
  52   2.0000      -1.360308       -37.0159
  53   2.0000      -1.320844       -35.9420
  54   2.0000      -1.319998       -35.9190
  55   2.0000      -1.280632       -34.8478
  56   2.0000      -1.226088       -33.3635
  57   2.0000      -1.210421       -32.9372
  58   2.0000      -1.173564       -31.9343
  59   2.0000      -1.150596       -31.3093
  60   2.0000      -1.143595       -31.1188
  61   2.0000      -1.110231       -30.2109
  62   2.0000      -1.108982       -30.1769
  63   2.0000      -1.082004       -29.4428
  64   2.0000      -1.077535       -29.3212
  65   2.0000      -1.045038       -28.4369
  66   2.0000      -1.044635       -28.4260
  67   2.0000      -1.041091       -28.3295
  68   2.0000      -1.014936       -27.6178
  69   2.0000      -1.013712       -27.5845
  70   2.0000      -1.009098       -27.4590
  71   2.0000      -0.993477       -27.0339
  72   2.0000      -0.985702       -26.8223
  73   2.0000      -0.981710       -26.7137
  74   2.0000      -0.973328       -26.4856
  75   2.0000      -0.962208       -26.1830
  76   2.0000      -0.954732       -25.9796
  77   2.0000      -0.946071       -25.7439
  78   2.0000      -0.937889       -25.5212
  79   2.0000      -0.917044       -24.9540
  80   2.0000      -0.910477       -24.7753
  81   2.0000      -0.897182       -24.4136
  82   2.0000      -0.876763       -23.8579
  83   2.0000      -0.872002       -23.7284
  84   2.0000      -0.870833       -23.6966
  85   2.0000      -0.860199       -23.4072
  86   2.0000      -0.843805       -22.9611
  87   2.0000      -0.836506       -22.7625
  88   2.0000      -0.828006       -22.5312
  89   2.0000      -0.796618       -21.6771
  90   2.0000      -0.789189       -21.4749
  91   2.0000      -0.766196       -20.8492
  92   2.0000      -0.752883       -20.4870
  93   2.0000      -0.733696       -19.9649
  94   2.0000      -0.727189       -19.7878
  95   2.0000      -0.724442       -19.7131
  96   2.0000      -0.719434       -19.5768
  97   2.0000      -0.717184       -19.5156
  98   2.0000      -0.713178       -19.4066
  99   2.0000      -0.698334       -19.0026
 100   2.0000      -0.698003       -18.9936
 101   2.0000      -0.693493       -18.8709
 102   2.0000      -0.685291       -18.6477
 103   2.0000      -0.684263       -18.6197
 104   2.0000      -0.678769       -18.4702
 105   2.0000      -0.674481       -18.3536
 106   2.0000      -0.672615       -18.3028
 107   2.0000      -0.660620       -17.9764
 108   2.0000      -0.658142       -17.9089
 109   2.0000      -0.652735       -17.7618
 110   2.0000      -0.652151       -17.7459
 111   2.0000      -0.646110       -17.5815
 112   2.0000      -0.645503       -17.5650
 113   2.0000      -0.637793       -17.3552
 114   2.0000      -0.636204       -17.3120
 115   2.0000      -0.628404       -17.0998
 116   2.0000      -0.622911       -16.9503
 117   2.0000      -0.621101       -16.9010
 118   2.0000      -0.613083       -16.6828
 119   2.0000      -0.612026       -16.6541
 120   2.0000      -0.611860       -16.6496
 121   2.0000      -0.611275       -16.6336
 122   2.0000      -0.601295       -16.3621
 123   2.0000      -0.588447       -16.0124
 124   2.0000      -0.581406       -15.8209
 125   2.0000      -0.580970       -15.8090
 126   2.0000      -0.580225       -15.7887
 127   2.0000      -0.571182       -15.5426
 128   2.0000      -0.567586       -15.4448
 129   2.0000      -0.559899       -15.2356
 130   2.0000      -0.554578       -15.0908
 131   2.0000      -0.547920       -14.9097
 132   2.0000      -0.542719       -14.7681
 133   2.0000      -0.540865       -14.7177
 134   2.0000      -0.538592       -14.6558
 135   2.0000      -0.536251       -14.5921
 136   2.0000      -0.531516       -14.4633
 137   2.0000      -0.519039       -14.1238
 138   2.0000      -0.516737       -14.0611
 139   2.0000      -0.514819       -14.0089
 140   2.0000      -0.512122       -13.9356
 141   2.0000      -0.510199       -13.8832
 142   2.0000      -0.508259       -13.8304
 143   2.0000      -0.504759       -13.7352
 144   2.0000      -0.502605       -13.6766
 145   2.0000      -0.495944       -13.4953
 146   2.0000      -0.488748       -13.2995
 147   2.0000      -0.481653       -13.1064
 148   2.0000      -0.477389       -12.9904
 149   2.0000      -0.467673       -12.7260
 150   2.0000      -0.466376       -12.6907
 151   2.0000      -0.456701       -12.4275
 152   2.0000      -0.451614       -12.2891
 153   2.0000      -0.444842       -12.1048
 154   2.0000      -0.438531       -11.9330
 155   2.0000      -0.427559       -11.6345
 156   2.0000      -0.409665       -11.1475
 157   2.0000      -0.398302       -10.8383
 158   2.0000      -0.390524       -10.6267
 159   2.0000      -0.387600       -10.5471
 160   2.0000      -0.378566       -10.3013
 161   2.0000      -0.376167       -10.2360
 162   2.0000      -0.367956       -10.0126
 163   2.0000      -0.356496        -9.7007
 164   2.0000      -0.356027        -9.6880
 165   2.0000      -0.341948        -9.3049
 166   2.0000      -0.337679        -9.1887
 167   2.0000      -0.324579        -8.8322
 168   2.0000      -0.321466        -8.7475
 169   2.0000      -0.305266        -8.3067
 170   2.0000      -0.299437        -8.1481
 171   2.0000      -0.285628        -7.7723
 172   2.0000      -0.278819        -7.5870
 173   2.0000      -0.263706        -7.1758
 174   2.0000      -0.241669        -6.5762
 175   2.0000      -0.190006        -5.1703
 176   2.0000      -0.181089        -4.9277
 177   2.0000      -0.079524        -2.1640
 178   2.0000      -0.059651        -1.6232
 179   0.0000       0.028330         0.7709
 180   0.0000       0.065328         1.7777
 181   0.0000       0.090233         2.4554
 182   0.0000       0.106305         2.8927
 183   0.0000       0.115372         3.1394

MULLIKEN ATOMIC CHARGES
-----------------------
   0 C :    0.214358
   1 N :   -0.455996
   2 C :   -0.073337
   3 N :   -0.341207
   4 C :   -0.069951
   5 N :   -0.568029
   6 C :   -0.114586
   7 N :   -0.340915
   8 C :    0.217121
   9 N :   -0.562271
  10 C :    0.119605
  11 N :   -0.438528
  12 C :   -0.055371
  13 N :   -0.429368
  14 C :    0.220098
  15 N :   -0.440845
  16 C :    0.231532
  17 C :   -0.106731
  18 C :   -0.181272
  19 C :    0.215289
  20 C :    0.213543
  21 C :   -0.060708
  22 C :   -0.090988
  23 C :   -0.039467
  24 C :    0.193386
  25 C :    0.114657
  26 C :   -0.089045
  27 C :    0.216459
  28 C :   -0.061841
  29 C :   -0.181756
  30 C :    0.245923
  31 C :    0.230142
  32 C :   -0.061676
  33 C :   -0.060114
  34 C :   -0.051353
  35 C :    0.228732
  36 C :    0.108216
  37 C :   -0.064334
  38 C :    0.230945
  39 C :   -0.057512
  40 C :   -0.181515
  41 C :    0.226160
  42 C :    0.197484
  43 C :   -0.072401
  44 C :   -0.089188
  45 C :   -0.061542
  46 C :    0.212010
  47 C :    0.115280
  48 C :   -0.066682
  49 C :    0.238870
  50 C :   -0.046246
  51 C :   -0.193094
  52 H :    0.035564
  53 H :   -0.017905
  54 H :    0.042479
  55 H :    0.033930
  56 H :    0.049319
  57 H :    0.046730
  58 H :    0.047376
  59 H :   -0.011659
  60 H :    0.046135
  61 H :    0.171239
  62 H :    0.175471
  63 H :    0.055083
  64 H :   -0.030947
  65 H :    0.047117
  66 H :    0.055466
  67 H :    0.062279
  68 H :    0.057129
  69 H :    0.056219
  70 H :   -0.030642
  71 H :    0.044559
  72 H :    0.071432
  73 H :   -0.007941
  74 H :    0.060509
  75 H :    0.070893
  76 H :    0.075048
  77 H :    0.068087
  78 H :    0.067406
  79 H :   -0.016741
  80 H :    0.061467
  81 H :    0.054545
  82 H :   -0.024864
  83 H :    0.042154
  84 H :    0.054448
  85 H :    0.061112
  86 H :    0.055687
  87 H :    0.057354
  88 H :   -0.014389
  89 H :    0.046906
Sum of atomic charges:   -0.0000000

LOEWDIN ATOMIC CHARGES
----------------------
   0 C :   -0.020937
   1 N :    0.120898
   2 C :   -0.100954
   3 N :    0.182649
   4 C :   -0.011464
   5 N :   -0.134430
   6 C :   -0.032310
   7 N :    0.175084
   8 C :   -0.018984
   9 N :   -0.140651
  10 C :    0.022995
  11 N :    0.141658
  12 C :   -0.106576
  13 N :    0.166414
  14 C :   -0.017278
  15 N :    0.139137
  16 C :   -0.060636
  17 C :   -0.023003
  18 C :   -0.111294
  19 C :   -0.074551
  20 C :    0.004580
  21 C :   -0.104779
  22 C :    0.036817
  23 C :   -0.014478
  24 C :   -0.013000
  25 C :    0.029743
  26 C :   -0.108296
  27 C :   -0.116923
  28 C :   -0.027843
  29 C :   -0.099766
  30 C :   -0.029535
  31 C :    0.024332
  32 C :   -0.094463
  33 C :    0.082268
  34 C :   -0.015224
  35 C :    0.023428
  36 C :    0.035278
  37 C :   -0.094024
  38 C :   -0.052558
  39 C :   -0.017447
  40 C :   -0.108698
  41 C :   -0.090946
  42 C :   -0.010204
  43 C :   -0.099142
  44 C :    0.034257
  45 C :   -0.028136
  46 C :    0.002414
  47 C :    0.029588
  48 C :   -0.094620
  49 C :   -0.069251
  50 C :   -0.018607
  51 C :   -0.108627
  52 H :    0.022481
  53 H :    0.002536
  54 H :    0.008566
  55 H :    0.021926
  56 H :    0.021844
  57 H :    0.025922
  58 H :    0.027041
  59 H :    0.006417
  60 H :   -0.001858
  61 H :    0.060208
  62 H :    0.061875
  63 H :    0.030644
  64 H :   -0.002490
  65 H :    0.045907
  66 H :    0.029155
  67 H :    0.028147
  68 H :    0.031578
  69 H :    0.030225
  70 H :   -0.004986
  71 H :    0.043362
  72 H :    0.037762
  73 H :    0.007166
  74 H :    0.050718
  75 H :    0.037469
  76 H :    0.034871
  77 H :    0.036228
  78 H :    0.035920
  79 H :    0.002896
  80 H :    0.050827
  81 H :    0.029156
  82 H :   -0.002738
  83 H :    0.042602
  84 H :    0.030013
  85 H :    0.027504
  86 H :    0.030250
  87 H :    0.031471
  88 H :    0.002437
  89 H :    0.045040

  Mayer bond orders larger than 0.100000
B(  0-C ,  1-N ) :   1.0934 B(  0-C , 17-C ) :   1.7212 B(  0-C , 52-H ) :   0.9619
B(  1-N ,  8-C ) :   1.0962 B(  1-N , 10-C ) :   0.9773 B(  2-C , 12-C ) :   1.4893
B(  2-C , 16-C ) :   1.3717 B(  2-C , 53-H ) :   0.9723 B(  3-N , 14-C ) :   1.2219
B(  3-N , 16-C ) :   1.1805 B(  3-N , 61-H ) :   0.8986 B(  4-C ,  6-C ) :   1.2187
B(  4-C , 17-C ) :   1.2168 B(  4-C , 18-C ) :   1.4729 B(  5-N , 19-C ) :   1.4596
B(  5-N , 27-C ) :   1.3709 B(  6-C ,  8-C ) :   1.7153 B(  6-C , 54-H ) :   0.8994
B(  7-N , 30-C ) :   1.1956 B(  7-N , 38-C ) :   1.1893 B(  7-N , 62-H ) :   0.8968
B(  8-C , 55-H ) :   0.9633 B(  9-N , 41-C ) :   1.3945 B(  9-N , 49-C ) :   1.4249
B( 10-C , 56-H ) :   0.9776 B( 10-C , 57-H ) :   0.9823 B( 10-C , 58-H ) :   0.9840
B( 11-N , 20-C ) :   1.1310 B( 11-N , 24-C ) :   1.1064 B( 11-N , 25-C ) :   0.9604
B( 12-C , 14-C ) :   1.3579 B( 12-C , 59-H ) :   0.9350 B( 13-N , 31-C ) :   1.1615
B( 13-N , 35-C ) :   1.1607 B( 13-N , 36-C ) :   0.9412 B( 14-C , 18-C ) :   1.1192
B( 15-N , 42-C ) :   1.1081 B( 15-N , 46-C ) :   1.1250 B( 15-N , 47-C ) :   0.9610
B( 16-C , 51-C ) :   1.1677 B( 17-C , 60-H ) :   0.8808 B( 18-C , 19-C ) :   1.1181
B( 19-C , 21-C ) :   1.2533 B( 20-C , 28-C ) :   1.6291 B( 20-C , 63-H ) :   0.9703
B( 21-C , 26-C ) :   1.5806 B( 21-C , 64-H ) :   0.9142 B( 22-C , 23-C ) :   1.2890
B( 22-C , 28-C ) :   1.2633 B( 22-C , 29-C ) :   1.2262 B( 23-C , 24-C ) :   1.6206
B( 23-C , 65-H ) :   0.9703 B( 24-C , 66-H ) :   0.9695 B( 25-C , 67-H ) :   0.9761
B( 25-C , 68-H ) :   0.9828 B( 25-C , 69-H ) :   0.9823 B( 26-C , 27-C ) :   1.2617
B( 26-C , 70-H ) :   0.9675 B( 27-C , 29-C ) :   1.2059 B( 28-C , 71-H ) :   0.9720
B( 29-C , 30-C ) :   1.2469 B( 30-C , 32-C ) :   1.2789 B( 31-C , 39-C ) :   1.5875
B( 31-C , 72-H ) :   0.9681 B( 32-C , 37-C ) :   1.5798 B( 32-C , 73-H ) :   0.9786
B( 33-C , 34-C ) :   1.3070 B( 33-C , 39-C ) :   1.3044 B( 33-C , 40-C ) :   1.1760
B( 34-C , 35-C ) :   1.5852 B( 34-C , 74-H ) :   0.9696 B( 35-C , 75-H ) :   0.9681
B( 36-C , 76-H ) :   0.9768 B( 36-C , 77-H ) :   0.9816 B( 36-C , 78-H ) :   0.9823
B( 37-C , 38-C ) :   1.2851 B( 37-C , 79-H ) :   0.9764 B( 38-C , 40-C ) :   1.2340
B( 39-C , 80-H ) :   0.9705 B( 40-C , 41-C ) :   1.2508 B( 41-C , 43-C ) :   1.1840
B( 42-C , 50-C ) :   1.6325 B( 42-C , 81-H ) :   0.9696 B( 43-C , 48-C ) :   1.6690
B( 43-C , 82-H ) :   0.9721 B( 44-C , 45-C ) :   1.2639 B( 44-C , 50-C ) :   1.2730
B( 44-C , 51-C ) :   1.2600 B( 45-C , 46-C ) :   1.6340 B( 45-C , 83-H ) :   0.9718
B( 46-C , 84-H ) :   0.9700 B( 47-C , 85-H ) :   0.9762 B( 47-C , 86-H ) :   0.9829
B( 47-C , 87-H ) :   0.9824 B( 48-C , 49-C ) :   1.1874 B( 48-C , 88-H ) :   0.9748
B( 49-C , 51-C ) :   1.2452 B( 50-C , 89-H ) :   0.9708

MP2 TOTAL ENERGY:    -2130.785781402 Eh
FINAL SINGLE POINT ENERGY     -2130.785781402301

DIPOLE MOMENT
-------------
                                X             Y             Z
Electronic contribution:      2.78042      -4.33718      -0.18822
Nuclear contribution   :      0.07154       0.23351       0.18577
                        -----------------------------------------
Total Dipole Moment    :      2.85196      -4.10366      -0.00245
                        -----------------------------------------
Magnitude (a.u.)       :      4.99737
Magnitude (Debye)      :     12.70231

Rotational constants in cm-1:     0.001501     0.001479     0.000760
Rotational constants in MHz :    45.007616    44.351473    22.783884

                             ****ORCA TERMINATED NORMALLY****
TOTAL RUN TIME: 0 days 1 hours 19 minutes 23 seconds 525 msec
