                         Program Version 5.0.4 -  RELEASE  -
|  1> ! PAL2
|  2> ! mp2 cc-pvdz TightSCF  NoKeepInts
|  3>
|  4> %scf
|  5>   MaxCore 2000
|  6> end
|  7> %mp2
|  8>   MaxCore 2000
|  9> end
| 10> * xyz 0 1
| 11>    C       -3.44100         6.19700         1.04300
| 12>    C        1.47400         4.04100         0.05700
| 13>    C       -2.80200         4.09300         0.04900
| 14>    C       -3.79300         4.30900        -0.92100
| 15>    C       -4.56600         5.45200        -0.88000
| 16>    C       -5.20700         7.60700         0.08800
| 17>    C        0.13200         4.30700         0.06100
| 18>    C       -0.56900         3.05600         0.04700
| 19>    C        1.64900         2.61800         0.02300
| 20>    C       -2.63800         5.07300         1.04000
| 21>    N       -4.38800         6.37500         0.09400
| 22>    N        0.38800         2.06700         0.02500
| 23>    N       -2.01000         0.39500        -0.07500
| 24>    N       -0.38800        -2.07400        -0.02700
| 25>    N        2.01000        -0.40100         0.06500
| 26>    C       -1.96000         2.86100         0.02400
| 27>    C       -2.62300         1.61500        -0.01800
| 28>    C       -5.57300        -4.32900         1.06600
| 29>    C       -4.07300         1.47100         0.05600
| 30>    C       -4.10600        -2.75600        -0.02600
| 31>    C       -4.99500        -2.75700        -1.11100
| 32>    C       -6.13200        -3.54200        -1.07600
| 33>    C       -7.65100        -5.11300         0.04000
| 34>    C       -4.32400         0.14100         0.03700
| 35>    C       -3.02500        -0.52000        -0.04800
| 36>    C       -4.42200        -3.56600         1.07500
| 37>    N       -6.40700        -4.31300         0.00100
| 38>    C       -2.86700        -1.92200        -0.04000
| 39>    C       -1.65000        -2.62400        -0.02700
| 40>    C        3.56800        -6.14200        -1.04000
| 41>    C       -1.47600        -4.04900        -0.03400
| 42>    C        2.80300        -4.09900        -0.00800
| 43>    C        3.65700        -4.38400         1.06900
| 44>    C        4.42700        -5.53000         1.05900
| 45>    C        5.24500        -7.58800         0.01400
| 46>    C       -0.13400        -4.31500        -0.02200
| 47>    C        0.56800        -3.06400        -0.02700
| 48>    C        2.77500        -5.01200        -1.07400
| 49>    N        4.37600        -6.39100         0.01700
| 50>    C        1.95900        -2.86900        -0.00900
| 51>    C        2.62100        -1.62200         0.00900
| 52>    C        5.54300         4.33900        -1.13000
| 53>    C        4.07000        -1.47900        -0.09400
| 54>    C        4.10400         2.75100        -0.02100
| 55>    C        5.02700         2.72900         1.03600
| 56>    C        6.16600         3.50900         0.97800
| 57>    C        7.61900         5.15300        -0.11500
| 58>    C        4.32100        -0.14800        -0.09200
| 59>    C        3.02500         0.51400         0.01500
| 60>    C        4.38700         3.58200        -1.11500
| 61>    C        2.86600         1.91600         0.01300
| 62>    N        6.41300         4.29600        -0.09500
| 63>    H       -3.35800         6.97200         1.79500
| 64>    H        2.27400         4.76600         0.08100
| 65>    H       -3.96100         3.59400        -1.71700
| 66>    H       -5.33600         5.66600        -1.61000
| 67>    H       -4.73000         8.34800        -0.55700
| 68>    H       -6.20100         7.36600        -0.28800
| 69>    H       -5.27500         7.98700         1.10700
| 70>    H       -0.33200         5.28200         0.06900
| 71>    H       -1.90000         4.95700         1.82500
| 72>    H        0.18200         1.07200         0.00500
| 73>    H       -0.18300        -1.08000        -0.02100
| 74>    H       -5.86400        -4.96200         1.89500
| 75>    H       -4.79400         2.27200         0.13900
| 76>    H       -4.80000        -2.16000        -1.99400
| 77>    H       -6.84100        -3.58200        -1.89300
| 78>    H       -8.42800        -4.53600         0.54600
| 79>    H       -7.95600        -5.33700        -0.98100
| 80>    H       -7.45600        -6.03700         0.58400
| 81>    H       -5.28700        -0.34400         0.10000
| 82>    H       -3.78000        -3.60100         1.94700
| 83>    H        3.58700        -6.86800        -1.84300
| 84>    H       -2.27600        -4.77400        -0.05000
| 85>    H        3.71400        -3.72400         1.92600
| 86>    H        5.09200        -5.79500         1.87100
| 87>    H        6.20500        -7.32900        -0.43900
| 88>    H        5.39300        -7.91700         1.04200
| 89>    H        4.75900        -8.37300        -0.56400
| 90>    H        0.32900        -5.29000        -0.00800
| 91>    H        2.14600        -4.84200        -1.94000
| 92>    H        5.80800         4.98600        -1.95600
| 93>    H        4.78800        -2.28100        -0.18500
| 94>    H        4.86000         2.11400         1.91200
| 95>    H        6.90100         3.53100         1.77200
| 96>    H        7.38300         6.10900         0.35600
| 97>    H        8.41400         4.65200         0.43500
| 98>    H        7.92100         5.31000        -1.15000
| 99>    H        5.28300         0.33600        -0.17900
|100>    H        3.72000         3.63200        -1.96700
|101> *
|102>
|103>                          ****END OF INPUT****

CARTESIAN COORDINATES (ANGSTROEM)
---------------------------------
  C     -3.441000    6.197000    1.043000
  C      1.474000    4.041000    0.057000
  C     -2.802000    4.093000    0.049000
  C     -3.793000    4.309000   -0.921000
  C     -4.566000    5.452000   -0.880000
  C     -5.207000    7.607000    0.088000
  C      0.132000    4.307000    0.061000
  C     -0.569000    3.056000    0.047000
  C      1.649000    2.618000    0.023000
  C     -2.638000    5.073000    1.040000
  N     -4.388000    6.375000    0.094000
  N      0.388000    2.067000    0.025000
  N     -2.010000    0.395000   -0.075000
  N     -0.388000   -2.074000   -0.027000
  N      2.010000   -0.401000    0.065000
  C     -1.960000    2.861000    0.024000
  C     -2.623000    1.615000   -0.018000
  C     -5.573000   -4.329000    1.066000
  C     -4.073000    1.471000    0.056000
  C     -4.106000   -2.756000   -0.026000
  C     -4.995000   -2.757000   -1.111000
  C     -6.132000   -3.542000   -1.076000
  C     -7.651000   -5.113000    0.040000
  C     -4.324000    0.141000    0.037000
  C     -3.025000   -0.520000   -0.048000
  C     -4.422000   -3.566000    1.075000
  N     -6.407000   -4.313000    0.001000
  C     -2.867000   -1.922000   -0.040000
  C     -1.650000   -2.624000   -0.027000
  C      3.568000   -6.142000   -1.040000
  C     -1.476000   -4.049000   -0.034000
  C      2.803000   -4.099000   -0.008000
  C      3.657000   -4.384000    1.069000
  C      4.427000   -5.530000    1.059000
  C      5.245000   -7.588000    0.014000
  C     -0.134000   -4.315000   -0.022000
  C      0.568000   -3.064000   -0.027000
  C      2.775000   -5.012000   -1.074000
  N      4.376000   -6.391000    0.017000
  C      1.959000   -2.869000   -0.009000
  C      2.621000   -1.622000    0.009000
  C      5.543000    4.339000   -1.130000
  C      4.070000   -1.479000   -0.094000
  C      4.104000    2.751000   -0.021000
  C      5.027000    2.729000    1.036000
  C      6.166000    3.509000    0.978000
  C      7.619000    5.153000   -0.115000
  C      4.321000   -0.148000   -0.092000
  C      3.025000    0.514000    0.015000
  C      4.387000    3.582000   -1.115000
  C      2.866000    1.916000    0.013000
  N      6.413000    4.296000   -0.095000
  H     -3.358000    6.972000    1.795000
  H      2.274000    4.766000    0.081000
  H     -3.961000    3.594000   -1.717000
  H     -5.336000    5.666000   -1.610000
  H     -4.730000    8.348000   -0.557000
  H     -6.201000    7.366000   -0.288000
  H     -5.275000    7.987000    1.107000
  H     -0.332000    5.282000    0.069000
  H     -1.900000    4.957000    1.825000
  H      0.182000    1.072000    0.005000
  H     -0.183000   -1.080000   -0.021000
  H     -5.864000   -4.962000    1.895000
  H     -4.794000    2.272000    0.139000
  H     -4.800000   -2.160000   -1.994000
  H     -6.841000   -3.582000   -1.893000
  H     -8.428000   -4.536000    0.546000
  H     -7.956000   -5.337000   -0.981000
  H     -7.456000   -6.037000    0.584000
  H     -5.287000   -0.344000    0.100000
  H     -3.780000   -3.601000    1.947000
  H      3.587000   -6.868000   -1.843000
  H     -2.276000   -4.774000   -0.050000
  H      3.714000   -3.724000    1.926000
  H      5.092000   -5.795000    1.871000
  H      6.205000   -7.329000   -0.439000
  H      5.393000   -7.917000    1.042000
  H      4.759000   -8.373000   -0.564000
  H      0.329000   -5.290000   -0.008000
  H      2.146000   -4.842000   -1.940000
  H      5.808000    4.986000   -1.956000
  H      4.788000   -2.281000   -0.185000
  H      4.860000    2.114000    1.912000
  H      6.901000    3.531000    1.772000
  H      7.383000    6.109000    0.356000
  H      8.414000    4.652000    0.435000
  H      7.921000    5.310000   -1.150000
  H      5.283000    0.336000   -0.179000
  H      3.720000    3.632000   -1.967000

 Total Charge           Charge          ....    0
 Multiplicity           Mult            ....    1
 Number of Electrons    NEL             ....  358
 Basis Dimension        Dim             ....  918

ORBITAL ENERGIES
----------------

  NO   OCC          E(Eh)            E(eV)
   0   2.0000     -15.648696      -425.8227
   1   2.0000     -15.639396      -425.5696
   2   2.0000     -15.628707      -425.2787
   3   2.0000     -15.613408      -424.8624
   4   2.0000     -15.520783      -422.3420
   5   2.0000     -15.515526      -422.1989
   6   2.0000     -15.446129      -420.3105
   7   2.0000     -15.443886      -420.2495
   8   2.0000     -11.308642      -307.7238
   9   2.0000     -11.303983      -307.5970
  10   2.0000     -11.302620      -307.5599
  11   2.0000     -11.301419      -307.5272
  12   2.0000     -11.296070      -307.3817
  13   2.0000     -11.295543      -307.3673
  14   2.0000     -11.293291      -307.3061
  15   2.0000     -11.287293      -307.1429
  16   2.0000     -11.286517      -307.1217
  17   2.0000     -11.285022      -307.0811
  18   2.0000     -11.275050      -306.8097
  19   2.0000     -11.273493      -306.7673
  20   2.0000     -11.252644      -306.2000
  21   2.0000     -11.242811      -305.9324
  22   2.0000     -11.241266      -305.8904
  23   2.0000     -11.240376      -305.8662
  24   2.0000     -11.234751      -305.7131
  25   2.0000     -11.234149      -305.6967
  26   2.0000     -11.233156      -305.6697
  27   2.0000     -11.226786      -305.4964
  28   2.0000     -11.226634      -305.4922
  29   2.0000     -11.221282      -305.3466
  30   2.0000     -11.215644      -305.1932
  31   2.0000     -11.215375      -305.1859
  32   2.0000     -11.203512      -304.8631
  33   2.0000     -11.202783      -304.8432
  34   2.0000     -11.192579      -304.5656
  35   2.0000     -11.192179      -304.5547
  36   2.0000     -11.176776      -304.1355
  37   2.0000     -11.174740      -304.0801
  38   2.0000     -11.174594      -304.0762
  39   2.0000     -11.173074      -304.0348
  40   2.0000     -11.167996      -303.8966
  41   2.0000     -11.167357      -303.8792
  42   2.0000     -11.167051      -303.8709
  43   2.0000     -11.164232      -303.7942
  44   2.0000     -11.163633      -303.7779
  45   2.0000     -11.162015      -303.7339
  46   2.0000     -11.151161      -303.4385
  47   2.0000     -11.148711      -303.3719
  48   2.0000     -11.147034      -303.3262
  49   2.0000     -11.144289      -303.2515
  50   2.0000     -11.139892      -303.1319
  51   2.0000     -11.136384      -303.0364
  52   2.0000      -1.333848       -36.2959
  53   2.0000      -1.325831       -36.0777
  54   2.0000      -1.316646       -35.8278
  55   2.0000      -1.304354       -35.4933
  56   2.0000      -1.220085       -33.2002
  57   2.0000      -1.211752       -32.9734
  58   2.0000      -1.163163       -31.6513
  59   2.0000      -1.156636       -31.4737
  60   2.0000      -1.121177       -30.5088
  61   2.0000      -1.113785       -30.3076
  62   2.0000      -1.105867       -30.0922
  63   2.0000      -1.096069       -29.8256
  64   2.0000      -1.057361       -28.7723
  65   2.0000      -1.049685       -28.5634
  66   2.0000      -1.041264       -28.3342
  67   2.0000      -1.030318       -28.0364
  68   2.0000      -1.028504       -27.9870
  69   2.0000      -1.011424       -27.5222
  70   2.0000      -1.009351       -27.4658
  71   2.0000      -0.995998       -27.1025
  72   2.0000      -0.984470       -26.7888
  73   2.0000      -0.974627       -26.5210
  74   2.0000      -0.971402       -26.4332
  75   2.0000      -0.959051       -26.0971
  76   2.0000      -0.952081       -25.9074
  77   2.0000      -0.944650       -25.7052
  78   2.0000      -0.939138       -25.5552
  79   2.0000      -0.923015       -25.1165
  80   2.0000      -0.894384       -24.3374
  81   2.0000      -0.883000       -24.0277
  82   2.0000      -0.876401       -23.8481
  83   2.0000      -0.868782       -23.6408
  84   2.0000      -0.862195       -23.4615
  85   2.0000      -0.856175       -23.2977
  86   2.0000      -0.848728       -23.0951
  87   2.0000      -0.842118       -22.9152
  88   2.0000      -0.821729       -22.3604
  89   2.0000      -0.798675       -21.7330
  90   2.0000      -0.797168       -21.6920
  91   2.0000      -0.740193       -20.1417
  92   2.0000      -0.732305       -19.9270
  93   2.0000      -0.729956       -19.8631
  94   2.0000      -0.721704       -19.6386
  95   2.0000      -0.719609       -19.5816
  96   2.0000      -0.712432       -19.3863
  97   2.0000      -0.707086       -19.2408
  98   2.0000      -0.699486       -19.0340
  99   2.0000      -0.694046       -18.8860
 100   2.0000      -0.687420       -18.7056
 101   2.0000      -0.681119       -18.5342
 102   2.0000      -0.679147       -18.4805
 103   2.0000      -0.673298       -18.3214
 104   2.0000      -0.669342       -18.2137
 105   2.0000      -0.665015       -18.0960
 106   2.0000      -0.664002       -18.0684
 107   2.0000      -0.660032       -17.9604
 108   2.0000      -0.657903       -17.9025
 109   2.0000      -0.657421       -17.8893
 110   2.0000      -0.651853       -17.7378
 111   2.0000      -0.649564       -17.6755
 112   2.0000      -0.645762       -17.5721
 113   2.0000      -0.639928       -17.4133
 114   2.0000      -0.635120       -17.2825
 115   2.0000      -0.623444       -16.9648
 116   2.0000      -0.622738       -16.9456
 117   2.0000      -0.616444       -16.7743
 118   2.0000      -0.611499       -16.6397
 119   2.0000      -0.609892       -16.5960
 120   2.0000      -0.608410       -16.5557
 121   2.0000      -0.603251       -16.4153
 122   2.0000      -0.597926       -16.2704
 123   2.0000      -0.592196       -16.1145
 124   2.0000      -0.591401       -16.0928
 125   2.0000      -0.585116       -15.9218
 126   2.0000      -0.578356       -15.7379
 127   2.0000      -0.573804       -15.6140
 128   2.0000      -0.568749       -15.4765
 129   2.0000      -0.559809       -15.2332
 130   2.0000      -0.553880       -15.0719
 131   2.0000      -0.546684       -14.8760
 132   2.0000      -0.541740       -14.7415
 133   2.0000      -0.536181       -14.5902
 134   2.0000      -0.534031       -14.5317
 135   2.0000      -0.528872       -14.3913
 136   2.0000      -0.525253       -14.2929
 137   2.0000      -0.522188       -14.2095
 138   2.0000      -0.519960       -14.1488
 139   2.0000      -0.517136       -14.0720
 140   2.0000      -0.509567       -13.8660
 141   2.0000      -0.506337       -13.7781
 142   2.0000      -0.505515       -13.7558
 143   2.0000      -0.501310       -13.6414
 144   2.0000      -0.500017       -13.6061
 145   2.0000      -0.498461       -13.5638
 146   2.0000      -0.494999       -13.4696
 147   2.0000      -0.492100       -13.3907
 148   2.0000      -0.489792       -13.3279
 149   2.0000      -0.469169       -12.7667
 150   2.0000      -0.461221       -12.5505
 151   2.0000      -0.452510       -12.3134
 152   2.0000      -0.448443       -12.2028
 153   2.0000      -0.446234       -12.1427
 154   2.0000      -0.445907       -12.1337
 155   2.0000      -0.439123       -11.9491
 156   2.0000      -0.435475       -11.8499
 157   2.0000      -0.431220       -11.7341
 158   2.0000      -0.393406       -10.7051
 159   2.0000      -0.383085       -10.4243
 160   2.0000      -0.379573       -10.3287
 161   2.0000      -0.371984       -10.1222
 162   2.0000      -0.366633        -9.9766
 163   2.0000      -0.360036        -9.7971
 164   2.0000      -0.352990        -9.6053
 165   2.0000      -0.343175        -9.3383
 166   2.0000      -0.337237        -9.1767
 167   2.0000      -0.333610        -9.0780
 168   2.0000      -0.329307        -8.9609
 169   2.0000      -0.300132        -8.1670
 170   2.0000      -0.297971        -8.1082
 171   2.0000      -0.288171        -7.8415
 172   2.0000      -0.286767        -7.8033
 173   2.0000      -0.255978        -6.9655
 174   2.0000      -0.247678        -6.7397
 175   2.0000      -0.188504        -5.1295
 176   2.0000      -0.178463        -4.8562
 177   2.0000      -0.067950        -1.8490
 178   2.0000      -0.055473        -1.5095
 179   0.0000       0.030304         0.8246
 180   0.0000       0.070045         1.9060
 181   0.0000       0.092959         2.5295
 182   0.0000       0.099361         2.7037
 183   0.0000       0.127443         3.4679

MULLIKEN ATOMIC CHARGES
-----------------------
   0 C :    0.205162
   1 N :   -0.447080
   2 C :   -0.064599
   3 N :   -0.337035
   4 C :   -0.067476
   5 N :   -0.561353
   6 C :   -0.074477
   7 N :   -0.338840
   8 C :    0.202228
   9 N :   -0.562822
  10 C :    0.116665
  11 N :   -0.437301
  12 C :   -0.072223
  13 N :   -0.436671
  14 C :    0.235219
  15 N :   -0.440946
  16 C :    0.232589
  17 C :   -0.081134
  18 C :   -0.193313
  19 C :    0.223624
  20 C :    0.210676
  21 C :   -0.080936
  22 C :   -0.086603
  23 C :   -0.046064
  24 C :    0.203037
  25 C :    0.113794
  26 C :   -0.073346
  27 C :    0.218533
  28 C :   -0.054847
  29 C :   -0.183304
  30 C :    0.238667
  31 C :    0.217351
  32 C :   -0.063804
  33 C :   -0.075101
  34 C :   -0.049678
  35 C :    0.210884
  36 C :    0.112338
  37 C :   -0.065843
  38 C :    0.235828
  39 C :   -0.060829
  40 C :   -0.186256
  41 C :    0.221436
  42 C :    0.201008
  43 C :   -0.073469
  44 C :   -0.089642
  45 C :   -0.055645
  46 C :    0.205537
  47 C :    0.115640
  48 C :   -0.072722
  49 C :    0.229651
  50 C :   -0.050720
  51 C :   -0.190974
  52 H :    0.049264
  53 H :   -0.014902
  54 H :    0.044639
  55 H :    0.047470
  56 H :    0.054930
  57 H :    0.053530
  58 H :    0.052766
  59 H :   -0.008871
  60 H :    0.045623
  61 H :    0.172063
  62 H :    0.173820
  63 H :    0.057085
  64 H :   -0.015077
  65 H :    0.046741
  66 H :    0.057547
  67 H :    0.063433
  68 H :    0.058215
  69 H :    0.058590
  70 H :   -0.025842
  71 H :    0.047823
  72 H :    0.060955
  73 H :   -0.012220
  74 H :    0.050900
  75 H :    0.060040
  76 H :    0.065921
  77 H :    0.061114
  78 H :    0.060280
  79 H :   -0.014348
  80 H :    0.051265
  81 H :    0.053649
  82 H :   -0.024324
  83 H :    0.042270
  84 H :    0.053108
  85 H :    0.059303
  86 H :    0.055840
  87 H :    0.056722
  88 H :   -0.019738
  89 H :    0.045600
Sum of atomic charges:    0.0000000

LOEWDIN ATOMIC CHARGES
----------------------
   0 C :   -0.010926
   1 N :    0.128019
   2 C :   -0.100655
   3 N :    0.179805
   4 C :    0.019239
   5 N :   -0.135058
   6 C :   -0.026637
   7 N :    0.176843
   8 C :   -0.013292
   9 N :   -0.139279
  10 C :    0.026902
  11 N :    0.144981
  12 C :   -0.102967
  13 N :    0.149187
  14 C :   -0.041021
  15 N :    0.138204
  16 C :   -0.050743
  17 C :   -0.031279
  18 C :   -0.105216
  19 C :   -0.087020
  20 C :    0.003017
  21 C :   -0.106716
  22 C :    0.042942
  23 C :   -0.018454
  24 C :   -0.003613
  25 C :    0.030510
  26 C :   -0.105193
  27 C :   -0.102181
  28 C :   -0.022484
  29 C :   -0.104123
  30 C :   -0.041408
  31 C :    0.008890
  32 C :   -0.097033
  33 C :    0.053056
  34 C :   -0.017869
  35 C :    0.003391
  36 C :    0.031375
  37 C :   -0.098702
  38 C :   -0.043810
  39 C :   -0.023212
  40 C :   -0.108370
  41 C :   -0.094362
  42 C :   -0.007449
  43 C :   -0.103471
  44 C :    0.033084
  45 C :   -0.024515
  46 C :   -0.003548
  47 C :    0.029243
  48 C :   -0.102399
  49 C :   -0.083270
  50 C :   -0.021692
  51 C :   -0.109131
  52 H :    0.027267
  53 H :    0.003916
  54 H :    0.041989
  55 H :    0.027011
  56 H :    0.024451
  57 H :    0.028922
  58 H :    0.029607
  59 H :    0.005682
  60 H :    0.041806
  61 H :    0.060264
  62 H :    0.060986
  63 H :    0.031375
  64 H :    0.000874
  65 H :    0.045442
  66 H :    0.030403
  67 H :    0.028794
  68 H :    0.032076
  69 H :    0.031283
  70 H :   -0.002809
  71 H :    0.045141
  72 H :    0.032879
  73 H :    0.005087
  74 H :    0.046734
  75 H :    0.032197
  76 H :    0.030130
  77 H :    0.032946
  78 H :    0.032587
  79 H :    0.004094
  80 H :    0.046306
  81 H :    0.028913
  82 H :   -0.002330
  83 H :    0.042988
  84 H :    0.029195
  85 H :    0.026655
  86 H :    0.030263
  87 H :    0.031168
  88 H :   -0.000115
  89 H :    0.044235

  Mayer bond orders larger than 0.100000
B(  0-C ,  1-N ) :   1.1057 B(  0-C , 17-C ) :   1.6626 B(  0-C , 52-H ) :   0.9689
B(  1-N ,  8-C ) :   1.0997 B(  1-N , 10-C ) :   0.9686 B(  2-C , 12-C ) :   1.5289
B(  2-C , 16-C ) :   1.3321 B(  2-C , 53-H ) :   0.9775 B(  3-N , 14-C ) :   1.2086
B(  3-N , 16-C ) :   1.1939 B(  3-N , 61-H ) :   0.8989 B(  4-C ,  6-C ) :   1.2436
B(  4-C , 17-C ) :   1.2416 B(  4-C , 18-C ) :   1.3277 B(  5-N , 19-C ) :   1.4318
B(  5-N , 27-C ) :   1.3961 B(  6-C ,  8-C ) :   1.6637 B(  6-C , 54-H ) :   0.9696
B(  7-N , 30-C ) :   1.1930 B(  7-N , 38-C ) :   1.1987 B(  7-N , 62-H ) :   0.8977
B(  8-C , 55-H ) :   0.9703 B(  9-N , 41-C ) :   1.4020 B(  9-N , 49-C ) :   1.4211
B( 10-C , 56-H ) :   0.9763 B( 10-C , 57-H ) :   0.9827 B( 10-C , 58-H ) :   0.9832
B( 11-N , 20-C ) :   1.1283 B( 11-N , 24-C ) :   1.1198 B( 11-N , 25-C ) :   0.9579
B( 12-C , 14-C ) :   1.3351 B( 12-C , 59-H ) :   0.9761 B( 13-N , 31-C ) :   1.1359
B( 13-N , 35-C ) :   1.1288 B( 13-N , 36-C ) :   0.9542 B( 14-C , 18-C ) :   1.1762
B( 15-N , 42-C ) :   1.1124 B( 15-N , 46-C ) :   1.1170 B( 15-N , 47-C ) :   0.9623
B( 16-C , 51-C ) :   1.1920 B( 17-C , 60-H ) :   0.9700 B( 18-C , 19-C ) :   1.1864
B( 19-C , 21-C ) :   1.2230 B( 20-C , 28-C ) :   1.6228 B( 20-C , 63-H ) :   0.9702
B( 21-C , 26-C ) :   1.6337 B( 21-C , 64-H ) :   0.9727 B( 22-C , 23-C ) :   1.2871
B( 22-C , 28-C ) :   1.2732 B( 22-C , 29-C ) :   1.2240 B( 23-C , 24-C ) :   1.6166
B( 23-C , 65-H ) :   0.9708 B( 24-C , 66-H ) :   0.9692 B( 25-C , 67-H ) :   0.9761
B( 25-C , 68-H ) :   0.9829 B( 25-C , 69-H ) :   0.9821 B( 26-C , 27-C ) :   1.2186
B( 26-C , 70-H ) :   0.9726 B( 27-C , 29-C ) :   1.2244 B( 28-C , 71-H ) :   0.9715
B( 29-C , 30-C ) :   1.2231 B( 30-C , 32-C ) :   1.3007 B( 31-C , 39-C ) :   1.6177
B( 31-C , 72-H ) :   0.9692 B( 32-C , 37-C ) :   1.5579 B( 32-C , 73-H ) :   0.9780
B( 33-C , 34-C ) :   1.2857 B( 33-C , 39-C ) :   1.2784 B( 33-C , 40-C ) :   1.2256
B( 34-C , 35-C ) :   1.6144 B( 34-C , 74-H ) :   0.9702 B( 35-C , 75-H ) :   0.9692
B( 36-C , 76-H ) :   0.9764 B( 36-C , 77-H ) :   0.9819 B( 36-C , 78-H ) :   0.9829
B( 37-C , 38-C ) :   1.3030 B( 37-C , 79-H ) :   0.9774 B( 38-C , 40-C ) :   1.2172
B( 39-C , 80-H ) :   0.9713 B( 40-C , 41-C ) :   1.2278 B( 41-C , 43-C ) :   1.2068
B( 42-C , 50-C ) :   1.6342 B( 42-C , 81-H ) :   0.9696 B( 43-C , 48-C ) :   1.6446
B( 43-C , 82-H ) :   0.9732 B( 44-C , 45-C ) :   1.2675 B( 44-C , 50-C ) :   1.2681
B( 44-C , 51-C ) :   1.2591 B( 45-C , 46-C ) :   1.6341 B( 45-C , 83-H ) :   0.9714
B( 46-C , 84-H ) :   0.9702 B( 47-C , 85-H ) :   0.9761 B( 47-C , 86-H ) :   0.9828
B( 47-C , 87-H ) :   0.9826 B( 48-C , 49-C ) :   1.2080 B( 48-C , 88-H ) :   0.9742
B( 49-C , 51-C ) :   1.2229 B( 50-C , 89-H ) :   0.9712

MP2 TOTAL ENERGY:    -2130.916134922 Eh
FINAL SINGLE POINT ENERGY     -2130.916134922414

DIPOLE MOMENT
-------------
                                X             Y             Z
Electronic contribution:      0.54923      -1.99509      -0.05963
Nuclear contribution   :      0.01853       0.20048       0.07220
                        -----------------------------------------
Total Dipole Moment    :      0.56776      -1.79461       0.01257
                        -----------------------------------------
Magnitude (a.u.)       :      1.88232
Magnitude (Debye)      :      4.78449

Rotational constants in cm-1:     0.001500     0.001474     0.000762
Rotational constants in MHz :    44.969538    44.180873    22.838880

                             ****ORCA TERMINATED NORMALLY****
TOTAL RUN TIME: 0 days 1 hours 6 minutes 26 seconds 77 msec
