                         Program Version 5.0.4 -  RELEASE  -
|  1> ! PAL2
|  2> ! mp2 cc-pvdz TightSCF  NoKeepInts
|  3>
|  4> %scf
|  5>   MaxCore 2000
|  6> end
|  7> %mp2
|  8>   MaxCore 2000
|  9> end
| 10> * xyz 0 1
| 11>    C       -4.59000         5.41300         0.99000
| 12>    C        1.47400         4.04100         0.05700
| 13>    C       -2.80200         4.09300         0.04900
| 14>    C       -2.60400         5.12100        -0.88600
| 15>    C       -3.39600         6.25100        -0.85200
| 16>    C       -5.17900         7.62500         0.10800
| 17>    C        0.13200         4.30700         0.06100
| 18>    C       -0.56900         3.05600         0.04700
| 19>    C        1.64900         2.61800         0.02300
| 20>    C       -3.82000         4.26600         1.00000
| 21>    N       -4.37400         6.38500         0.07400
| 22>    N        0.38800         2.06700         0.02500
| 23>    N       -2.01000         0.39500        -0.07500
| 24>    N       -0.38800        -2.07400        -0.02700
| 25>    N        2.01000        -0.40100         0.06500
| 26>    C       -1.96000         2.86100         0.02400
| 27>    C       -2.62300         1.61500        -0.01800
| 28>    C       -5.57300        -4.32900         1.06600
| 29>    C       -4.07300         1.47100         0.05600
| 30>    C       -4.10600        -2.75600        -0.02600
| 31>    C       -4.99500        -2.75700        -1.11100
| 32>    C       -6.13200        -3.54200        -1.07600
| 33>    C       -7.65100        -5.11300         0.04000
| 34>    C       -4.32400         0.14100         0.03700
| 35>    C       -3.02500        -0.52000        -0.04800
| 36>    C       -4.42200        -3.56600         1.07500
| 37>    N       -6.40700        -4.31300         0.00100
| 38>    C       -2.86700        -1.92200        -0.04000
| 39>    C       -1.65000        -2.62400        -0.02700
| 40>    C        3.56800        -6.14200        -1.04000
| 41>    C       -1.47600        -4.04900        -0.03400
| 42>    C        2.80300        -4.09900        -0.00800
| 43>    C        3.65700        -4.38400         1.06900
| 44>    C        4.42700        -5.53000         1.05900
| 45>    C        5.24500        -7.58800         0.01400
| 46>    C       -0.13400        -4.31500        -0.02200
| 47>    C        0.56800        -3.06400        -0.02700
| 48>    C        2.77500        -5.01200        -1.07400
| 49>    N        4.37600        -6.39100         0.01700
| 50>    C        1.95900        -2.86900        -0.00900
| 51>    C        2.62100        -1.62200         0.00900
| 52>    C        5.54300         4.33900        -1.13000
| 53>    C        4.07000        -1.47900        -0.09400
| 54>    C        4.10400         2.75100        -0.02100
| 55>    C        5.02700         2.72900         1.03600
| 56>    C        6.16600         3.50900         0.97800
| 57>    C        7.61900         5.15300        -0.11500
| 58>    C        4.32100        -0.14800        -0.09200
| 59>    C        3.02500         0.51400         0.01500
| 60>    C        4.38700         3.58200        -1.11500
| 61>    C        2.86600         1.91600         0.01300
| 62>    N        6.41300         4.29600        -0.09500
| 63>    H       -5.39300         5.58400         1.69600
| 64>    H        2.27400         4.76600         0.08100
| 65>    H       -1.82800         5.05000        -1.63900
| 66>    H       -3.27500         7.07300        -1.54600
| 67>    H       -4.65500         8.37400         0.70700
| 68>    H       -5.31200         7.98600        -0.91100
| 69>    H       -6.14800         7.40100         0.55500
| 70>    H       -0.33200         5.28200         0.06900
| 71>    H       -4.03100         3.50200         1.73900
| 72>    H        0.18200         1.07200         0.00500
| 73>    H       -0.18300        -1.08000        -0.02100
| 74>    H       -5.86400        -4.96200         1.89500
| 75>    H       -4.79400         2.27200         0.13900
| 76>    H       -4.80000        -2.16000        -1.99400
| 77>    H       -6.84100        -3.58200        -1.89300
| 78>    H       -8.42800        -4.53600         0.54600
| 79>    H       -7.95600        -5.33700        -0.98100
| 80>    H       -7.45600        -6.03700         0.58400
| 81>    H       -5.28700        -0.34400         0.10000
| 82>    H       -3.78000        -3.60100         1.94700
| 83>    H        3.58700        -6.86800        -1.84300
| 84>    H       -2.27600        -4.77400        -0.05000
| 85>    H        3.71400        -3.72400         1.92600
| 86>    H        5.09200        -5.79500         1.87100
| 87>    H        6.20500        -7.32900        -0.43900
| 88>    H        5.39300        -7.91700         1.04200
| 89>    H        4.75900        -8.37300        -0.56400
| 90>    H        0.32900        -5.29000        -0.00800
| 91>    H        2.14600        -4.84200        -1.94000
| 92>    H        5.80800         4.98600        -1.95600
| 93>    H        4.78800        -2.28100        -0.18500
| 94>    H        4.86000         2.11400         1.91200
| 95>    H        6.90100         3.53100         1.77200
| 96>    H        7.38300         6.10900         0.35600
| 97>    H        8.41400         4.65200         0.43500
| 98>    H        7.92100         5.31000        -1.15000
| 99>    H        5.28300         0.33600        -0.17900
|100>    H        3.72000         3.63200        -1.96700
|101> *
|102>
|103>                          ****END OF INPUT****

CARTESIAN COORDINATES (ANGSTROEM)
---------------------------------
  C     -4.590000    5.413000    0.990000
  C      1.474000    4.041000    0.057000
  C     -2.802000    4.093000    0.049000
  C     -2.604000    5.121000   -0.886000
  C     -3.396000    6.251000   -0.852000
  C     -5.179000    7.625000    0.108000
  C      0.132000    4.307000    0.061000
  C     -0.569000    3.056000    0.047000
  C      1.649000    2.618000    0.023000
  C     -3.820000    4.266000    1.000000
  N     -4.374000    6.385000    0.074000
  N      0.388000    2.067000    0.025000
  N     -2.010000    0.395000   -0.075000
  N     -0.388000   -2.074000   -0.027000
  N      2.010000   -0.401000    0.065000
  C     -1.960000    2.861000    0.024000
  C     -2.623000    1.615000   -0.018000
  C     -5.573000   -4.329000    1.066000
  C     -4.073000    1.471000    0.056000
  C     -4.106000   -2.756000   -0.026000
  C     -4.995000   -2.757000   -1.111000
  C     -6.132000   -3.542000   -1.076000
  C     -7.651000   -5.113000    0.040000
  C     -4.324000    0.141000    0.037000
  C     -3.025000   -0.520000   -0.048000
  C     -4.422000   -3.566000    1.075000
  N     -6.407000   -4.313000    0.001000
  C     -2.867000   -1.922000   -0.040000
  C     -1.650000   -2.624000   -0.027000
  C      3.568000   -6.142000   -1.040000
  C     -1.476000   -4.049000   -0.034000
  C      2.803000   -4.099000   -0.008000
  C      3.657000   -4.384000    1.069000
  C      4.427000   -5.530000    1.059000
  C      5.245000   -7.588000    0.014000
  C     -0.134000   -4.315000   -0.022000
  C      0.568000   -3.064000   -0.027000
  C      2.775000   -5.012000   -1.074000
  N      4.376000   -6.391000    0.017000
  C      1.959000   -2.869000   -0.009000
  C      2.621000   -1.622000    0.009000
  C      5.543000    4.339000   -1.130000
  C      4.070000   -1.479000   -0.094000
  C      4.104000    2.751000   -0.021000
  C      5.027000    2.729000    1.036000
  C      6.166000    3.509000    0.978000
  C      7.619000    5.153000   -0.115000
  C      4.321000   -0.148000   -0.092000
  C      3.025000    0.514000    0.015000
  C      4.387000    3.582000   -1.115000
  C      2.866000    1.916000    0.013000
  N      6.413000    4.296000   -0.095000
  H     -5.393000    5.584000    1.696000
  H      2.274000    4.766000    0.081000
  H     -1.828000    5.050000   -1.639000
  H     -3.275000    7.073000   -1.546000
  H     -4.655000    8.374000    0.707000
  H     -5.312000    7.986000   -0.911000
  H     -6.148000    7.401000    0.555000
  H     -0.332000    5.282000    0.069000
  H     -4.031000    3.502000    1.739000
  H      0.182000    1.072000    0.005000
  H     -0.183000   -1.080000   -0.021000
  H     -5.864000   -4.962000    1.895000
  H     -4.794000    2.272000    0.139000
  H     -4.800000   -2.160000   -1.994000
  H     -6.841000   -3.582000   -1.893000
  H     -8.428000   -4.536000    0.546000
  H     -7.956000   -5.337000   -0.981000
  H     -7.456000   -6.037000    0.584000
  H     -5.287000   -0.344000    0.100000
  H     -3.780000   -3.601000    1.947000
  H      3.587000   -6.868000   -1.843000
  H     -2.276000   -4.774000   -0.050000
  H      3.714000   -3.724000    1.926000
  H      5.092000   -5.795000    1.871000
  H      6.205000   -7.329000   -0.439000
  H      5.393000   -7.917000    1.042000
  H      4.759000   -8.373000   -0.564000
  H      0.329000   -5.290000   -0.008000
  H      2.146000   -4.842000   -1.940000
  H      5.808000    4.986000   -1.956000
  H      4.788000   -2.281000   -0.185000
  H      4.860000    2.114000    1.912000
  H      6.901000    3.531000    1.772000
  H      7.383000    6.109000    0.356000
  H      8.414000    4.652000    0.435000
  H      7.921000    5.310000   -1.150000
  H      5.283000    0.336000   -0.179000
  H      3.720000    3.632000   -1.967000

 Total Charge           Charge          ....    0
 Multiplicity           Mult            ....    1
 Number of Electrons    NEL             ....  358
 Basis Dimension        Dim             ....  918

ORBITAL ENERGIES
----------------

  NO   OCC          E(Eh)            E(eV)
   0   2.0000     -15.647746      -425.7968
   1   2.0000     -15.638168      -425.5362
   2   2.0000     -15.629447      -425.2989
   3   2.0000     -15.615101      -424.9085
   4   2.0000     -15.520453      -422.3330
   5   2.0000     -15.516358      -422.2216
   6   2.0000     -15.446276      -420.3145
   7   2.0000     -15.443569      -420.2409
   8   2.0000     -11.308065      -307.7081
   9   2.0000     -11.303032      -307.5711
  10   2.0000     -11.301871      -307.5395
  11   2.0000     -11.300823      -307.5110
  12   2.0000     -11.296576      -307.3955
  13   2.0000     -11.294560      -307.3406
  14   2.0000     -11.292071      -307.2729
  15   2.0000     -11.288287      -307.1699
  16   2.0000     -11.287017      -307.1353
  17   2.0000     -11.285902      -307.1050
  18   2.0000     -11.276294      -306.8436
  19   2.0000     -11.275241      -306.8149
  20   2.0000     -11.251772      -306.1763
  21   2.0000     -11.241495      -305.8966
  22   2.0000     -11.240590      -305.8720
  23   2.0000     -11.239697      -305.8477
  24   2.0000     -11.233967      -305.6918
  25   2.0000     -11.233852      -305.6886
  26   2.0000     -11.233072      -305.6674
  27   2.0000     -11.227530      -305.5166
  28   2.0000     -11.227370      -305.5123
  29   2.0000     -11.222894      -305.3905
  30   2.0000     -11.217335      -305.2392
  31   2.0000     -11.215993      -305.2027
  32   2.0000     -11.202562      -304.8372
  33   2.0000     -11.202079      -304.8241
  34   2.0000     -11.193374      -304.5872
  35   2.0000     -11.192926      -304.5750
  36   2.0000     -11.176412      -304.1256
  37   2.0000     -11.175200      -304.0926
  38   2.0000     -11.175057      -304.0888
  39   2.0000     -11.172118      -304.0088
  40   2.0000     -11.168656      -303.9146
  41   2.0000     -11.167869      -303.8932
  42   2.0000     -11.167365      -303.8794
  43   2.0000     -11.164946      -303.8136
  44   2.0000     -11.162567      -303.7489
  45   2.0000     -11.160865      -303.7026
  46   2.0000     -11.151833      -303.4568
  47   2.0000     -11.149289      -303.3876
  48   2.0000     -11.147495      -303.3388
  49   2.0000     -11.145018      -303.2713
  50   2.0000     -11.140514      -303.1488
  51   2.0000     -11.136515      -303.0400
  52   2.0000      -1.333051       -36.2742
  53   2.0000      -1.324763       -36.0486
  54   2.0000      -1.317319       -35.8461
  55   2.0000      -1.305761       -35.5316
  56   2.0000      -1.219475       -33.1836
  57   2.0000      -1.212461       -32.9927
  58   2.0000      -1.163494       -31.6603
  59   2.0000      -1.156793       -31.4779
  60   2.0000      -1.120540       -30.4914
  61   2.0000      -1.112855       -30.2823
  62   2.0000      -1.106540       -30.1105
  63   2.0000      -1.097324       -29.8597
  64   2.0000      -1.056621       -28.7521
  65   2.0000      -1.048642       -28.5350
  66   2.0000      -1.041962       -28.3532
  67   2.0000      -1.031835       -28.0777
  68   2.0000      -1.028198       -27.9787
  69   2.0000      -1.010973       -27.5100
  70   2.0000      -1.009648       -27.4739
  71   2.0000      -0.996591       -27.1186
  72   2.0000      -0.983715       -26.7682
  73   2.0000      -0.975291       -26.5390
  74   2.0000      -0.970836       -26.4178
  75   2.0000      -0.959684       -26.1143
  76   2.0000      -0.952097       -25.9079
  77   2.0000      -0.945142       -25.7186
  78   2.0000      -0.939571       -25.5670
  79   2.0000      -0.923251       -25.1229
  80   2.0000      -0.894433       -24.3388
  81   2.0000      -0.882454       -24.0128
  82   2.0000      -0.875614       -23.8267
  83   2.0000      -0.869346       -23.6561
  84   2.0000      -0.862531       -23.4707
  85   2.0000      -0.856861       -23.3164
  86   2.0000      -0.848904       -23.0998
  87   2.0000      -0.842481       -22.9251
  88   2.0000      -0.821932       -22.3659
  89   2.0000      -0.798717       -21.7342
  90   2.0000      -0.797494       -21.7009
  91   2.0000      -0.740219       -20.1424
  92   2.0000      -0.732002       -19.9188
  93   2.0000      -0.729612       -19.8538
  94   2.0000      -0.721314       -19.6279
  95   2.0000      -0.720493       -19.6056
  96   2.0000      -0.712587       -19.3905
  97   2.0000      -0.708233       -19.2720
  98   2.0000      -0.699610       -19.0374
  99   2.0000      -0.693545       -18.8723
 100   2.0000      -0.686863       -18.6905
 101   2.0000      -0.681255       -18.5379
 102   2.0000      -0.679221       -18.4825
 103   2.0000      -0.673842       -18.3362
 104   2.0000      -0.669408       -18.2155
 105   2.0000      -0.665554       -18.1107
 106   2.0000      -0.663536       -18.0557
 107   2.0000      -0.659661       -17.9503
 108   2.0000      -0.657876       -17.9017
 109   2.0000      -0.656728       -17.8705
 110   2.0000      -0.652303       -17.7501
 111   2.0000      -0.649699       -17.6792
 112   2.0000      -0.647217       -17.6117
 113   2.0000      -0.640773       -17.4363
 114   2.0000      -0.635524       -17.2935
 115   2.0000      -0.624009       -16.9801
 116   2.0000      -0.622727       -16.9453
 117   2.0000      -0.615503       -16.7487
 118   2.0000      -0.612122       -16.6567
 119   2.0000      -0.609409       -16.5829
 120   2.0000      -0.609039       -16.5728
 121   2.0000      -0.603838       -16.4313
 122   2.0000      -0.598332       -16.2814
 123   2.0000      -0.592372       -16.1192
 124   2.0000      -0.590812       -16.0768
 125   2.0000      -0.584265       -15.8987
 126   2.0000      -0.578942       -15.7538
 127   2.0000      -0.573451       -15.6044
 128   2.0000      -0.569468       -15.4960
 129   2.0000      -0.560297       -15.2465
 130   2.0000      -0.553869       -15.0715
 131   2.0000      -0.546206       -14.8630
 132   2.0000      -0.541104       -14.7242
 133   2.0000      -0.535988       -14.5850
 134   2.0000      -0.534206       -14.5365
 135   2.0000      -0.529300       -14.4030
 136   2.0000      -0.525610       -14.3026
 137   2.0000      -0.522666       -14.2225
 138   2.0000      -0.520233       -14.1563
 139   2.0000      -0.516457       -14.0535
 140   2.0000      -0.510493       -13.8912
 141   2.0000      -0.506126       -13.7724
 142   2.0000      -0.505098       -13.7444
 143   2.0000      -0.501608       -13.6494
 144   2.0000      -0.500114       -13.6088
 145   2.0000      -0.498410       -13.5624
 146   2.0000      -0.496149       -13.5009
 147   2.0000      -0.492256       -13.3950
 148   2.0000      -0.490504       -13.3473
 149   2.0000      -0.469548       -12.7771
 150   2.0000      -0.461188       -12.5496
 151   2.0000      -0.452722       -12.3192
 152   2.0000      -0.448339       -12.1999
 153   2.0000      -0.446842       -12.1592
 154   2.0000      -0.445880       -12.1330
 155   2.0000      -0.439483       -11.9589
 156   2.0000      -0.435513       -11.8509
 157   2.0000      -0.431193       -11.7334
 158   2.0000      -0.393536       -10.7087
 159   2.0000      -0.384793       -10.4707
 160   2.0000      -0.377716       -10.2782
 161   2.0000      -0.372460       -10.1352
 162   2.0000      -0.366030        -9.9602
 163   2.0000      -0.359153        -9.7730
 164   2.0000      -0.353630        -9.6228
 165   2.0000      -0.343831        -9.3561
 166   2.0000      -0.337134        -9.1739
 167   2.0000      -0.333738        -9.0815
 168   2.0000      -0.329197        -8.9579
 169   2.0000      -0.300296        -8.1715
 170   2.0000      -0.297121        -8.0851
 171   2.0000      -0.288668        -7.8551
 172   2.0000      -0.287089        -7.8121
 173   2.0000      -0.256486        -6.9793
 174   2.0000      -0.248099        -6.7511
 175   2.0000      -0.188595        -5.1319
 176   2.0000      -0.178595        -4.8598
 177   2.0000      -0.068196        -1.8557
 178   2.0000      -0.055124        -1.5000
 179   0.0000       0.030369         0.8264
 180   0.0000       0.070289         1.9127
 181   0.0000       0.092715         2.5229
 182   0.0000       0.098968         2.6930
 183   0.0000       0.128112         3.4861

MULLIKEN ATOMIC CHARGES
-----------------------
   0 C :    0.208837
   1 N :   -0.446781
   2 C :   -0.063383
   3 N :   -0.336575
   4 C :   -0.057802
   5 N :   -0.563067
   6 C :   -0.080229
   7 N :   -0.338477
   8 C :    0.203229
   9 N :   -0.563081
  10 C :    0.116050
  11 N :   -0.437478
  12 C :   -0.076316
  13 N :   -0.436930
  14 C :    0.244237
  15 N :   -0.440855
  16 C :    0.231279
  17 C :   -0.086097
  18 C :   -0.216165
  19 C :    0.240898
  20 C :    0.209961
  21 C :   -0.089296
  22 C :   -0.088072
  23 C :   -0.045858
  24 C :    0.202248
  25 C :    0.113972
  26 C :   -0.072107
  27 C :    0.219292
  28 C :   -0.055252
  29 C :   -0.183384
  30 C :    0.238462
  31 C :    0.216373
  32 C :   -0.064438
  33 C :   -0.075423
  34 C :   -0.050407
  35 C :    0.211037
  36 C :    0.112456
  37 C :   -0.066207
  38 C :    0.235332
  39 C :   -0.060282
  40 C :   -0.187200
  41 C :    0.222623
  42 C :    0.201492
  43 C :   -0.073081
  44 C :   -0.089180
  45 C :   -0.054987
  46 C :    0.205603
  47 C :    0.115551
  48 C :   -0.072150
  49 C :    0.229948
  50 C :   -0.051150
  51 C :   -0.189641
  52 H :    0.049934
  53 H :   -0.014595
  54 H :    0.046667
  55 H :    0.047921
  56 H :    0.055667
  57 H :    0.053696
  58 H :    0.053203
  59 H :   -0.007696
  60 H :    0.049533
  61 H :    0.172354
  62 H :    0.173566
  63 H :    0.056461
  64 H :   -0.014649
  65 H :    0.047594
  66 H :    0.057430
  67 H :    0.062803
  68 H :    0.058133
  69 H :    0.058286
  70 H :   -0.025760
  71 H :    0.047084
  72 H :    0.060614
  73 H :   -0.012482
  74 H :    0.050545
  75 H :    0.059759
  76 H :    0.065593
  77 H :    0.060897
  78 H :    0.060135
  79 H :   -0.014657
  80 H :    0.051067
  81 H :    0.053504
  82 H :   -0.023764
  83 H :    0.042840
  84 H :    0.053503
  85 H :    0.059584
  86 H :    0.056089
  87 H :    0.056690
  88 H :   -0.019500
  89 H :    0.044422
Sum of atomic charges:   -0.0000000

LOEWDIN ATOMIC CHARGES
----------------------
   0 C :   -0.008864
   1 N :    0.129090
   2 C :   -0.100796
   3 N :    0.180423
   4 C :    0.021403
   5 N :   -0.136614
   6 C :   -0.028426
   7 N :    0.177243
   8 C :   -0.012958
   9 N :   -0.139675
  10 C :    0.026724
  11 N :    0.144332
  12 C :   -0.104468
  13 N :    0.148624
  14 C :   -0.040129
  15 N :    0.138510
  16 C :   -0.050362
  17 C :   -0.030442
  18 C :   -0.106058
  19 C :   -0.084775
  20 C :    0.002173
  21 C :   -0.109022
  22 C :    0.041413
  23 C :   -0.018136
  24 C :   -0.004333
  25 C :    0.030342
  26 C :   -0.103282
  27 C :   -0.101537
  28 C :   -0.023008
  29 C :   -0.105296
  30 C :   -0.041117
  31 C :    0.007910
  32 C :   -0.098205
  33 C :    0.052130
  34 C :   -0.018455
  35 C :    0.003402
  36 C :    0.031254
  37 C :   -0.099339
  38 C :   -0.044725
  39 C :   -0.023003
  40 C :   -0.108752
  41 C :   -0.092658
  42 C :   -0.007142
  43 C :   -0.102850
  44 C :    0.033570
  45 C :   -0.023959
  46 C :   -0.003366
  47 C :    0.029325
  48 C :   -0.101319
  49 C :   -0.083575
  50 C :   -0.022224
  51 C :   -0.108490
  52 H :    0.027780
  53 H :    0.004039
  54 H :    0.041975
  55 H :    0.027050
  56 H :    0.024866
  57 H :    0.028995
  58 H :    0.029812
  59 H :    0.005693
  60 H :    0.043026
  61 H :    0.060427
  62 H :    0.060878
  63 H :    0.031076
  64 H :    0.000685
  65 H :    0.045754
  66 H :    0.030326
  67 H :    0.028491
  68 H :    0.032033
  69 H :    0.031133
  70 H :   -0.002645
  71 H :    0.044793
  72 H :    0.032700
  73 H :    0.004957
  74 H :    0.046540
  75 H :    0.032086
  76 H :    0.029966
  77 H :    0.032844
  78 H :    0.032514
  79 H :    0.003940
  80 H :    0.046252
  81 H :    0.028865
  82 H :   -0.002066
  83 H :    0.043266
  84 H :    0.029366
  85 H :    0.026787
  86 H :    0.030380
  87 H :    0.031154
  88 H :   -0.000005
  89 H :    0.043765

  Mayer bond orders larger than 0.100000
B(  0-C ,  1-N ) :   1.1067 B(  0-C , 17-C ) :   1.6607 B(  0-C , 52-H ) :   0.9690
B(  1-N ,  8-C ) :   1.1018 B(  1-N , 10-C ) :   0.9682 B(  2-C , 12-C ) :   1.5271
B(  2-C , 16-C ) :   1.3348 B(  2-C , 53-H ) :   0.9772 B(  3-N , 14-C ) :   1.2081
B(  3-N , 16-C ) :   1.1948 B(  3-N , 61-H ) :   0.8986 B(  4-C ,  6-C ) :   1.2445
B(  4-C , 17-C ) :   1.2438 B(  4-C , 18-C ) :   1.3301 B(  5-N , 19-C ) :   1.4320
B(  5-N , 27-C ) :   1.3947 B(  6-C ,  8-C ) :   1.6611 B(  6-C , 54-H ) :   0.9695
B(  7-N , 30-C ) :   1.1945 B(  7-N , 38-C ) :   1.1984 B(  7-N , 62-H ) :   0.8979
B(  8-C , 55-H ) :   0.9697 B(  9-N , 41-C ) :   1.4040 B(  9-N , 49-C ) :   1.4184
B( 10-C , 56-H ) :   0.9764 B( 10-C , 57-H ) :   0.9819 B( 10-C , 58-H ) :   0.9839
B( 11-N , 20-C ) :   1.1275 B( 11-N , 24-C ) :   1.1185 B( 11-N , 25-C ) :   0.9584
B( 12-C , 14-C ) :   1.3361 B( 12-C , 59-H ) :   0.9753 B( 13-N , 31-C ) :   1.1343
B( 13-N , 35-C ) :   1.1287 B( 13-N , 36-C ) :   0.9546 B( 14-C , 18-C ) :   1.1725
B( 15-N , 42-C ) :   1.1132 B( 15-N , 46-C ) :   1.1168 B( 15-N , 47-C ) :   0.9620
B( 16-C , 51-C ) :   1.1895 B( 17-C , 60-H ) :   0.9693 B( 18-C , 19-C ) :   1.1863
B( 19-C , 21-C ) :   1.2195 B( 20-C , 28-C ) :   1.6239 B( 20-C , 63-H ) :   0.9702
B( 21-C , 26-C ) :   1.6362 B( 21-C , 64-H ) :   0.9706 B( 22-C , 23-C ) :   1.2867
B( 22-C , 28-C ) :   1.2719 B( 22-C , 29-C ) :   1.2248 B( 23-C , 24-C ) :   1.6177
B( 23-C , 65-H ) :   0.9707 B( 24-C , 66-H ) :   0.9692 B( 25-C , 67-H ) :   0.9761
B( 25-C , 68-H ) :   0.9829 B( 25-C , 69-H ) :   0.9822 B( 26-C , 27-C ) :   1.2176
B( 26-C , 70-H ) :   0.9727 B( 27-C , 29-C ) :   1.2287 B( 28-C , 71-H ) :   0.9716
B( 29-C , 30-C ) :   1.2185 B( 30-C , 32-C ) :   1.3047 B( 31-C , 39-C ) :   1.6187
B( 31-C , 72-H ) :   0.9692 B( 32-C , 37-C ) :   1.5537 B( 32-C , 73-H ) :   0.9780
B( 33-C , 34-C ) :   1.2843 B( 33-C , 39-C ) :   1.2780 B( 33-C , 40-C ) :   1.2284
B( 34-C , 35-C ) :   1.6157 B( 34-C , 74-H ) :   0.9702 B( 35-C , 75-H ) :   0.9692
B( 36-C , 76-H ) :   0.9764 B( 36-C , 77-H ) :   0.9819 B( 36-C , 78-H ) :   0.9829
B( 37-C , 38-C ) :   1.3069 B( 37-C , 79-H ) :   0.9774 B( 38-C , 40-C ) :   1.2138
B( 39-C , 80-H ) :   0.9712 B( 40-C , 41-C ) :   1.2285 B( 41-C , 43-C ) :   1.2049
B( 42-C , 50-C ) :   1.6335 B( 42-C , 81-H ) :   0.9696 B( 43-C , 48-C ) :   1.6470
B( 43-C , 82-H ) :   0.9733 B( 44-C , 45-C ) :   1.2686 B( 44-C , 50-C ) :   1.2683
B( 44-C , 51-C ) :   1.2570 B( 45-C , 46-C ) :   1.6334 B( 45-C , 83-H ) :   0.9714
B( 46-C , 84-H ) :   0.9701 B( 47-C , 85-H ) :   0.9761 B( 47-C , 86-H ) :   0.9828
B( 47-C , 87-H ) :   0.9825 B( 48-C , 49-C ) :   1.2058 B( 48-C , 88-H ) :   0.9742
B( 49-C , 51-C ) :   1.2268 B( 50-C , 89-H ) :   0.9713

MP2 TOTAL ENERGY:    -2130.913458012 Eh
FINAL SINGLE POINT ENERGY     -2130.913458011923

DIPOLE MOMENT
-------------
                                X             Y             Z
Electronic contribution:      0.51871      -1.86711      -0.12446
Nuclear contribution   :      0.07827       0.23998       0.13385
                        -----------------------------------------
Total Dipole Moment    :      0.59698      -1.62713       0.00939
                        -----------------------------------------
Magnitude (a.u.)       :      1.73322
Magnitude (Debye)      :      4.40548

Rotational constants in cm-1:     0.001499     0.001475     0.000762
Rotational constants in MHz :    44.936229    44.231875    22.833953

                             ****ORCA TERMINATED NORMALLY****
TOTAL RUN TIME: 0 days 1 hours 13 minutes 33 seconds 878 msec
