                         Program Version 5.0.4 -  RELEASE  -
|  1> ! PAL2
|  2> ! mp2 cc-pvdz TightSCF  NoKeepInts
|  3>
|  4> %scf
|  5>   MaxCore 2000
|  6> end
|  7> %mp2
|  8>   MaxCore 2000
|  9> end
| 10> * xyz 0 1
| 11>    C       -3.88000         5.94000        -1.06900
| 12>    C        1.47400         4.04100         0.05700
| 13>    C       -2.80200         4.09300         0.04900
| 14>    C       -3.31400         4.59200         1.25700
| 15>    C       -4.08700         5.73600         1.26200
| 16>    C       -5.22000         7.59600         0.14600
| 17>    C        0.13200         4.30700         0.06100
| 18>    C       -0.56900         3.05600         0.04700
| 19>    C        1.64900         2.61800         0.02300
| 20>    C       -3.10700         4.79600        -1.12600
| 21>    N       -4.35700         6.39500         0.11100
| 22>    N        0.38800         2.06700         0.02500
| 23>    N       -2.01000         0.39500        -0.07500
| 24>    N       -0.38800        -2.07400        -0.02700
| 25>    N        2.01000        -0.40100         0.06500
| 26>    C       -1.96000         2.86100         0.02400
| 27>    C       -2.62300         1.61500        -0.01800
| 28>    C       -5.57300        -4.32900         1.06600
| 29>    C       -4.07300         1.47100         0.05600
| 30>    C       -4.10600        -2.75600        -0.02600
| 31>    C       -4.99500        -2.75700        -1.11100
| 32>    C       -6.13200        -3.54200        -1.07600
| 33>    C       -7.65100        -5.11300         0.04000
| 34>    C       -4.32400         0.14100         0.03700
| 35>    C       -3.02500        -0.52000        -0.04800
| 36>    C       -4.42200        -3.56600         1.07500
| 37>    N       -6.40700        -4.31300         0.00100
| 38>    C       -2.86700        -1.92200        -0.04000
| 39>    C       -1.65000        -2.62400        -0.02700
| 40>    C        3.56800        -6.14200        -1.04000
| 41>    C       -1.47600        -4.04900        -0.03400
| 42>    C        2.80300        -4.09900        -0.00800
| 43>    C        3.65700        -4.38400         1.06900
| 44>    C        4.42700        -5.53000         1.05900
| 45>    C        5.24500        -7.58800         0.01400
| 46>    C       -0.13400        -4.31500        -0.02200
| 47>    C        0.56800        -3.06400        -0.02700
| 48>    C        2.77500        -5.01200        -1.07400
| 49>    N        4.37600        -6.39100         0.01700
| 50>    C        1.95900        -2.86900        -0.00900
| 51>    C        2.62100        -1.62200         0.00900
| 52>    C        5.54300         4.33900        -1.13000
| 53>    C        4.07000        -1.47900        -0.09400
| 54>    C        4.10400         2.75100        -0.02100
| 55>    C        5.02700         2.72900         1.03600
| 56>    C        6.16600         3.50900         0.97800
| 57>    C        7.61900         5.15300        -0.11500
| 58>    C        4.32100        -0.14800        -0.09200
| 59>    C        3.02500         0.51400         0.01500
| 60>    C        4.38700         3.58200        -1.11500
| 61>    C        2.86600         1.91600         0.01300
| 62>    N        6.41300         4.29600        -0.09500
| 63>    H       -4.13000         6.52100        -1.94900
| 64>    H        2.27400         4.76600         0.08100
| 65>    H       -3.12100         4.08800         2.19600
| 66>    H       -4.51000         6.15400         2.16700
| 67>    H       -6.26600         7.28500         0.09200
| 68>    H       -5.03700         8.13300         1.07700
| 69>    H       -4.97300         8.23000        -0.70500
| 70>    H       -0.33200         5.28200         0.06900
| 71>    H       -2.73000         4.46900        -2.08900
| 72>    H        0.18200         1.07200         0.00500
| 73>    H       -0.18300        -1.08000        -0.02100
| 74>    H       -5.86400        -4.96200         1.89500
| 75>    H       -4.79400         2.27200         0.13900
| 76>    H       -4.80000        -2.16000        -1.99400
| 77>    H       -6.84100        -3.58200        -1.89300
| 78>    H       -8.42800        -4.53600         0.54600
| 79>    H       -7.95600        -5.33700        -0.98100
| 80>    H       -7.45600        -6.03700         0.58400
| 81>    H       -5.28700        -0.34400         0.10000
| 82>    H       -3.78000        -3.60100         1.94700
| 83>    H        3.58700        -6.86800        -1.84300
| 84>    H       -2.27600        -4.77400        -0.05000
| 85>    H        3.71400        -3.72400         1.92600
| 86>    H        5.09200        -5.79500         1.87100
| 87>    H        6.20500        -7.32900        -0.43900
| 88>    H        5.39300        -7.91700         1.04200
| 89>    H        4.75900        -8.37300        -0.56400
| 90>    H        0.32900        -5.29000        -0.00800
| 91>    H        2.14600        -4.84200        -1.94000
| 92>    H        5.80800         4.98600        -1.95600
| 93>    H        4.78800        -2.28100        -0.18500
| 94>    H        4.86000         2.11400         1.91200
| 95>    H        6.90100         3.53100         1.77200
| 96>    H        7.38300         6.10900         0.35600
| 97>    H        8.41400         4.65200         0.43500
| 98>    H        7.92100         5.31000        -1.15000
| 99>    H        5.28300         0.33600        -0.17900
|100>    H        3.72000         3.63200        -1.96700
|101> *
|102>
|103>                          ****END OF INPUT****

CARTESIAN COORDINATES (ANGSTROEM)
---------------------------------
  C     -3.880000    5.940000   -1.069000
  C      1.474000    4.041000    0.057000
  C     -2.802000    4.093000    0.049000
  C     -3.314000    4.592000    1.257000
  C     -4.087000    5.736000    1.262000
  C     -5.220000    7.596000    0.146000
  C      0.132000    4.307000    0.061000
  C     -0.569000    3.056000    0.047000
  C      1.649000    2.618000    0.023000
  C     -3.107000    4.796000   -1.126000
  N     -4.357000    6.395000    0.111000
  N      0.388000    2.067000    0.025000
  N     -2.010000    0.395000   -0.075000
  N     -0.388000   -2.074000   -0.027000
  N      2.010000   -0.401000    0.065000
  C     -1.960000    2.861000    0.024000
  C     -2.623000    1.615000   -0.018000
  C     -5.573000   -4.329000    1.066000
  C     -4.073000    1.471000    0.056000
  C     -4.106000   -2.756000   -0.026000
  C     -4.995000   -2.757000   -1.111000
  C     -6.132000   -3.542000   -1.076000
  C     -7.651000   -5.113000    0.040000
  C     -4.324000    0.141000    0.037000
  C     -3.025000   -0.520000   -0.048000
  C     -4.422000   -3.566000    1.075000
  N     -6.407000   -4.313000    0.001000
  C     -2.867000   -1.922000   -0.040000
  C     -1.650000   -2.624000   -0.027000
  C      3.568000   -6.142000   -1.040000
  C     -1.476000   -4.049000   -0.034000
  C      2.803000   -4.099000   -0.008000
  C      3.657000   -4.384000    1.069000
  C      4.427000   -5.530000    1.059000
  C      5.245000   -7.588000    0.014000
  C     -0.134000   -4.315000   -0.022000
  C      0.568000   -3.064000   -0.027000
  C      2.775000   -5.012000   -1.074000
  N      4.376000   -6.391000    0.017000
  C      1.959000   -2.869000   -0.009000
  C      2.621000   -1.622000    0.009000
  C      5.543000    4.339000   -1.130000
  C      4.070000   -1.479000   -0.094000
  C      4.104000    2.751000   -0.021000
  C      5.027000    2.729000    1.036000
  C      6.166000    3.509000    0.978000
  C      7.619000    5.153000   -0.115000
  C      4.321000   -0.148000   -0.092000
  C      3.025000    0.514000    0.015000
  C      4.387000    3.582000   -1.115000
  C      2.866000    1.916000    0.013000
  N      6.413000    4.296000   -0.095000
  H     -4.130000    6.521000   -1.949000
  H      2.274000    4.766000    0.081000
  H     -3.121000    4.088000    2.196000
  H     -4.510000    6.154000    2.167000
  H     -6.266000    7.285000    0.092000
  H     -5.037000    8.133000    1.077000
  H     -4.973000    8.230000   -0.705000
  H     -0.332000    5.282000    0.069000
  H     -2.730000    4.469000   -2.089000
  H      0.182000    1.072000    0.005000
  H     -0.183000   -1.080000   -0.021000
  H     -5.864000   -4.962000    1.895000
  H     -4.794000    2.272000    0.139000
  H     -4.800000   -2.160000   -1.994000
  H     -6.841000   -3.582000   -1.893000
  H     -8.428000   -4.536000    0.546000
  H     -7.956000   -5.337000   -0.981000
  H     -7.456000   -6.037000    0.584000
  H     -5.287000   -0.344000    0.100000
  H     -3.780000   -3.601000    1.947000
  H      3.587000   -6.868000   -1.843000
  H     -2.276000   -4.774000   -0.050000
  H      3.714000   -3.724000    1.926000
  H      5.092000   -5.795000    1.871000
  H      6.205000   -7.329000   -0.439000
  H      5.393000   -7.917000    1.042000
  H      4.759000   -8.373000   -0.564000
  H      0.329000   -5.290000   -0.008000
  H      2.146000   -4.842000   -1.940000
  H      5.808000    4.986000   -1.956000
  H      4.788000   -2.281000   -0.185000
  H      4.860000    2.114000    1.912000
  H      6.901000    3.531000    1.772000
  H      7.383000    6.109000    0.356000
  H      8.414000    4.652000    0.435000
  H      7.921000    5.310000   -1.150000
  H      5.283000    0.336000   -0.179000
  H      3.720000    3.632000   -1.967000

 Total Charge           Charge          ....    0
 Multiplicity           Mult            ....    1
 Number of Electrons    NEL             ....  358
 Basis Dimension        Dim             ....  918

ORBITAL ENERGIES
----------------

  NO   OCC          E(Eh)            E(eV)
   0   2.0000     -15.717147      -427.6853
   1   2.0000     -15.628650      -425.2772
   2   2.0000     -15.618998      -425.0145
   3   2.0000     -15.577892      -423.8960
   4   2.0000     -15.520826      -422.3432
   5   2.0000     -15.504381      -421.8957
   6   2.0000     -15.450983      -420.4426
   7   2.0000     -15.427302      -419.7982
   8   2.0000     -11.356221      -309.0185
   9   2.0000     -11.354112      -308.9611
  10   2.0000     -11.348670      -308.8130
  11   2.0000     -11.311244      -307.7946
  12   2.0000     -11.296472      -307.3926
  13   2.0000     -11.290616      -307.2333
  14   2.0000     -11.289876      -307.2132
  15   2.0000     -11.285209      -307.0861
  16   2.0000     -11.284877      -307.0771
  17   2.0000     -11.281765      -306.9924
  18   2.0000     -11.280725      -306.9641
  19   2.0000     -11.271760      -306.7202
  20   2.0000     -11.264016      -306.5094
  21   2.0000     -11.244166      -305.9693
  22   2.0000     -11.240657      -305.8738
  23   2.0000     -11.232393      -305.6489
  24   2.0000     -11.226839      -305.4978
  25   2.0000     -11.225934      -305.4732
  26   2.0000     -11.223299      -305.4015
  27   2.0000     -11.219303      -305.2928
  28   2.0000     -11.218989      -305.2842
  29   2.0000     -11.210891      -305.0639
  30   2.0000     -11.209082      -305.0146
  31   2.0000     -11.194667      -304.6224
  32   2.0000     -11.193608      -304.5936
  33   2.0000     -11.192366      -304.5598
  34   2.0000     -11.189223      -304.4742
  35   2.0000     -11.188462      -304.4535
  36   2.0000     -11.184429      -304.3438
  37   2.0000     -11.180056      -304.2248
  38   2.0000     -11.179978      -304.2227
  39   2.0000     -11.177196      -304.1470
  40   2.0000     -11.169339      -303.9332
  41   2.0000     -11.165053      -303.8165
  42   2.0000     -11.164415      -303.7992
  43   2.0000     -11.161231      -303.7125
  44   2.0000     -11.161073      -303.7082
  45   2.0000     -11.145439      -303.2828
  46   2.0000     -11.144963      -303.2699
  47   2.0000     -11.140705      -303.1540
  48   2.0000     -11.138042      -303.0815
  49   2.0000     -11.131195      -302.8952
  50   2.0000     -11.117604      -302.5254
  51   2.0000     -11.111956      -302.3717
  52   2.0000      -1.389712       -37.8160
  53   2.0000      -1.316862       -35.8336
  54   2.0000      -1.307956       -35.5913
  55   2.0000      -1.272997       -34.6400
  56   2.0000      -1.224288       -33.3146
  57   2.0000      -1.200369       -32.6637
  58   2.0000      -1.177431       -32.0395
  59   2.0000      -1.163721       -31.6665
  60   2.0000      -1.137561       -30.9546
  61   2.0000      -1.107488       -30.1363
  62   2.0000      -1.106091       -30.0983
  63   2.0000      -1.097720       -29.8705
  64   2.0000      -1.067031       -29.0354
  65   2.0000      -1.056160       -28.7396
  66   2.0000      -1.041288       -28.3349
  67   2.0000      -1.032895       -28.1065
  68   2.0000      -1.014908       -27.6170
  69   2.0000      -1.004055       -27.3217
  70   2.0000      -1.000143       -27.2153
  71   2.0000      -0.994590       -27.0642
  72   2.0000      -0.985318       -26.8119
  73   2.0000      -0.976540       -26.5730
  74   2.0000      -0.964021       -26.2323
  75   2.0000      -0.961491       -26.1635
  76   2.0000      -0.950838       -25.8736
  77   2.0000      -0.940705       -25.5979
  78   2.0000      -0.933538       -25.4029
  79   2.0000      -0.920323       -25.0433
  80   2.0000      -0.912735       -24.8368
  81   2.0000      -0.890717       -24.2376
  82   2.0000      -0.886107       -24.1122
  83   2.0000      -0.868365       -23.6294
  84   2.0000      -0.860380       -23.4121
  85   2.0000      -0.846643       -23.0383
  86   2.0000      -0.829289       -22.5661
  87   2.0000      -0.827189       -22.5090
  88   2.0000      -0.820496       -22.3268
  89   2.0000      -0.794409       -21.6170
  90   2.0000      -0.786066       -21.3899
  91   2.0000      -0.771106       -20.9829
  92   2.0000      -0.738497       -20.0955
  93   2.0000      -0.733597       -19.9622
  94   2.0000      -0.728734       -19.8298
  95   2.0000      -0.723458       -19.6863
  96   2.0000      -0.716257       -19.4903
  97   2.0000      -0.708524       -19.2799
  98   2.0000      -0.707047       -19.2397
  99   2.0000      -0.704022       -19.1574
 100   2.0000      -0.695719       -18.9315
 101   2.0000      -0.688382       -18.7318
 102   2.0000      -0.684321       -18.6213
 103   2.0000      -0.675196       -18.3730
 104   2.0000      -0.672511       -18.3000
 105   2.0000      -0.669349       -18.2139
 106   2.0000      -0.667169       -18.1546
 107   2.0000      -0.662160       -18.0183
 108   2.0000      -0.652062       -17.7435
 109   2.0000      -0.649321       -17.6689
 110   2.0000      -0.648352       -17.6426
 111   2.0000      -0.642344       -17.4791
 112   2.0000      -0.640551       -17.4303
 113   2.0000      -0.634440       -17.2640
 114   2.0000      -0.633014       -17.2252
 115   2.0000      -0.629659       -17.1339
 116   2.0000      -0.626901       -17.0588
 117   2.0000      -0.615624       -16.7520
 118   2.0000      -0.611139       -16.6299
 119   2.0000      -0.609266       -16.5790
 120   2.0000      -0.608461       -16.5571
 121   2.0000      -0.601038       -16.3551
 122   2.0000      -0.591023       -16.0825
 123   2.0000      -0.589545       -16.0423
 124   2.0000      -0.584703       -15.9106
 125   2.0000      -0.578243       -15.7348
 126   2.0000      -0.575010       -15.6468
 127   2.0000      -0.571072       -15.5397
 128   2.0000      -0.570804       -15.5324
 129   2.0000      -0.569259       -15.4903
 130   2.0000      -0.556347       -15.1390
 131   2.0000      -0.543848       -14.7988
 132   2.0000      -0.541942       -14.7470
 133   2.0000      -0.538737       -14.6598
 134   2.0000      -0.533510       -14.5176
 135   2.0000      -0.529499       -14.4084
 136   2.0000      -0.519231       -14.1290
 137   2.0000      -0.515907       -14.0385
 138   2.0000      -0.513480       -13.9725
 139   2.0000      -0.512283       -13.9399
 140   2.0000      -0.509770       -13.8715
 141   2.0000      -0.503169       -13.6919
 142   2.0000      -0.501201       -13.6384
 143   2.0000      -0.498136       -13.5550
 144   2.0000      -0.495330       -13.4786
 145   2.0000      -0.493132       -13.4188
 146   2.0000      -0.488626       -13.2962
 147   2.0000      -0.473685       -12.8896
 148   2.0000      -0.470738       -12.8094
 149   2.0000      -0.466079       -12.6826
 150   2.0000      -0.462203       -12.5772
 151   2.0000      -0.460260       -12.5243
 152   2.0000      -0.451781       -12.2936
 153   2.0000      -0.440771       -11.9940
 154   2.0000      -0.433389       -11.7931
 155   2.0000      -0.431648       -11.7457
 156   2.0000      -0.418234       -11.3807
 157   2.0000      -0.416646       -11.3375
 158   2.0000      -0.411923       -11.2090
 159   2.0000      -0.408343       -11.1116
 160   2.0000      -0.381345       -10.3769
 161   2.0000      -0.369717       -10.0605
 162   2.0000      -0.353369        -9.6157
 163   2.0000      -0.352038        -9.5795
 164   2.0000      -0.345966        -9.4142
 165   2.0000      -0.341173        -9.2838
 166   2.0000      -0.338241        -9.2040
 167   2.0000      -0.317885        -8.6501
 168   2.0000      -0.312480        -8.5030
 169   2.0000      -0.304626        -8.2893
 170   2.0000      -0.298055        -8.1105
 171   2.0000      -0.282734        -7.6936
 172   2.0000      -0.275585        -7.4990
 173   2.0000      -0.266225        -7.2444
 174   2.0000      -0.229697        -6.2504
 175   2.0000      -0.183118        -4.9829
 176   2.0000      -0.173329        -4.7165
 177   2.0000      -0.062642        -1.7046
 178   2.0000      -0.050739        -1.3807
 179   0.0000       0.035844         0.9754
 180   0.0000       0.054869         1.4931
 181   0.0000       0.075417         2.0522
 182   0.0000       0.098580         2.6825
 183   0.0000       0.102038         2.7766

MULLIKEN ATOMIC CHARGES
-----------------------
   0 C :    0.238126
   1 N :   -0.410901
   2 C :   -0.066034
   3 N :   -0.343775
   4 C :   -0.065533
   5 N :   -0.566292
   6 C :   -0.025644
   7 N :   -0.336723
   8 C :    0.233098
   9 N :   -0.566432
  10 C :    0.102796
  11 N :   -0.440118
  12 C :   -0.058751
  13 N :   -0.451692
  14 C :    0.220734
  15 N :   -0.441769
  16 C :    0.257012
  17 C :   -0.033885
  18 C :   -0.178402
  19 C :    0.232009
  20 C :    0.186559
  21 C :   -0.068673
  22 C :   -0.091956
  23 C :   -0.068591
  24 C :    0.217324
  25 C :    0.115147
  26 C :   -0.065060
  27 C :    0.249341
  28 C :   -0.039196
  29 C :   -0.197916
  30 C :    0.219988
  31 C :    0.186318
  32 C :   -0.064801
  33 C :   -0.103809
  34 C :   -0.050778
  35 C :    0.177127
  36 C :    0.121447
  37 C :   -0.070922
  38 C :    0.244640
  39 C :   -0.065380
  40 C :   -0.205549
  41 C :    0.216464
  42 C :    0.212559
  43 C :   -0.077519
  44 C :   -0.092804
  45 C :   -0.037354
  46 C :    0.182535
  47 C :    0.116870
  48 C :   -0.082111
  49 C :    0.206673
  50 C :   -0.068597
  51 C :   -0.188287
  52 H :    0.083814
  53 H :   -0.006305
  54 H :    0.068916
  55 H :    0.082282
  56 H :    0.086463
  57 H :    0.077471
  58 H :    0.075419
  59 H :   -0.029504
  60 H :    0.068434
  61 H :    0.177544
  62 H :    0.167356
  63 H :    0.051927
  64 H :   -0.035303
  65 H :    0.039940
  66 H :    0.054210
  67 H :    0.057392
  68 H :    0.055529
  69 H :    0.058626
  70 H :   -0.012605
  71 H :    0.046010
  72 H :    0.036184
  73 H :   -0.019673
  74 H :    0.028181
  75 H :    0.034868
  76 H :    0.045131
  77 H :    0.045255
  78 H :    0.044528
  79 H :   -0.011721
  80 H :    0.027985
  81 H :    0.049916
  82 H :   -0.022815
  83 H :    0.042545
  84 H :    0.048869
  85 H :    0.053790
  86 H :    0.056290
  87 H :    0.054168
  88 H :   -0.030795
  89 H :    0.038165
Sum of atomic charges:   -0.0000000

LOEWDIN ATOMIC CHARGES
----------------------
   0 C :    0.042015
   1 N :    0.195864
   2 C :   -0.098055
   3 N :    0.170975
   4 C :    0.122583
   5 N :   -0.148718
   6 C :   -0.008357
   7 N :    0.177549
   8 C :    0.038310
   9 N :   -0.138578
  10 C :    0.040536
  11 N :    0.138235
  12 C :   -0.096525
  13 N :    0.111647
  14 C :   -0.062127
  15 N :    0.134146
  16 C :   -0.015483
  17 C :   -0.012236
  18 C :   -0.121555
  19 C :   -0.089600
  20 C :   -0.020148
  21 C :   -0.098967
  22 C :    0.031358
  23 C :   -0.035017
  24 C :    0.007178
  25 C :    0.029011
  26 C :   -0.091045
  27 C :   -0.051977
  28 C :   -0.014817
  29 C :   -0.119263
  30 C :   -0.066163
  31 C :   -0.028437
  32 C :   -0.101299
  33 C :   -0.009229
  34 C :   -0.027445
  35 C :   -0.036666
  36 C :    0.022683
  37 C :   -0.110921
  38 C :   -0.028722
  39 C :   -0.034981
  40 C :   -0.113982
  41 C :   -0.092922
  42 C :    0.000907
  43 C :   -0.114663
  44 C :    0.025916
  45 C :   -0.013748
  46 C :   -0.025204
  47 C :    0.028059
  48 C :   -0.114843
  49 C :   -0.119390
  50 C :   -0.034536
  51 C :   -0.107595
  52 H :    0.043031
  53 H :    0.008066
  54 H :    0.056527
  55 H :    0.042573
  56 H :    0.040849
  57 H :    0.040443
  58 H :    0.039965
  59 H :   -0.000911
  60 H :    0.056250
  61 H :    0.062843
  62 H :    0.057472
  63 H :    0.028274
  64 H :   -0.005745
  65 H :    0.041287
  66 H :    0.029621
  67 H :    0.025946
  68 H :    0.030803
  69 H :    0.031081
  70 H :    0.003564
  71 H :    0.045203
  72 H :    0.021447
  73 H :    0.001575
  74 H :    0.037220
  75 H :    0.020468
  76 H :    0.019470
  77 H :    0.025532
  78 H :    0.025236
  79 H :    0.005578
  80 H :    0.036338
  81 H :    0.027806
  82 H :   -0.001241
  83 H :    0.044105
  84 H :    0.026511
  85 H :    0.024047
  86 H :    0.030299
  87 H :    0.029945
  88 H :   -0.005406
  89 H :    0.040169

  Mayer bond orders larger than 0.100000
B(  0-C ,  1-N ) :   1.2120 B(  0-C , 17-C ) :   1.5135 B(  0-C , 52-H ) :   0.9667
B(  1-N ,  8-C ) :   1.2025 B(  1-N , 10-C ) :   0.9250 B(  2-C , 12-C ) :   1.5813
B(  2-C , 16-C ) :   1.2725 B(  2-C , 53-H ) :   0.9793 B(  3-N , 14-C ) :   1.1752
B(  3-N , 16-C ) :   1.2020 B(  3-N , 61-H ) :   0.8951 B(  4-C ,  6-C ) :   1.3605
B(  4-C , 17-C ) :   1.3609 B(  4-C , 18-C ) :   1.0529 B(  5-N , 19-C ) :   1.3638
B(  5-N , 27-C ) :   1.4491 B(  6-C ,  8-C ) :   1.5150 B(  6-C , 54-H ) :   0.9704
B(  7-N , 30-C ) :   1.1843 B(  7-N , 38-C ) :   1.2155 B(  7-N , 62-H ) :   0.9016
B(  8-C , 55-H ) :   0.9675 B(  9-N , 41-C ) :   1.4362 B(  9-N , 49-C ) :   1.3914
B( 10-C , 56-H ) :   0.9766 B( 10-C , 57-H ) :   0.9805 B( 10-C , 58-H ) :   0.9816
B( 11-N , 20-C ) :   1.0960 B( 11-N , 24-C ) :   1.1340 B( 11-N , 25-C ) :   0.9626
B( 12-C , 14-C ) :   1.2725 B( 12-C , 59-H ) :   0.9767 B( 13-N , 31-C ) :   1.0813
B( 13-N , 35-C ) :   1.0714 B( 13-N , 36-C ) :   0.9828 B( 14-C , 18-C ) :   1.2618
B( 15-N , 42-C ) :   1.1264 B( 15-N , 46-C ) :   1.0885 B( 15-N , 47-C ) :   0.9665
B( 16-C , 51-C ) :   1.2480 B( 17-C , 60-H ) :   0.9709 B( 18-C , 19-C ) :   1.3132
B( 19-C , 21-C ) :   1.1611 B( 20-C , 28-C ) :   1.6298 B( 20-C , 63-H ) :   0.9710
B( 21-C , 26-C ) :   1.6837 B( 21-C , 64-H ) :   0.9714 B( 22-C , 23-C ) :   1.2547
B( 22-C , 28-C ) :   1.2793 B( 22-C , 29-C ) :   1.2583 B( 23-C , 24-C ) :   1.6357
B( 23-C , 65-H ) :   0.9723 B( 24-C , 66-H ) :   0.9691 B( 25-C , 67-H ) :   0.9762
B( 25-C , 68-H ) :   0.9834 B( 25-C , 69-H ) :   0.9819 B( 26-C , 27-C ) :   1.1711
B( 26-C , 70-H ) :   0.9758 B( 27-C , 29-C ) :   1.2435 B( 28-C , 71-H ) :   0.9709
B( 29-C , 30-C ) :   1.1730 B( 30-C , 32-C ) :   1.3530 B( 31-C , 39-C ) :   1.6858
B( 31-C , 72-H ) :   0.9709 B( 32-C , 37-C ) :   1.5069 B( 32-C , 73-H ) :   0.9771
B( 33-C , 34-C ) :   1.2315 B( 33-C , 39-C ) :   1.2242 B( 33-C , 40-C ) :   1.3605
B( 34-C , 35-C ) :   1.6845 B( 34-C , 74-H ) :   0.9710 B( 35-C , 75-H ) :   0.9709
B( 36-C , 76-H ) :   0.9755 B( 36-C , 77-H ) :   0.9826 B( 36-C , 78-H ) :   0.9838
B( 37-C , 38-C ) :   1.3467 B( 37-C , 79-H ) :   0.9793 B( 38-C , 40-C ) :   1.1768
B( 39-C , 80-H ) :   0.9721 B( 40-C , 41-C ) :   1.1680 B( 41-C , 43-C ) :   1.2559
B( 42-C , 50-C ) :   1.6423 B( 42-C , 81-H ) :   0.9696 B( 43-C , 48-C ) :   1.5952
B( 43-C , 82-H ) :   0.9757 B( 44-C , 45-C ) :   1.2813 B( 44-C , 50-C ) :   1.2485
B( 44-C , 51-C ) :   1.2460 B( 45-C , 46-C ) :   1.6329 B( 45-C , 83-H ) :   0.9702
B( 46-C , 84-H ) :   0.9709 B( 47-C , 85-H ) :   0.9759 B( 47-C , 86-H ) :   0.9825
B( 47-C , 87-H ) :   0.9830 B( 48-C , 49-C ) :   1.2502 B( 48-C , 88-H ) :   0.9726
B( 49-C , 51-C ) :   1.1908 B( 50-C , 89-H ) :   0.9722

MP2 TOTAL ENERGY:    -2130.871550612 Eh
FINAL SINGLE POINT ENERGY     -2130.871550611972

DIPOLE MOMENT
-------------
                                X             Y             Z
Electronic contribution:     -4.54513       5.39925      -0.14939
Nuclear contribution   :     -0.03281       0.16311       0.20374
                        -----------------------------------------
Total Dipole Moment    :     -4.57794       5.56236       0.05436
                        -----------------------------------------
Magnitude (a.u.)       :      7.20419
Magnitude (Debye)      :     18.31158

Rotational constants in cm-1:     0.001498     0.001472     0.000763
Rotational constants in MHz :    44.905107    44.138922    22.867778

                             ****ORCA TERMINATED NORMALLY****
TOTAL RUN TIME: 0 days 1 hours 36 minutes 36 seconds 364 msec
