                         Program Version 5.0.4 -  RELEASE  -
|  1> ! PAL2
|  2> ! mp2 cc-pvdz TightSCF  NoKeepInts
|  3>
|  4> %scf
|  5>   MaxCore 2000
|  6> end
|  7> %mp2
|  8>   MaxCore 2000
|  9> end
| 10> * xyz 0 1
| 11>    C       -3.53800         6.12900         1.11500
| 12>    C        1.47400         4.04100         0.05700
| 13>    C       -2.80200         4.09300         0.04900
| 14>    C       -3.69300         4.37900        -0.99700
| 15>    C       -4.46800         5.52000        -0.95500
| 16>    C       -5.20400         7.60900         0.08800
| 17>    C        0.13200         4.30700         0.06100
| 18>    C       -0.56900         3.05600         0.04700
| 19>    C        1.64900         2.61800         0.02300
| 20>    C       -2.73800         5.00300         1.11500
| 21>    N       -4.38700         6.37500         0.09100
| 22>    N        0.38800         2.06700         0.02500
| 23>    N       -2.01000         0.39500        -0.07500
| 24>    N       -0.38800        -2.07400        -0.02700
| 25>    N        2.01000        -0.40100         0.06500
| 26>    C       -1.96000         2.86100         0.02400
| 27>    C       -2.62300         1.61500        -0.01800
| 28>    C       -5.57300        -4.32900         1.06600
| 29>    C       -4.07300         1.47100         0.05600
| 30>    C       -4.10600        -2.75600        -0.02600
| 31>    C       -4.99500        -2.75700        -1.11100
| 32>    C       -6.13200        -3.54200        -1.07600
| 33>    C       -7.65100        -5.11300         0.04000
| 34>    C       -4.32400         0.14100         0.03700
| 35>    C       -3.02500        -0.52000        -0.04800
| 36>    C       -4.42200        -3.56600         1.07500
| 37>    N       -6.40700        -4.31300         0.00100
| 38>    C       -2.86700        -1.92200        -0.04000
| 39>    C       -1.65000        -2.62400        -0.02700
| 40>    C        3.56800        -6.14200        -1.04000
| 41>    C       -1.47600        -4.04900        -0.03400
| 42>    C        2.80300        -4.09900        -0.00800
| 43>    C        3.65700        -4.38400         1.06900
| 44>    C        4.42700        -5.53000         1.05900
| 45>    C        5.24500        -7.58800         0.01400
| 46>    C       -0.13400        -4.31500        -0.02200
| 47>    C        0.56800        -3.06400        -0.02700
| 48>    C        2.77500        -5.01200        -1.07400
| 49>    N        4.37600        -6.39100         0.01700
| 50>    C        1.95900        -2.86900        -0.00900
| 51>    C        2.62100        -1.62200         0.00900
| 52>    C        5.54300         4.33900        -1.13000
| 53>    C        4.07000        -1.47900        -0.09400
| 54>    C        4.10400         2.75100        -0.02100
| 55>    C        5.02700         2.72900         1.03600
| 56>    C        6.16600         3.50900         0.97800
| 57>    C        7.61900         5.15300        -0.11500
| 58>    C        4.32100        -0.14800        -0.09200
| 59>    C        3.02500         0.51400         0.01500
| 60>    C        4.38700         3.58200        -1.11500
| 61>    C        2.86600         1.91600         0.01300
| 62>    N        6.41300         4.29600        -0.09500
| 63>    H       -3.53100         6.85200         1.92200
| 64>    H        2.27400         4.76600         0.08100
| 65>    H       -3.78100         3.72000        -1.85200
| 66>    H       -5.16200         5.78700        -1.74200
| 67>    H       -4.66700         8.38900        -0.45600
| 68>    H       -6.15500         7.39900        -0.40000
| 69>    H       -5.37300         7.92000         1.11900
| 70>    H       -0.33200         5.28200         0.06900
| 71>    H       -2.08000         4.83100         1.96000
| 72>    H        0.18200         1.07200         0.00500
| 73>    H       -0.18300        -1.08000        -0.02100
| 74>    H       -5.86400        -4.96200         1.89500
| 75>    H       -4.79400         2.27200         0.13900
| 76>    H       -4.80000        -2.16000        -1.99400
| 77>    H       -6.84100        -3.58200        -1.89300
| 78>    H       -8.42800        -4.53600         0.54600
| 79>    H       -7.95600        -5.33700        -0.98100
| 80>    H       -7.45600        -6.03700         0.58400
| 81>    H       -5.28700        -0.34400         0.10000
| 82>    H       -3.78000        -3.60100         1.94700
| 83>    H        3.58700        -6.86800        -1.84300
| 84>    H       -2.27600        -4.77400        -0.05000
| 85>    H        3.71400        -3.72400         1.92600
| 86>    H        5.09200        -5.79500         1.87100
| 87>    H        6.20500        -7.32900        -0.43900
| 88>    H        5.39300        -7.91700         1.04200
| 89>    H        4.75900        -8.37300        -0.56400
| 90>    H        0.32900        -5.29000        -0.00800
| 91>    H        2.14600        -4.84200        -1.94000
| 92>    H        5.80800         4.98600        -1.95600
| 93>    H        4.78800        -2.28100        -0.18500
| 94>    H        4.86000         2.11400         1.91200
| 95>    H        6.90100         3.53100         1.77200
| 96>    H        7.38300         6.10900         0.35600
| 97>    H        8.41400         4.65200         0.43500
| 98>    H        7.92100         5.31000        -1.15000
| 99>    H        5.28300         0.33600        -0.17900
|100>    H        3.72000         3.63200        -1.96700
|101> *
|102>
|103>                          ****END OF INPUT****

CARTESIAN COORDINATES (ANGSTROEM)
---------------------------------
  C     -3.538000    6.129000    1.115000
  C      1.474000    4.041000    0.057000
  C     -2.802000    4.093000    0.049000
  C     -3.693000    4.379000   -0.997000
  C     -4.468000    5.520000   -0.955000
  C     -5.204000    7.609000    0.088000
  C      0.132000    4.307000    0.061000
  C     -0.569000    3.056000    0.047000
  C      1.649000    2.618000    0.023000
  C     -2.738000    5.003000    1.115000
  N     -4.387000    6.375000    0.091000
  N      0.388000    2.067000    0.025000
  N     -2.010000    0.395000   -0.075000
  N     -0.388000   -2.074000   -0.027000
  N      2.010000   -0.401000    0.065000
  C     -1.960000    2.861000    0.024000
  C     -2.623000    1.615000   -0.018000
  C     -5.573000   -4.329000    1.066000
  C     -4.073000    1.471000    0.056000
  C     -4.106000   -2.756000   -0.026000
  C     -4.995000   -2.757000   -1.111000
  C     -6.132000   -3.542000   -1.076000
  C     -7.651000   -5.113000    0.040000
  C     -4.324000    0.141000    0.037000
  C     -3.025000   -0.520000   -0.048000
  C     -4.422000   -3.566000    1.075000
  N     -6.407000   -4.313000    0.001000
  C     -2.867000   -1.922000   -0.040000
  C     -1.650000   -2.624000   -0.027000
  C      3.568000   -6.142000   -1.040000
  C     -1.476000   -4.049000   -0.034000
  C      2.803000   -4.099000   -0.008000
  C      3.657000   -4.384000    1.069000
  C      4.427000   -5.530000    1.059000
  C      5.245000   -7.588000    0.014000
  C     -0.134000   -4.315000   -0.022000
  C      0.568000   -3.064000   -0.027000
  C      2.775000   -5.012000   -1.074000
  N      4.376000   -6.391000    0.017000
  C      1.959000   -2.869000   -0.009000
  C      2.621000   -1.622000    0.009000
  C      5.543000    4.339000   -1.130000
  C      4.070000   -1.479000   -0.094000
  C      4.104000    2.751000   -0.021000
  C      5.027000    2.729000    1.036000
  C      6.166000    3.509000    0.978000
  C      7.619000    5.153000   -0.115000
  C      4.321000   -0.148000   -0.092000
  C      3.025000    0.514000    0.015000
  C      4.387000    3.582000   -1.115000
  C      2.866000    1.916000    0.013000
  N      6.413000    4.296000   -0.095000
  H     -3.531000    6.852000    1.922000
  H      2.274000    4.766000    0.081000
  H     -3.781000    3.720000   -1.852000
  H     -5.162000    5.787000   -1.742000
  H     -4.667000    8.389000   -0.456000
  H     -6.155000    7.399000   -0.400000
  H     -5.373000    7.920000    1.119000
  H     -0.332000    5.282000    0.069000
  H     -2.080000    4.831000    1.960000
  H      0.182000    1.072000    0.005000
  H     -0.183000   -1.080000   -0.021000
  H     -5.864000   -4.962000    1.895000
  H     -4.794000    2.272000    0.139000
  H     -4.800000   -2.160000   -1.994000
  H     -6.841000   -3.582000   -1.893000
  H     -8.428000   -4.536000    0.546000
  H     -7.956000   -5.337000   -0.981000
  H     -7.456000   -6.037000    0.584000
  H     -5.287000   -0.344000    0.100000
  H     -3.780000   -3.601000    1.947000
  H      3.587000   -6.868000   -1.843000
  H     -2.276000   -4.774000   -0.050000
  H      3.714000   -3.724000    1.926000
  H      5.092000   -5.795000    1.871000
  H      6.205000   -7.329000   -0.439000
  H      5.393000   -7.917000    1.042000
  H      4.759000   -8.373000   -0.564000
  H      0.329000   -5.290000   -0.008000
  H      2.146000   -4.842000   -1.940000
  H      5.808000    4.986000   -1.956000
  H      4.788000   -2.281000   -0.185000
  H      4.860000    2.114000    1.912000
  H      6.901000    3.531000    1.772000
  H      7.383000    6.109000    0.356000
  H      8.414000    4.652000    0.435000
  H      7.921000    5.310000   -1.150000
  H      5.283000    0.336000   -0.179000
  H      3.720000    3.632000   -1.967000

 Total Charge           Charge          ....    0
 Multiplicity           Mult            ....    1
 Number of Electrons    NEL             ....  358
 Basis Dimension        Dim             ....  918

ORBITAL ENERGIES
----------------

  NO   OCC          E(Eh)            E(eV)
   0   2.0000     -15.639725      -425.5786
   1   2.0000     -15.636209      -425.4829
   2   2.0000     -15.628566      -425.2749
   3   2.0000     -15.627857      -425.2556
   4   2.0000     -15.518149      -422.2703
   5   2.0000     -15.515566      -422.2000
   6   2.0000     -15.444400      -420.2635
   7   2.0000     -15.443003      -420.2255
   8   2.0000     -11.302807      -307.5650
   9   2.0000     -11.300841      -307.5115
  10   2.0000     -11.295960      -307.3787
  11   2.0000     -11.295859      -307.3759
  12   2.0000     -11.294871      -307.3491
  13   2.0000     -11.294507      -307.3392
  14   2.0000     -11.293488      -307.3114
  15   2.0000     -11.290738      -307.2366
  16   2.0000     -11.286249      -307.1145
  17   2.0000     -11.285482      -307.0936
  18   2.0000     -11.285420      -307.0919
  19   2.0000     -11.284940      -307.0788
  20   2.0000     -11.243053      -305.9390
  21   2.0000     -11.240727      -305.8757
  22   2.0000     -11.234746      -305.7130
  23   2.0000     -11.234097      -305.6953
  24   2.0000     -11.233357      -305.6752
  25   2.0000     -11.232861      -305.6617
  26   2.0000     -11.232212      -305.6440
  27   2.0000     -11.231345      -305.6204
  28   2.0000     -11.226383      -305.4854
  29   2.0000     -11.226280      -305.4826
  30   2.0000     -11.226116      -305.4781
  31   2.0000     -11.225702      -305.4669
  32   2.0000     -11.199561      -304.7556
  33   2.0000     -11.199167      -304.7448
  34   2.0000     -11.194677      -304.6226
  35   2.0000     -11.194330      -304.6132
  36   2.0000     -11.172152      -304.0097
  37   2.0000     -11.171425      -303.9899
  38   2.0000     -11.170876      -303.9750
  39   2.0000     -11.170539      -303.9658
  40   2.0000     -11.169842      -303.9468
  41   2.0000     -11.169398      -303.9348
  42   2.0000     -11.167526      -303.8838
  43   2.0000     -11.166098      -303.8450
  44   2.0000     -11.159245      -303.6585
  45   2.0000     -11.157648      -303.6150
  46   2.0000     -11.153424      -303.5001
  47   2.0000     -11.152085      -303.4637
  48   2.0000     -11.143002      -303.2165
  49   2.0000     -11.141397      -303.1728
  50   2.0000     -11.141000      -303.1620
  51   2.0000     -11.139617      -303.1244
  52   2.0000      -1.326087       -36.0847
  53   2.0000      -1.323149       -36.0047
  54   2.0000      -1.316402       -35.8211
  55   2.0000      -1.316179       -35.8151
  56   2.0000      -1.216938       -33.1146
  57   2.0000      -1.212803       -33.0021
  58   2.0000      -1.161276       -31.5999
  59   2.0000      -1.156546       -31.4712
  60   2.0000      -1.114911       -30.3383
  61   2.0000      -1.111426       -30.2434
  62   2.0000      -1.106009       -30.0960
  63   2.0000      -1.104214       -30.0472
  64   2.0000      -1.049861       -28.5682
  65   2.0000      -1.047348       -28.4998
  66   2.0000      -1.041144       -28.3310
  67   2.0000      -1.040941       -28.3254
  68   2.0000      -1.026135       -27.9226
  69   2.0000      -1.009764       -27.4771
  70   2.0000      -1.008661       -27.4471
  71   2.0000      -0.998676       -27.1754
  72   2.0000      -0.981058       -26.6960
  73   2.0000      -0.976298       -26.5664
  74   2.0000      -0.967892       -26.3377
  75   2.0000      -0.961064       -26.1519
  76   2.0000      -0.952358       -25.9150
  77   2.0000      -0.942272       -25.6405
  78   2.0000      -0.940132       -25.5823
  79   2.0000      -0.923422       -25.1276
  80   2.0000      -0.892357       -24.2823
  81   2.0000      -0.877033       -23.8653
  82   2.0000      -0.874252       -23.7896
  83   2.0000      -0.869080       -23.6489
  84   2.0000      -0.866776       -23.5862
  85   2.0000      -0.856803       -23.3148
  86   2.0000      -0.847013       -23.0484
  87   2.0000      -0.845298       -23.0017
  88   2.0000      -0.821779       -22.3617
  89   2.0000      -0.798340       -21.7239
  90   2.0000      -0.797816       -21.7097
  91   2.0000      -0.738989       -20.1089
  92   2.0000      -0.728501       -19.8235
  93   2.0000      -0.727817       -19.8049
  94   2.0000      -0.721042       -19.6205
  95   2.0000      -0.719531       -19.5794
  96   2.0000      -0.711946       -19.3730
  97   2.0000      -0.710341       -19.3294
  98   2.0000      -0.698077       -18.9957
  99   2.0000      -0.691746       -18.8234
 100   2.0000      -0.683157       -18.5897
 101   2.0000      -0.680317       -18.5124
 102   2.0000      -0.677982       -18.4488
 103   2.0000      -0.674208       -18.3461
 104   2.0000      -0.668975       -18.2037
 105   2.0000      -0.667362       -18.1599
 106   2.0000      -0.663230       -18.0474
 107   2.0000      -0.658167       -17.9096
 108   2.0000      -0.656352       -17.8603
 109   2.0000      -0.653516       -17.7831
 110   2.0000      -0.652279       -17.7494
 111   2.0000      -0.651386       -17.7251
 112   2.0000      -0.649002       -17.6603
 113   2.0000      -0.646583       -17.5944
 114   2.0000      -0.634499       -17.2656
 115   2.0000      -0.623016       -16.9531
 116   2.0000      -0.616637       -16.7796
 117   2.0000      -0.614276       -16.7153
 118   2.0000      -0.610401       -16.6099
 119   2.0000      -0.608508       -16.5583
 120   2.0000      -0.608051       -16.5459
 121   2.0000      -0.607337       -16.5265
 122   2.0000      -0.603431       -16.4202
 123   2.0000      -0.594365       -16.1735
 124   2.0000      -0.585376       -15.9289
 125   2.0000      -0.583225       -15.8704
 126   2.0000      -0.578429       -15.7399
 127   2.0000      -0.577625       -15.7180
 128   2.0000      -0.569959       -15.5094
 129   2.0000      -0.562742       -15.3130
 130   2.0000      -0.553641       -15.0654
 131   2.0000      -0.541819       -14.7437
 132   2.0000      -0.539471       -14.6797
 133   2.0000      -0.535001       -14.5581
 134   2.0000      -0.534931       -14.5562
 135   2.0000      -0.531292       -14.4572
 136   2.0000      -0.524137       -14.2625
 137   2.0000      -0.523275       -14.2390
 138   2.0000      -0.516842       -14.0640
 139   2.0000      -0.514557       -14.0018
 140   2.0000      -0.509104       -13.8534
 141   2.0000      -0.508276       -13.8309
 142   2.0000      -0.503451       -13.6996
 143   2.0000      -0.503168       -13.6919
 144   2.0000      -0.498504       -13.5650
 145   2.0000      -0.497171       -13.5287
 146   2.0000      -0.496799       -13.5186
 147   2.0000      -0.494022       -13.4430
 148   2.0000      -0.491081       -13.3630
 149   2.0000      -0.468514       -12.7489
 150   2.0000      -0.459882       -12.5140
 151   2.0000      -0.450762       -12.2659
 152   2.0000      -0.447706       -12.1827
 153   2.0000      -0.445629       -12.1262
 154   2.0000      -0.444978       -12.1085
 155   2.0000      -0.439730       -11.9657
 156   2.0000      -0.434836       -11.8325
 157   2.0000      -0.431839       -11.7509
 158   2.0000      -0.389767       -10.6061
 159   2.0000      -0.381249       -10.3743
 160   2.0000      -0.379074       -10.3151
 161   2.0000      -0.373513       -10.1638
 162   2.0000      -0.360125        -9.7995
 163   2.0000      -0.358147        -9.7457
 164   2.0000      -0.352793        -9.6000
 165   2.0000      -0.352588        -9.5944
 166   2.0000      -0.337352        -9.1798
 167   2.0000      -0.331934        -9.0324
 168   2.0000      -0.328847        -8.9484
 169   2.0000      -0.300228        -8.1696
 170   2.0000      -0.294276        -8.0077
 171   2.0000      -0.289639        -7.8815
 172   2.0000      -0.287354        -7.8193
 173   2.0000      -0.254537        -6.9263
 174   2.0000      -0.247723        -6.7409
 175   2.0000      -0.187728        -5.1083
 176   2.0000      -0.177508        -4.8302
 177   2.0000      -0.065589        -1.7848
 178   2.0000      -0.054320        -1.4781
 179   0.0000       0.031284         0.8513
 180   0.0000       0.070672         1.9231
 181   0.0000       0.093085         2.5330
 182   0.0000       0.096310         2.6207
 183   0.0000       0.133792         3.6407

MULLIKEN ATOMIC CHARGES
-----------------------
   0 C :    0.206538
   1 N :   -0.442362
   2 C :   -0.065429
   3 N :   -0.338304
   4 C :   -0.077265
   5 N :   -0.562296
   6 C :   -0.058971
   7 N :   -0.338277
   8 C :    0.204855
   9 N :   -0.563071
  10 C :    0.114891
  11 N :   -0.437244
  12 C :   -0.067798
  13 N :   -0.439462
  14 C :    0.234242
  15 N :   -0.440690
  16 C :    0.235934
  17 C :   -0.064917
  18 C :   -0.193303
  19 C :    0.225373
  20 C :    0.208182
  21 C :   -0.075410
  22 C :   -0.085735
  23 C :   -0.049200
  24 C :    0.206511
  25 C :    0.113699
  26 C :   -0.073194
  27 C :    0.223226
  28 C :   -0.052022
  29 C :   -0.185579
  30 C :    0.235644
  31 C :    0.211640
  32 C :   -0.064711
  33 C :   -0.080693
  34 C :   -0.049794
  35 C :    0.204610
  36 C :    0.113974
  37 C :   -0.066490
  38 C :    0.237226
  39 C :   -0.061624
  40 C :   -0.189025
  41 C :    0.220306
  42 C :    0.203303
  43 C :   -0.073895
  44 C :   -0.088904
  45 C :   -0.052772
  46 C :    0.203179
  47 C :    0.115615
  48 C :   -0.074884
  49 C :    0.225845
  50 C :   -0.052897
  51 C :   -0.190360
  52 H :    0.054508
  53 H :   -0.014122
  54 H :    0.044708
  55 H :    0.052648
  56 H :    0.059165
  57 H :    0.056656
  58 H :    0.056241
  59 H :   -0.013493
  60 H :    0.046680
  61 H :    0.172754
  62 H :    0.172918
  63 H :    0.057080
  64 H :   -0.019843
  65 H :    0.046432
  66 H :    0.057802
  67 H :    0.063210
  68 H :    0.058269
  69 H :    0.059106
  70 H :   -0.024526
  71 H :    0.048370
  72 H :    0.056633
  73 H :   -0.013997
  74 H :    0.046938
  75 H :    0.055648
  76 H :    0.062220
  77 H :    0.058302
  78 H :    0.057479
  79 H :   -0.013758
  80 H :    0.047194
  81 H :    0.053609
  82 H :   -0.023953
  83 H :    0.042895
  84 H :    0.053035
  85 H :    0.058937
  86 H :    0.056250
  87 H :    0.056690
  88 H :   -0.022020
  89 H :    0.045120
Sum of atomic charges:   -0.0000000

LOEWDIN ATOMIC CHARGES
----------------------
   0 C :   -0.004322
   1 N :    0.137028
   2 C :   -0.100623
   3 N :    0.177904
   4 C :    0.033378
   5 N :   -0.137670
   6 C :   -0.022907
   7 N :    0.177201
   8 C :   -0.005971
   9 N :   -0.138874
  10 C :    0.028962
  11 N :    0.145225
  12 C :   -0.101712
  13 N :    0.142406
  14 C :   -0.044558
  15 N :    0.138528
  16 C :   -0.045972
  17 C :   -0.026372
  18 C :   -0.108200
  19 C :   -0.087637
  20 C :    0.000906
  21 C :   -0.104820
  22 C :    0.044080
  23 C :   -0.020522
  24 C :   -0.000454
  25 C :    0.030557
  26 C :   -0.104080
  27 C :   -0.094610
  28 C :   -0.020743
  29 C :   -0.106872
  30 C :   -0.045700
  31 C :    0.002137
  32 C :   -0.098463
  33 C :    0.041648
  34 C :   -0.019476
  35 C :   -0.003902
  36 C :    0.029817
  37 C :   -0.100552
  38 C :   -0.041319
  39 C :   -0.025247
  40 C :   -0.108850
  41 C :   -0.094449
  42 C :   -0.005438
  43 C :   -0.105104
  44 C :    0.034121
  45 C :   -0.022574
  46 C :   -0.005538
  47 C :    0.029256
  48 C :   -0.105128
  49 C :   -0.089349
  50 C :   -0.023044
  51 C :   -0.109003
  52 H :    0.029499
  53 H :    0.004287
  54 H :    0.043570
  55 H :    0.029282
  56 H :    0.026626
  57 H :    0.030318
  58 H :    0.031206
  59 H :    0.004343
  60 H :    0.043941
  61 H :    0.060540
  62 H :    0.060511
  63 H :    0.031276
  64 H :   -0.000497
  65 H :    0.045150
  66 H :    0.030652
  67 H :    0.028718
  68 H :    0.032097
  69 H :    0.031496
  70 H :   -0.002191
  71 H :    0.045538
  72 H :    0.030856
  73 H :    0.004239
  74 H :    0.045059
  75 H :    0.030116
  76 H :    0.028222
  77 H :    0.031626
  78 H :    0.031275
  79 H :    0.004415
  80 H :    0.044544
  81 H :    0.028983
  82 H :   -0.002086
  83 H :    0.043420
  84 H :    0.029069
  85 H :    0.026502
  86 H :    0.030430
  87 H :    0.031149
  88 H :   -0.001203
  89 H :    0.043928

  Mayer bond orders larger than 0.100000
B(  0-C ,  1-N ) :   1.1165 B(  0-C , 17-C ) :   1.6396 B(  0-C , 52-H ) :   0.9691
B(  1-N ,  8-C ) :   1.1121 B(  1-N , 10-C ) :   0.9624 B(  2-C , 12-C ) :   1.5360
B(  2-C , 16-C ) :   1.3229 B(  2-C , 53-H ) :   0.9778 B(  3-N , 14-C ) :   1.2028
B(  3-N , 16-C ) :   1.1950 B(  3-N , 61-H ) :   0.8985 B(  4-C ,  6-C ) :   1.2635
B(  4-C , 17-C ) :   1.2615 B(  4-C , 18-C ) :   1.2755 B(  5-N , 19-C ) :   1.4198
B(  5-N , 27-C ) :   1.4052 B(  6-C ,  8-C ) :   1.6402 B(  6-C , 54-H ) :   0.9706
B(  7-N , 30-C ) :   1.1921 B(  7-N , 38-C ) :   1.2017 B(  7-N , 62-H ) :   0.8983
B(  8-C , 55-H ) :   0.9703 B(  9-N , 41-C ) :   1.4072 B(  9-N , 49-C ) :   1.4170
B( 10-C , 56-H ) :   0.9763 B( 10-C , 57-H ) :   0.9824 B( 10-C , 58-H ) :   0.9830
B( 11-N , 20-C ) :   1.1253 B( 11-N , 24-C ) :   1.1241 B( 11-N , 25-C ) :   0.9577
B( 12-C , 14-C ) :   1.3249 B( 12-C , 59-H ) :   0.9772 B( 13-N , 31-C ) :   1.1254
B( 13-N , 35-C ) :   1.1177 B( 13-N , 36-C ) :   0.9593 B( 14-C , 18-C ) :   1.1949
B( 15-N , 42-C ) :   1.1157 B( 15-N , 46-C ) :   1.1144 B( 15-N , 47-C ) :   0.9623
B( 16-C , 51-C ) :   1.2011 B( 17-C , 60-H ) :   0.9710 B( 18-C , 19-C ) :   1.2096
B( 19-C , 21-C ) :   1.2141 B( 20-C , 28-C ) :   1.6220 B( 20-C , 63-H ) :   0.9702
B( 21-C , 26-C ) :   1.6399 B( 21-C , 64-H ) :   0.9736 B( 22-C , 23-C ) :   1.2838
B( 22-C , 28-C ) :   1.2757 B( 22-C , 29-C ) :   1.2279 B( 23-C , 24-C ) :   1.6174
B( 23-C , 65-H ) :   0.9709 B( 24-C , 66-H ) :   0.9691 B( 25-C , 67-H ) :   0.9762
B( 25-C , 68-H ) :   0.9829 B( 25-C , 69-H ) :   0.9821 B( 26-C , 27-C ) :   1.2114
B( 26-C , 70-H ) :   0.9731 B( 27-C , 29-C ) :   1.2272 B( 28-C , 71-H ) :   0.9714
B( 29-C , 30-C ) :   1.2147 B( 30-C , 32-C ) :   1.3095 B( 31-C , 39-C ) :   1.6295
B( 31-C , 72-H ) :   0.9696 B( 32-C , 37-C ) :   1.5488 B( 32-C , 73-H ) :   0.9778
B( 33-C , 34-C ) :   1.2762 B( 33-C , 39-C ) :   1.2687 B( 33-C , 40-C ) :   1.2473
B( 34-C , 35-C ) :   1.6265 B( 34-C , 74-H ) :   0.9704 B( 35-C , 75-H ) :   0.9696
B( 36-C , 76-H ) :   0.9763 B( 36-C , 77-H ) :   0.9821 B( 36-C , 78-H ) :   0.9831
B( 37-C , 38-C ) :   1.3110 B( 37-C , 79-H ) :   0.9778 B( 38-C , 40-C ) :   1.2102
B( 39-C , 80-H ) :   0.9715 B( 40-C , 41-C ) :   1.2178 B( 41-C , 43-C ) :   1.2153
B( 42-C , 50-C ) :   1.6337 B( 42-C , 81-H ) :   0.9696 B( 43-C , 48-C ) :   1.6360
B( 43-C , 82-H ) :   0.9736 B( 44-C , 45-C ) :   1.2705 B( 44-C , 50-C ) :   1.2668
B( 44-C , 51-C ) :   1.2561 B( 45-C , 46-C ) :   1.6326 B( 45-C , 83-H ) :   0.9712
B( 46-C , 84-H ) :   0.9703 B( 47-C , 85-H ) :   0.9761 B( 47-C , 86-H ) :   0.9828
B( 47-C , 87-H ) :   0.9826 B( 48-C , 49-C ) :   1.2151 B( 48-C , 88-H ) :   0.9738
B( 49-C , 51-C ) :   1.2170 B( 50-C , 89-H ) :   0.9713

MP2 TOTAL ENERGY:    -2130.914610041 Eh
FINAL SINGLE POINT ENERGY     -2130.914610041196

DIPOLE MOMENT
-------------
                                X             Y             Z
Electronic contribution:     -0.28794      -0.87472      -0.05941
Nuclear contribution   :      0.02590       0.20630       0.07338
                        -----------------------------------------
Total Dipole Moment    :     -0.26204      -0.66842       0.01396
                        -----------------------------------------
Magnitude (a.u.)       :      0.71809
Magnitude (Debye)      :      1.82523

Rotational constants in cm-1:     0.001500     0.001473     0.000762
Rotational constants in MHz :    44.953949    44.161486    22.848576

                             ****ORCA TERMINATED NORMALLY****
TOTAL RUN TIME: 0 days 1 hours 4 minutes 4 seconds 215 msec
