                         Program Version 5.0.4 -  RELEASE  -
|  1> ! PAL2
|  2> ! mp2 cc-pvdz TightSCF  NoKeepInts
|  3>
|  4> %scf
|  5>   MaxCore 2000
|  6> end
|  7> %mp2
|  8>   MaxCore 2000
|  9> end
| 10> * xyz 0 1
| 11>    C       -3.05600         6.48400        -0.15400
| 12>    C        1.47400         4.04100         0.05700
| 13>    C       -2.80200         4.09300         0.04900
| 14>    C       -4.17600         4.02200         0.32400
| 15>    C       -4.93900         5.17200         0.34800
| 16>    C       -5.23000         7.59100         0.11000
| 17>    C        0.13200         4.30700         0.06100
| 18>    C       -0.56900         3.05600         0.04700
| 19>    C        1.64900         2.61800         0.02300
| 20>    C       -2.25300         5.36100        -0.19500
| 21>    N       -4.37800         6.38100         0.11500
| 22>    N        0.38800         2.06700         0.02500
| 23>    N       -2.01000         0.39500        -0.07500
| 24>    N       -0.38800        -2.07400        -0.02700
| 25>    N        2.01000        -0.40100         0.06500
| 26>    C       -1.96000         2.86100         0.02400
| 27>    C       -2.62300         1.61500        -0.01800
| 28>    C       -5.57300        -4.32900         1.06600
| 29>    C       -4.07300         1.47100         0.05600
| 30>    C       -4.10600        -2.75600        -0.02600
| 31>    C       -4.99500        -2.75700        -1.11100
| 32>    C       -6.13200        -3.54200        -1.07600
| 33>    C       -7.65100        -5.11300         0.04000
| 34>    C       -4.32400         0.14100         0.03700
| 35>    C       -3.02500        -0.52000        -0.04800
| 36>    C       -4.42200        -3.56600         1.07500
| 37>    N       -6.40700        -4.31300         0.00100
| 38>    C       -2.86700        -1.92200        -0.04000
| 39>    C       -1.65000        -2.62400        -0.02700
| 40>    C        3.56800        -6.14200        -1.04000
| 41>    C       -1.47600        -4.04900        -0.03400
| 42>    C        2.80300        -4.09900        -0.00800
| 43>    C        3.65700        -4.38400         1.06900
| 44>    C        4.42700        -5.53000         1.05900
| 45>    C        5.24500        -7.58800         0.01400
| 46>    C       -0.13400        -4.31500        -0.02200
| 47>    C        0.56800        -3.06400        -0.02700
| 48>    C        2.77500        -5.01200        -1.07400
| 49>    N        4.37600        -6.39100         0.01700
| 50>    C        1.95900        -2.86900        -0.00900
| 51>    C        2.62100        -1.62200         0.00900
| 52>    C        5.54300         4.33900        -1.13000
| 53>    C        4.07000        -1.47900        -0.09400
| 54>    C        4.10400         2.75100        -0.02100
| 55>    C        5.02700         2.72900         1.03600
| 56>    C        6.16600         3.50900         0.97800
| 57>    C        7.61900         5.15300        -0.11500
| 58>    C        4.32100        -0.14800        -0.09200
| 59>    C        3.02500         0.51400         0.01500
| 60>    C        4.38700         3.58200        -1.11500
| 61>    C        2.86600         1.91600         0.01300
| 62>    N        6.41300         4.29600        -0.09500
| 63>    H       -2.67400         7.48300        -0.32300
| 64>    H        2.27400         4.76600         0.08100
| 65>    H       -4.66000         3.07100         0.51100
| 66>    H       -6.00300         5.16600         0.54700
| 67>    H       -5.66400         7.71700        -0.88400
| 68>    H       -6.02000         7.46600         0.85100
| 69>    H       -4.61400         8.45400         0.36200
| 70>    H       -0.33200         5.28200         0.06900
| 71>    H       -1.19500         5.48400        -0.39900
| 72>    H        0.18200         1.07200         0.00500
| 73>    H       -0.18300        -1.08000        -0.02100
| 74>    H       -5.86400        -4.96200         1.89500
| 75>    H       -4.79400         2.27200         0.13900
| 76>    H       -4.80000        -2.16000        -1.99400
| 77>    H       -6.84100        -3.58200        -1.89300
| 78>    H       -8.42800        -4.53600         0.54600
| 79>    H       -7.95600        -5.33700        -0.98100
| 80>    H       -7.45600        -6.03700         0.58400
| 81>    H       -5.28700        -0.34400         0.10000
| 82>    H       -3.78000        -3.60100         1.94700
| 83>    H        3.58700        -6.86800        -1.84300
| 84>    H       -2.27600        -4.77400        -0.05000
| 85>    H        3.71400        -3.72400         1.92600
| 86>    H        5.09200        -5.79500         1.87100
| 87>    H        6.20500        -7.32900        -0.43900
| 88>    H        5.39300        -7.91700         1.04200
| 89>    H        4.75900        -8.37300        -0.56400
| 90>    H        0.32900        -5.29000        -0.00800
| 91>    H        2.14600        -4.84200        -1.94000
| 92>    H        5.80800         4.98600        -1.95600
| 93>    H        4.78800        -2.28100        -0.18500
| 94>    H        4.86000         2.11400         1.91200
| 95>    H        6.90100         3.53100         1.77200
| 96>    H        7.38300         6.10900         0.35600
| 97>    H        8.41400         4.65200         0.43500
| 98>    H        7.92100         5.31000        -1.15000
| 99>    H        5.28300         0.33600        -0.17900
|100>    H        3.72000         3.63200        -1.96700
|101> *
|102>
|103>                          ****END OF INPUT****

CARTESIAN COORDINATES (ANGSTROEM)
---------------------------------
  C     -3.056000    6.484000   -0.154000
  C      1.474000    4.041000    0.057000
  C     -2.802000    4.093000    0.049000
  C     -4.176000    4.022000    0.324000
  C     -4.939000    5.172000    0.348000
  C     -5.230000    7.591000    0.110000
  C      0.132000    4.307000    0.061000
  C     -0.569000    3.056000    0.047000
  C      1.649000    2.618000    0.023000
  C     -2.253000    5.361000   -0.195000
  N     -4.378000    6.381000    0.115000
  N      0.388000    2.067000    0.025000
  N     -2.010000    0.395000   -0.075000
  N     -0.388000   -2.074000   -0.027000
  N      2.010000   -0.401000    0.065000
  C     -1.960000    2.861000    0.024000
  C     -2.623000    1.615000   -0.018000
  C     -5.573000   -4.329000    1.066000
  C     -4.073000    1.471000    0.056000
  C     -4.106000   -2.756000   -0.026000
  C     -4.995000   -2.757000   -1.111000
  C     -6.132000   -3.542000   -1.076000
  C     -7.651000   -5.113000    0.040000
  C     -4.324000    0.141000    0.037000
  C     -3.025000   -0.520000   -0.048000
  C     -4.422000   -3.566000    1.075000
  N     -6.407000   -4.313000    0.001000
  C     -2.867000   -1.922000   -0.040000
  C     -1.650000   -2.624000   -0.027000
  C      3.568000   -6.142000   -1.040000
  C     -1.476000   -4.049000   -0.034000
  C      2.803000   -4.099000   -0.008000
  C      3.657000   -4.384000    1.069000
  C      4.427000   -5.530000    1.059000
  C      5.245000   -7.588000    0.014000
  C     -0.134000   -4.315000   -0.022000
  C      0.568000   -3.064000   -0.027000
  C      2.775000   -5.012000   -1.074000
  N      4.376000   -6.391000    0.017000
  C      1.959000   -2.869000   -0.009000
  C      2.621000   -1.622000    0.009000
  C      5.543000    4.339000   -1.130000
  C      4.070000   -1.479000   -0.094000
  C      4.104000    2.751000   -0.021000
  C      5.027000    2.729000    1.036000
  C      6.166000    3.509000    0.978000
  C      7.619000    5.153000   -0.115000
  C      4.321000   -0.148000   -0.092000
  C      3.025000    0.514000    0.015000
  C      4.387000    3.582000   -1.115000
  C      2.866000    1.916000    0.013000
  N      6.413000    4.296000   -0.095000
  H     -2.674000    7.483000   -0.323000
  H      2.274000    4.766000    0.081000
  H     -4.660000    3.071000    0.511000
  H     -6.003000    5.166000    0.547000
  H     -5.664000    7.717000   -0.884000
  H     -6.020000    7.466000    0.851000
  H     -4.614000    8.454000    0.362000
  H     -0.332000    5.282000    0.069000
  H     -1.195000    5.484000   -0.399000
  H      0.182000    1.072000    0.005000
  H     -0.183000   -1.080000   -0.021000
  H     -5.864000   -4.962000    1.895000
  H     -4.794000    2.272000    0.139000
  H     -4.800000   -2.160000   -1.994000
  H     -6.841000   -3.582000   -1.893000
  H     -8.428000   -4.536000    0.546000
  H     -7.956000   -5.337000   -0.981000
  H     -7.456000   -6.037000    0.584000
  H     -5.287000   -0.344000    0.100000
  H     -3.780000   -3.601000    1.947000
  H      3.587000   -6.868000   -1.843000
  H     -2.276000   -4.774000   -0.050000
  H      3.714000   -3.724000    1.926000
  H      5.092000   -5.795000    1.871000
  H      6.205000   -7.329000   -0.439000
  H      5.393000   -7.917000    1.042000
  H      4.759000   -8.373000   -0.564000
  H      0.329000   -5.290000   -0.008000
  H      2.146000   -4.842000   -1.940000
  H      5.808000    4.986000   -1.956000
  H      4.788000   -2.281000   -0.185000
  H      4.860000    2.114000    1.912000
  H      6.901000    3.531000    1.772000
  H      7.383000    6.109000    0.356000
  H      8.414000    4.652000    0.435000
  H      7.921000    5.310000   -1.150000
  H      5.283000    0.336000   -0.179000
  H      3.720000    3.632000   -1.967000

 Total Charge           Charge          ....    0
 Multiplicity           Mult            ....    1
 Number of Electrons    NEL             ....  358
 Basis Dimension        Dim             ....  918

ORBITAL ENERGIES
----------------

  NO   OCC          E(Eh)            E(eV)
   0   2.0000     -15.679768      -426.6682
   1   2.0000     -15.632962      -425.3945
   2   2.0000     -15.632813      -425.3905
   3   2.0000     -15.588231      -424.1773
   4   2.0000     -15.524856      -422.4528
   5   2.0000     -15.515634      -422.2019
   6   2.0000     -15.454106      -420.5276
   7   2.0000     -15.439428      -420.1282
   8   2.0000     -11.329265      -308.2850
   9   2.0000     -11.328493      -308.2640
  10   2.0000     -11.327920      -308.2484
  11   2.0000     -11.299067      -307.4633
  12   2.0000     -11.298603      -307.4506
  13   2.0000     -11.292177      -307.2758
  14   2.0000     -11.292043      -307.2721
  15   2.0000     -11.287489      -307.1482
  16   2.0000     -11.285538      -307.0951
  17   2.0000     -11.282015      -306.9992
  18   2.0000     -11.270010      -306.6726
  19   2.0000     -11.263351      -306.4914
  20   2.0000     -11.262348      -306.4641
  21   2.0000     -11.252045      -306.1837
  22   2.0000     -11.248578      -306.0894
  23   2.0000     -11.237683      -305.7929
  24   2.0000     -11.236625      -305.7641
  25   2.0000     -11.230577      -305.5995
  26   2.0000     -11.230422      -305.5953
  27   2.0000     -11.230262      -305.5910
  28   2.0000     -11.229494      -305.5701
  29   2.0000     -11.210627      -305.0567
  30   2.0000     -11.209337      -305.0216
  31   2.0000     -11.194264      -304.6114
  32   2.0000     -11.191572      -304.5381
  33   2.0000     -11.191489      -304.5359
  34   2.0000     -11.188896      -304.4653
  35   2.0000     -11.188387      -304.4515
  36   2.0000     -11.187476      -304.4267
  37   2.0000     -11.176846      -304.1375
  38   2.0000     -11.174418      -304.0714
  39   2.0000     -11.171427      -303.9900
  40   2.0000     -11.171413      -303.9896
  41   2.0000     -11.171059      -303.9800
  42   2.0000     -11.167835      -303.8922
  43   2.0000     -11.162306      -303.7418
  44   2.0000     -11.160360      -303.6888
  45   2.0000     -11.157230      -303.6037
  46   2.0000     -11.156245      -303.5769
  47   2.0000     -11.152196      -303.4667
  48   2.0000     -11.147279      -303.3329
  49   2.0000     -11.135413      -303.0100
  50   2.0000     -11.129090      -302.8379
  51   2.0000     -11.116937      -302.5072
  52   2.0000      -1.360363       -37.0173
  53   2.0000      -1.320585       -35.9349
  54   2.0000      -1.320223       -35.9251
  55   2.0000      -1.280617       -34.8474
  56   2.0000      -1.225896       -33.3583
  57   2.0000      -1.210419       -32.9372
  58   2.0000      -1.173816       -31.9412
  59   2.0000      -1.150462       -31.3057
  60   2.0000      -1.143658       -31.1205
  61   2.0000      -1.110410       -30.2158
  62   2.0000      -1.108785       -30.1716
  63   2.0000      -1.082056       -29.4442
  64   2.0000      -1.077515       -29.3207
  65   2.0000      -1.045186       -28.4410
  66   2.0000      -1.044454       -28.4210
  67   2.0000      -1.041120       -28.3303
  68   2.0000      -1.014948       -27.6181
  69   2.0000      -1.013636       -27.5824
  70   2.0000      -1.009059       -27.4579
  71   2.0000      -0.993282       -27.0286
  72   2.0000      -0.985717       -26.8227
  73   2.0000      -0.981643       -26.7119
  74   2.0000      -0.973201       -26.4821
  75   2.0000      -0.962415       -26.1886
  76   2.0000      -0.954918       -25.9846
  77   2.0000      -0.945992       -25.7417
  78   2.0000      -0.938180       -25.5292
  79   2.0000      -0.917050       -24.9542
  80   2.0000      -0.910510       -24.7762
  81   2.0000      -0.897107       -24.4115
  82   2.0000      -0.876781       -23.8584
  83   2.0000      -0.871656       -23.7190
  84   2.0000      -0.871047       -23.7024
  85   2.0000      -0.860219       -23.4078
  86   2.0000      -0.844229       -22.9726
  87   2.0000      -0.835996       -22.7486
  88   2.0000      -0.828044       -22.5322
  89   2.0000      -0.796607       -21.6768
  90   2.0000      -0.789209       -21.4755
  91   2.0000      -0.765917       -20.8417
  92   2.0000      -0.752904       -20.4875
  93   2.0000      -0.733546       -19.9608
  94   2.0000      -0.727150       -19.7868
  95   2.0000      -0.724357       -19.7108
  96   2.0000      -0.719441       -19.5770
  97   2.0000      -0.717171       -19.5152
  98   2.0000      -0.713431       -19.4135
  99   2.0000      -0.698368       -19.0036
 100   2.0000      -0.697975       -18.9929
 101   2.0000      -0.693726       -18.8772
 102   2.0000      -0.685277       -18.6473
 103   2.0000      -0.684331       -18.6216
 104   2.0000      -0.678669       -18.4675
 105   2.0000      -0.674572       -18.3560
 106   2.0000      -0.672674       -18.3044
 107   2.0000      -0.660642       -17.9770
 108   2.0000      -0.658119       -17.9083
 109   2.0000      -0.652822       -17.7642
 110   2.0000      -0.652025       -17.7425
 111   2.0000      -0.646145       -17.5825
 112   2.0000      -0.645505       -17.5651
 113   2.0000      -0.637573       -17.3493
 114   2.0000      -0.636140       -17.3103
 115   2.0000      -0.628505       -17.1025
 116   2.0000      -0.623141       -16.9565
 117   2.0000      -0.620955       -16.8970
 118   2.0000      -0.612945       -16.6791
 119   2.0000      -0.612332       -16.6624
 120   2.0000      -0.611505       -16.6399
 121   2.0000      -0.611254       -16.6331
 122   2.0000      -0.601469       -16.3668
 123   2.0000      -0.588356       -16.0100
 124   2.0000      -0.581450       -15.8221
 125   2.0000      -0.580845       -15.8056
 126   2.0000      -0.580062       -15.7843
 127   2.0000      -0.571230       -15.5440
 128   2.0000      -0.567639       -15.4462
 129   2.0000      -0.559998       -15.2383
 130   2.0000      -0.554323       -15.0839
 131   2.0000      -0.547918       -14.9096
 132   2.0000      -0.542678       -14.7670
 133   2.0000      -0.540720       -14.7137
 134   2.0000      -0.538245       -14.6464
 135   2.0000      -0.536472       -14.5981
 136   2.0000      -0.531340       -14.4585
 137   2.0000      -0.518947       -14.1213
 138   2.0000      -0.516466       -14.0538
 139   2.0000      -0.514913       -14.0115
 140   2.0000      -0.512412       -13.9435
 141   2.0000      -0.510208       -13.8835
 142   2.0000      -0.507977       -13.8228
 143   2.0000      -0.505146       -13.7457
 144   2.0000      -0.502610       -13.6767
 145   2.0000      -0.495825       -13.4921
 146   2.0000      -0.488654       -13.2970
 147   2.0000      -0.481440       -13.1006
 148   2.0000      -0.477583       -12.9957
 149   2.0000      -0.467759       -12.7284
 150   2.0000      -0.466402       -12.6914
 151   2.0000      -0.456879       -12.4323
 152   2.0000      -0.451841       -12.2952
 153   2.0000      -0.444788       -12.1033
 154   2.0000      -0.438399       -11.9295
 155   2.0000      -0.427486       -11.6325
 156   2.0000      -0.409762       -11.1502
 157   2.0000      -0.399466       -10.8700
 158   2.0000      -0.390430       -10.6241
 159   2.0000      -0.387650       -10.5485
 160   2.0000      -0.378776       -10.3070
 161   2.0000      -0.375098       -10.2069
 162   2.0000      -0.367310        -9.9950
 163   2.0000      -0.356750        -9.7077
 164   2.0000      -0.355746        -9.6804
 165   2.0000      -0.342161        -9.3107
 166   2.0000      -0.337670        -9.1885
 167   2.0000      -0.324459        -8.8290
 168   2.0000      -0.321367        -8.7449
 169   2.0000      -0.305057        -8.3010
 170   2.0000      -0.299521        -8.1504
 171   2.0000      -0.285591        -7.7713
 172   2.0000      -0.278851        -7.5879
 173   2.0000      -0.263925        -7.1818
 174   2.0000      -0.241560        -6.5732
 175   2.0000      -0.189962        -5.1691
 176   2.0000      -0.181054        -4.9267
 177   2.0000      -0.079401        -2.1606
 178   2.0000      -0.059710        -1.6248
 179   0.0000       0.028341         0.7712
 180   0.0000       0.065331         1.7778
 181   0.0000       0.090197         2.4544
 182   0.0000       0.106269         2.8917
 183   0.0000       0.115433         3.1411

MULLIKEN ATOMIC CHARGES
-----------------------
   0 C :    0.218678
   1 N :   -0.455915
   2 C :   -0.072236
   3 N :   -0.341098
   4 C :   -0.067990
   5 N :   -0.568163
   6 C :   -0.103170
   7 N :   -0.340949
   8 C :    0.212336
   9 N :   -0.562121
  10 C :    0.119283
  11 N :   -0.438705
  12 C :   -0.057960
  13 N :   -0.429366
  14 C :    0.221049
  15 N :   -0.440677
  16 C :    0.231114
  17 C :   -0.118913
  18 C :   -0.181983
  19 C :    0.214981
  20 C :    0.213207
  21 C :   -0.057631
  22 C :   -0.091217
  23 C :   -0.039530
  24 C :    0.193084
  25 C :    0.114750
  26 C :   -0.090373
  27 C :    0.216440
  28 C :   -0.061902
  29 C :   -0.182120
  30 C :    0.246168
  31 C :    0.229868
  32 C :   -0.061858
  33 C :   -0.060096
  34 C :   -0.051663
  35 C :    0.229082
  36 C :    0.108206
  37 C :   -0.064251
  38 C :    0.230572
  39 C :   -0.057239
  40 C :   -0.181538
  41 C :    0.226485
  42 C :    0.197696
  43 C :   -0.072300
  44 C :   -0.088950
  45 C :   -0.061591
  46 C :    0.212410
  47 C :    0.115192
  48 C :   -0.066543
  49 C :    0.238912
  50 C :   -0.046103
  51 C :   -0.192690
  52 H :    0.035380
  53 H :   -0.018029
  54 H :    0.044851
  55 H :    0.034062
  56 H :    0.049410
  57 H :    0.047675
  58 H :    0.046740
  59 H :   -0.010842
  60 H :    0.043087
  61 H :    0.171225
  62 H :    0.175404
  63 H :    0.054821
  64 H :   -0.032188
  65 H :    0.046868
  66 H :    0.055212
  67 H :    0.062061
  68 H :    0.056973
  69 H :    0.056051
  70 H :   -0.030552
  71 H :    0.044303
  72 H :    0.071435
  73 H :   -0.007939
  74 H :    0.060496
  75 H :    0.070929
  76 H :    0.075044
  77 H :    0.068096
  78 H :    0.067448
  79 H :   -0.016841
  80 H :    0.061514
  81 H :    0.054793
  82 H :   -0.024714
  83 H :    0.042379
  84 H :    0.054697
  85 H :    0.061320
  86 H :    0.055833
  87 H :    0.057513
  88 H :   -0.014354
  89 H :    0.047171
Sum of atomic charges:    0.0000000

LOEWDIN ATOMIC CHARGES
----------------------
   0 C :   -0.017501
   1 N :    0.120966
   2 C :   -0.100625
   3 N :    0.182588
   4 C :   -0.011594
   5 N :   -0.134437
   6 C :   -0.018924
   7 N :    0.175038
   8 C :   -0.022616
   9 N :   -0.140569
  10 C :    0.023143
  11 N :    0.141246
  12 C :   -0.107079
  13 N :    0.166434
  14 C :   -0.017110
  15 N :    0.139526
  16 C :   -0.061086
  17 C :   -0.036415
  18 C :   -0.111361
  19 C :   -0.074735
  20 C :    0.004182
  21 C :   -0.104635
  22 C :    0.036254
  23 C :   -0.014622
  24 C :   -0.013369
  25 C :    0.029651
  26 C :   -0.108461
  27 C :   -0.116865
  28 C :   -0.027985
  29 C :   -0.100143
  30 C :   -0.029206
  31 C :    0.024095
  32 C :   -0.094748
  33 C :    0.082286
  34 C :   -0.015413
  35 C :    0.023746
  36 C :    0.035285
  37 C :   -0.093945
  38 C :   -0.053100
  39 C :   -0.017271
  40 C :   -0.108698
  41 C :   -0.090399
  42 C :   -0.009916
  43 C :   -0.099005
  44 C :    0.034810
  45 C :   -0.028068
  46 C :    0.002865
  47 C :    0.029676
  48 C :   -0.094381
  49 C :   -0.069260
  50 C :   -0.018418
  51 C :   -0.108236
  52 H :    0.022336
  53 H :    0.002498
  54 H :   -0.004039
  55 H :    0.022042
  56 H :    0.021827
  57 H :    0.026416
  58 H :    0.026723
  59 H :    0.005819
  60 H :    0.010781
  61 H :    0.060195
  62 H :    0.061841
  63 H :    0.030522
  64 H :   -0.001751
  65 H :    0.045802
  66 H :    0.029038
  67 H :    0.028036
  68 H :    0.031506
  69 H :    0.030145
  70 H :   -0.004963
  71 H :    0.043254
  72 H :    0.037752
  73 H :    0.007167
  74 H :    0.050695
  75 H :    0.037499
  76 H :    0.034871
  77 H :    0.036233
  78 H :    0.035938
  79 H :    0.002851
  80 H :    0.050862
  81 H :    0.029268
  82 H :   -0.002666
  83 H :    0.042691
  84 H :    0.030132
  85 H :    0.027610
  86 H :    0.030320
  87 H :    0.031545
  88 H :    0.002451
  89 H :    0.045156

  Mayer bond orders larger than 0.100000
B(  0-C ,  1-N ) :   1.1002 B(  0-C , 17-C ) :   1.7120 B(  0-C , 52-H ) :   0.9630
B(  1-N ,  8-C ) :   1.0898 B(  1-N , 10-C ) :   0.9772 B(  2-C , 12-C ) :   1.4910
B(  2-C , 16-C ) :   1.3705 B(  2-C , 53-H ) :   0.9725 B(  3-N , 14-C ) :   1.2221
B(  3-N , 16-C ) :   1.1806 B(  3-N , 61-H ) :   0.8986 B(  4-C ,  6-C ) :   1.2170
B(  4-C , 17-C ) :   1.2183 B(  4-C , 18-C ) :   1.4725 B(  5-N , 19-C ) :   1.4591
B(  5-N , 27-C ) :   1.3711 B(  6-C ,  8-C ) :   1.7238 B(  6-C , 54-H ) :   0.8760
B(  7-N , 30-C ) :   1.1960 B(  7-N , 38-C ) :   1.1889 B(  7-N , 62-H ) :   0.8968
B(  8-C , 55-H ) :   0.9623 B(  9-N , 41-C ) :   1.3951 B(  9-N , 49-C ) :   1.4243
B( 10-C , 56-H ) :   0.9776 B( 10-C , 57-H ) :   0.9823 B( 10-C , 58-H ) :   0.9841
B( 11-N , 20-C ) :   1.1303 B( 11-N , 24-C ) :   1.1058 B( 11-N , 25-C ) :   0.9607
B( 12-C , 14-C ) :   1.3572 B( 12-C , 59-H ) :   0.9372 B( 13-N , 31-C ) :   1.1611
B( 13-N , 35-C ) :   1.1612 B( 13-N , 36-C ) :   0.9412 B( 14-C , 18-C ) :   1.1198
B( 15-N , 42-C ) :   1.1085 B( 15-N , 46-C ) :   1.1257 B( 15-N , 47-C ) :   0.9607
B( 16-C , 51-C ) :   1.1684 B( 17-C , 60-H ) :   0.9034 B( 18-C , 19-C ) :   1.1180
B( 19-C , 21-C ) :   1.2541 B( 20-C , 28-C ) :   1.6298 B( 20-C , 63-H ) :   0.9703
B( 21-C , 26-C ) :   1.5781 B( 21-C , 64-H ) :   0.9111 B( 22-C , 23-C ) :   1.2883
B( 22-C , 28-C ) :   1.2627 B( 22-C , 29-C ) :   1.2280 B( 23-C , 24-C ) :   1.6215
B( 23-C , 65-H ) :   0.9703 B( 24-C , 66-H ) :   0.9696 B( 25-C , 67-H ) :   0.9761
B( 25-C , 68-H ) :   0.9828 B( 25-C , 69-H ) :   0.9824 B( 26-C , 27-C ) :   1.2634
B( 26-C , 70-H ) :   0.9673 B( 27-C , 29-C ) :   1.2045 B( 28-C , 71-H ) :   0.9720
B( 29-C , 30-C ) :   1.2467 B( 30-C , 32-C ) :   1.2792 B( 31-C , 39-C ) :   1.5874
B( 31-C , 72-H ) :   0.9681 B( 32-C , 37-C ) :   1.5793 B( 32-C , 73-H ) :   0.9787
B( 33-C , 34-C ) :   1.3066 B( 33-C , 39-C ) :   1.3048 B( 33-C , 40-C ) :   1.1761
B( 34-C , 35-C ) :   1.5854 B( 34-C , 74-H ) :   0.9696 B( 35-C , 75-H ) :   0.9681
B( 36-C , 76-H ) :   0.9768 B( 36-C , 77-H ) :   0.9816 B( 36-C , 78-H ) :   0.9823
B( 37-C , 38-C ) :   1.2856 B( 37-C , 79-H ) :   0.9764 B( 38-C , 40-C ) :   1.2336
B( 39-C , 80-H ) :   0.9705 B( 40-C , 41-C ) :   1.2509 B( 41-C , 43-C ) :   1.1834
B( 42-C , 50-C ) :   1.6317 B( 42-C , 81-H ) :   0.9696 B( 43-C , 48-C ) :   1.6697
B( 43-C , 82-H ) :   0.9721 B( 44-C , 45-C ) :   1.2644 B( 44-C , 50-C ) :   1.2737
B( 44-C , 51-C ) :   1.2583 B( 45-C , 46-C ) :   1.6333 B( 45-C , 83-H ) :   0.9718
B( 46-C , 84-H ) :   0.9699 B( 47-C , 85-H ) :   0.9762 B( 47-C , 86-H ) :   0.9829
B( 47-C , 87-H ) :   0.9824 B( 48-C , 49-C ) :   1.1868 B( 48-C , 88-H ) :   0.9748
B( 49-C , 51-C ) :   1.2461 B( 50-C , 89-H ) :   0.9708 B( 54-H , 64-H ) :   0.1024

MP2 TOTAL ENERGY:    -2130.785221745 Eh
FINAL SINGLE POINT ENERGY     -2130.785221744691

DIPOLE MOMENT
-------------
                                X             Y             Z
Electronic contribution:      2.95948      -4.22502      -0.09924
Nuclear contribution   :     -0.04417       0.15777       0.11443
                        -----------------------------------------
Total Dipole Moment    :      2.91531      -4.06725       0.01519
                        -----------------------------------------
Magnitude (a.u.)       :      5.00418
Magnitude (Debye)      :     12.71962

Rotational constants in cm-1:     0.001503     0.001478     0.000760
Rotational constants in MHz :    45.063893    44.296898    22.784273

                             ****ORCA TERMINATED NORMALLY****
TOTAL RUN TIME: 0 days 1 hours 9 minutes 49 seconds 309 msec
