                         Program Version 5.0.4 -  RELEASE  -
|  1> ! PAL2
|  2> ! mp2 cc-pvdz TightSCF  NoKeepInts
|  3>
|  4> %scf
|  5>   MaxCore 2000
|  6> end
|  7> %mp2
|  8>   MaxCore 2000
|  9> end
| 10> * xyz 0 1
| 11>    C       -3.93300         5.90400        -1.07600
| 12>    C        1.47400         4.04100         0.05700
| 13>    C       -2.80200         4.09300         0.04900
| 14>    C       -3.25900         4.62900         1.26300
| 15>    C       -4.03300         5.77300         1.26800
| 16>    C       -5.21900         7.59700         0.14700
| 17>    C        0.13200         4.30700         0.06100
| 18>    C       -0.56900         3.05600         0.04700
| 19>    C        1.64900         2.61800         0.02300
| 20>    C       -3.16100         4.76000        -1.13300
| 21>    N       -4.35700         6.39500         0.11000
| 22>    N        0.38800         2.06700         0.02500
| 23>    N       -2.01000         0.39500        -0.07500
| 24>    N       -0.38800        -2.07400        -0.02700
| 25>    N        2.01000        -0.40100         0.06500
| 26>    C       -1.96000         2.86100         0.02400
| 27>    C       -2.62300         1.61500        -0.01800
| 28>    C       -5.57300        -4.32900         1.06600
| 29>    C       -4.07300         1.47100         0.05600
| 30>    C       -4.10600        -2.75600        -0.02600
| 31>    C       -4.99500        -2.75700        -1.11100
| 32>    C       -6.13200        -3.54200        -1.07600
| 33>    C       -7.65100        -5.11300         0.04000
| 34>    C       -4.32400         0.14100         0.03700
| 35>    C       -3.02500        -0.52000        -0.04800
| 36>    C       -4.42200        -3.56600         1.07500
| 37>    N       -6.40700        -4.31300         0.00100
| 38>    C       -2.86700        -1.92200        -0.04000
| 39>    C       -1.65000        -2.62400        -0.02700
| 40>    C        3.56800        -6.14200        -1.04000
| 41>    C       -1.47600        -4.04900        -0.03400
| 42>    C        2.80300        -4.09900        -0.00800
| 43>    C        3.65700        -4.38400         1.06900
| 44>    C        4.42700        -5.53000         1.05900
| 45>    C        5.24500        -7.58800         0.01400
| 46>    C       -0.13400        -4.31500        -0.02200
| 47>    C        0.56800        -3.06400        -0.02700
| 48>    C        2.77500        -5.01200        -1.07400
| 49>    N        4.37600        -6.39100         0.01700
| 50>    C        1.95900        -2.86900        -0.00900
| 51>    C        2.62100        -1.62200         0.00900
| 52>    C        5.54300         4.33900        -1.13000
| 53>    C        4.07000        -1.47900        -0.09400
| 54>    C        4.10400         2.75100        -0.02100
| 55>    C        5.02700         2.72900         1.03600
| 56>    C        6.16600         3.50900         0.97800
| 57>    C        7.61900         5.15300        -0.11500
| 58>    C        4.32100        -0.14800        -0.09200
| 59>    C        3.02500         0.51400         0.01500
| 60>    C        4.38700         3.58200        -1.11500
| 61>    C        2.86600         1.91600         0.01300
| 62>    N        6.41300         4.29600        -0.09500
| 63>    H       -4.22300         6.45700        -1.96100
| 64>    H        2.27400         4.76600         0.08100
| 65>    H       -3.02300         4.15500         2.20700
| 66>    H       -4.41600         6.21800         2.17700
| 67>    H       -6.26500         7.28400         0.15000
| 68>    H       -4.99400         8.16300         1.05100
| 69>    H       -5.01200         8.20400        -0.73400
| 70>    H       -0.33200         5.28200         0.06900
| 71>    H       -2.82700         4.40300        -2.10000
| 72>    H        0.18200         1.07200         0.00500
| 73>    H       -0.18300        -1.08000        -0.02100
| 74>    H       -5.86400        -4.96200         1.89500
| 75>    H       -4.79400         2.27200         0.13900
| 76>    H       -4.80000        -2.16000        -1.99400
| 77>    H       -6.84100        -3.58200        -1.89300
| 78>    H       -8.42800        -4.53600         0.54600
| 79>    H       -7.95600        -5.33700        -0.98100
| 80>    H       -7.45600        -6.03700         0.58400
| 81>    H       -5.28700        -0.34400         0.10000
| 82>    H       -3.78000        -3.60100         1.94700
| 83>    H        3.58700        -6.86800        -1.84300
| 84>    H       -2.27600        -4.77400        -0.05000
| 85>    H        3.71400        -3.72400         1.92600
| 86>    H        5.09200        -5.79500         1.87100
| 87>    H        6.20500        -7.32900        -0.43900
| 88>    H        5.39300        -7.91700         1.04200
| 89>    H        4.75900        -8.37300        -0.56400
| 90>    H        0.32900        -5.29000        -0.00800
| 91>    H        2.14600        -4.84200        -1.94000
| 92>    H        5.80800         4.98600        -1.95600
| 93>    H        4.78800        -2.28100        -0.18500
| 94>    H        4.86000         2.11400         1.91200
| 95>    H        6.90100         3.53100         1.77200
| 96>    H        7.38300         6.10900         0.35600
| 97>    H        8.41400         4.65200         0.43500
| 98>    H        7.92100         5.31000        -1.15000
| 99>    H        5.28300         0.33600        -0.17900
|100>    H        3.72000         3.63200        -1.96700
|101> *
|102>
|103>                          ****END OF INPUT****

CARTESIAN COORDINATES (ANGSTROEM)
---------------------------------
  C     -3.933000    5.904000   -1.076000
  C      1.474000    4.041000    0.057000
  C     -2.802000    4.093000    0.049000
  C     -3.259000    4.629000    1.263000
  C     -4.033000    5.773000    1.268000
  C     -5.219000    7.597000    0.147000
  C      0.132000    4.307000    0.061000
  C     -0.569000    3.056000    0.047000
  C      1.649000    2.618000    0.023000
  C     -3.161000    4.760000   -1.133000
  N     -4.357000    6.395000    0.110000
  N      0.388000    2.067000    0.025000
  N     -2.010000    0.395000   -0.075000
  N     -0.388000   -2.074000   -0.027000
  N      2.010000   -0.401000    0.065000
  C     -1.960000    2.861000    0.024000
  C     -2.623000    1.615000   -0.018000
  C     -5.573000   -4.329000    1.066000
  C     -4.073000    1.471000    0.056000
  C     -4.106000   -2.756000   -0.026000
  C     -4.995000   -2.757000   -1.111000
  C     -6.132000   -3.542000   -1.076000
  C     -7.651000   -5.113000    0.040000
  C     -4.324000    0.141000    0.037000
  C     -3.025000   -0.520000   -0.048000
  C     -4.422000   -3.566000    1.075000
  N     -6.407000   -4.313000    0.001000
  C     -2.867000   -1.922000   -0.040000
  C     -1.650000   -2.624000   -0.027000
  C      3.568000   -6.142000   -1.040000
  C     -1.476000   -4.049000   -0.034000
  C      2.803000   -4.099000   -0.008000
  C      3.657000   -4.384000    1.069000
  C      4.427000   -5.530000    1.059000
  C      5.245000   -7.588000    0.014000
  C     -0.134000   -4.315000   -0.022000
  C      0.568000   -3.064000   -0.027000
  C      2.775000   -5.012000   -1.074000
  N      4.376000   -6.391000    0.017000
  C      1.959000   -2.869000   -0.009000
  C      2.621000   -1.622000    0.009000
  C      5.543000    4.339000   -1.130000
  C      4.070000   -1.479000   -0.094000
  C      4.104000    2.751000   -0.021000
  C      5.027000    2.729000    1.036000
  C      6.166000    3.509000    0.978000
  C      7.619000    5.153000   -0.115000
  C      4.321000   -0.148000   -0.092000
  C      3.025000    0.514000    0.015000
  C      4.387000    3.582000   -1.115000
  C      2.866000    1.916000    0.013000
  N      6.413000    4.296000   -0.095000
  H     -4.223000    6.457000   -1.961000
  H      2.274000    4.766000    0.081000
  H     -3.023000    4.155000    2.207000
  H     -4.416000    6.218000    2.177000
  H     -6.265000    7.284000    0.150000
  H     -4.994000    8.163000    1.051000
  H     -5.012000    8.204000   -0.734000
  H     -0.332000    5.282000    0.069000
  H     -2.827000    4.403000   -2.100000
  H      0.182000    1.072000    0.005000
  H     -0.183000   -1.080000   -0.021000
  H     -5.864000   -4.962000    1.895000
  H     -4.794000    2.272000    0.139000
  H     -4.800000   -2.160000   -1.994000
  H     -6.841000   -3.582000   -1.893000
  H     -8.428000   -4.536000    0.546000
  H     -7.956000   -5.337000   -0.981000
  H     -7.456000   -6.037000    0.584000
  H     -5.287000   -0.344000    0.100000
  H     -3.780000   -3.601000    1.947000
  H      3.587000   -6.868000   -1.843000
  H     -2.276000   -4.774000   -0.050000
  H      3.714000   -3.724000    1.926000
  H      5.092000   -5.795000    1.871000
  H      6.205000   -7.329000   -0.439000
  H      5.393000   -7.917000    1.042000
  H      4.759000   -8.373000   -0.564000
  H      0.329000   -5.290000   -0.008000
  H      2.146000   -4.842000   -1.940000
  H      5.808000    4.986000   -1.956000
  H      4.788000   -2.281000   -0.185000
  H      4.860000    2.114000    1.912000
  H      6.901000    3.531000    1.772000
  H      7.383000    6.109000    0.356000
  H      8.414000    4.652000    0.435000
  H      7.921000    5.310000   -1.150000
  H      5.283000    0.336000   -0.179000
  H      3.720000    3.632000   -1.967000

 Total Charge           Charge          ....    0
 Multiplicity           Mult            ....    1
 Number of Electrons    NEL             ....  358
 Basis Dimension        Dim             ....  918

ORBITAL ENERGIES
----------------

  NO   OCC          E(Eh)            E(eV)
   0   2.0000     -15.720836      -427.7857
   1   2.0000     -15.628015      -425.2599
   2   2.0000     -15.618509      -425.0012
   3   2.0000     -15.575926      -423.8425
   4   2.0000     -15.520940      -422.3463
   5   2.0000     -15.503951      -421.8840
   6   2.0000     -15.451349      -420.4526
   7   2.0000     -15.426703      -419.7819
   8   2.0000     -11.358640      -309.0843
   9   2.0000     -11.356760      -309.0332
  10   2.0000     -11.350663      -308.8673
  11   2.0000     -11.314524      -307.8838
  12   2.0000     -11.296108      -307.3827
  13   2.0000     -11.290311      -307.2250
  14   2.0000     -11.289576      -307.2050
  15   2.0000     -11.287158      -307.1392
  16   2.0000     -11.286932      -307.1330
  17   2.0000     -11.281498      -306.9852
  18   2.0000     -11.279996      -306.9443
  19   2.0000     -11.271152      -306.7036
  20   2.0000     -11.262762      -306.4753
  21   2.0000     -11.242546      -305.9252
  22   2.0000     -11.238916      -305.8264
  23   2.0000     -11.231784      -305.6324
  24   2.0000     -11.226439      -305.4869
  25   2.0000     -11.225533      -305.4623
  26   2.0000     -11.222814      -305.3883
  27   2.0000     -11.218919      -305.2823
  28   2.0000     -11.218607      -305.2738
  29   2.0000     -11.211630      -305.0839
  30   2.0000     -11.209681      -305.0309
  31   2.0000     -11.195724      -304.6511
  32   2.0000     -11.194645      -304.6218
  33   2.0000     -11.193282      -304.5847
  34   2.0000     -11.187754      -304.4343
  35   2.0000     -11.187001      -304.4138
  36   2.0000     -11.182542      -304.2924
  37   2.0000     -11.179496      -304.2095
  38   2.0000     -11.179457      -304.2085
  39   2.0000     -11.178233      -304.1752
  40   2.0000     -11.170495      -303.9646
  41   2.0000     -11.165560      -303.8303
  42   2.0000     -11.164341      -303.7972
  43   2.0000     -11.162029      -303.7342
  44   2.0000     -11.160746      -303.6993
  45   2.0000     -11.144435      -303.2555
  46   2.0000     -11.143875      -303.2402
  47   2.0000     -11.140281      -303.1424
  48   2.0000     -11.136968      -303.0523
  49   2.0000     -11.130413      -302.8739
  50   2.0000     -11.116573      -302.4973
  51   2.0000     -11.110762      -302.3392
  52   2.0000      -1.392361       -37.8881
  53   2.0000      -1.316335       -35.8193
  54   2.0000      -1.307528       -35.5796
  55   2.0000      -1.271302       -34.5939
  56   2.0000      -1.224746       -33.3270
  57   2.0000      -1.199948       -32.6522
  58   2.0000      -1.178502       -32.0687
  59   2.0000      -1.165462       -31.7138
  60   2.0000      -1.136738       -30.9322
  61   2.0000      -1.110022       -30.2052
  62   2.0000      -1.105699       -30.0876
  63   2.0000      -1.097311       -29.8594
  64   2.0000      -1.065579       -28.9959
  65   2.0000      -1.058002       -28.7897
  66   2.0000      -1.040816       -28.3220
  67   2.0000      -1.032485       -28.0953
  68   2.0000      -1.015285       -27.6273
  69   2.0000      -1.003882       -27.3170
  70   2.0000      -0.998559       -27.1722
  71   2.0000      -0.995337       -27.0845
  72   2.0000      -0.985683       -26.8218
  73   2.0000      -0.975827       -26.5536
  74   2.0000      -0.964458       -26.2442
  75   2.0000      -0.961113       -26.1532
  76   2.0000      -0.950692       -25.8696
  77   2.0000      -0.940363       -25.5886
  78   2.0000      -0.935976       -25.4692
  79   2.0000      -0.919610       -25.0239
  80   2.0000      -0.912084       -24.8191
  81   2.0000      -0.891419       -24.2567
  82   2.0000      -0.886834       -24.1320
  83   2.0000      -0.867964       -23.6185
  84   2.0000      -0.860003       -23.4019
  85   2.0000      -0.846165       -23.0253
  86   2.0000      -0.828937       -22.5565
  87   2.0000      -0.826106       -22.4795
  88   2.0000      -0.820087       -22.3157
  89   2.0000      -0.794248       -21.6126
  90   2.0000      -0.785672       -21.3792
  91   2.0000      -0.772681       -21.0257
  92   2.0000      -0.740872       -20.1602
  93   2.0000      -0.733593       -19.9621
  94   2.0000      -0.729018       -19.8376
  95   2.0000      -0.724346       -19.7105
  96   2.0000      -0.716153       -19.4875
  97   2.0000      -0.710245       -19.3267
  98   2.0000      -0.707666       -19.2566
  99   2.0000      -0.704733       -19.1768
 100   2.0000      -0.695807       -18.9339
 101   2.0000      -0.688202       -18.7269
 102   2.0000      -0.684034       -18.6135
 103   2.0000      -0.675621       -18.3846
 104   2.0000      -0.672141       -18.2899
 105   2.0000      -0.671786       -18.2802
 106   2.0000      -0.666709       -18.1421
 107   2.0000      -0.661532       -18.0012
 108   2.0000      -0.651926       -17.7398
 109   2.0000      -0.648864       -17.6565
 110   2.0000      -0.648350       -17.6425
 111   2.0000      -0.641987       -17.4694
 112   2.0000      -0.640478       -17.4283
 113   2.0000      -0.635100       -17.2819
 114   2.0000      -0.633681       -17.2433
 115   2.0000      -0.629077       -17.1181
 116   2.0000      -0.627045       -17.0628
 117   2.0000      -0.614538       -16.7224
 118   2.0000      -0.610823       -16.6214
 119   2.0000      -0.608690       -16.5633
 120   2.0000      -0.608076       -16.5466
 121   2.0000      -0.600659       -16.3448
 122   2.0000      -0.593036       -16.1373
 123   2.0000      -0.589226       -16.0337
 124   2.0000      -0.584231       -15.8977
 125   2.0000      -0.577938       -15.7265
 126   2.0000      -0.574576       -15.6350
 127   2.0000      -0.571631       -15.5549
 128   2.0000      -0.570659       -15.5284
 129   2.0000      -0.569351       -15.4928
 130   2.0000      -0.556292       -15.1375
 131   2.0000      -0.542743       -14.7688
 132   2.0000      -0.542083       -14.7508
 133   2.0000      -0.538133       -14.6433
 134   2.0000      -0.533447       -14.5158
 135   2.0000      -0.529183       -14.3998
 136   2.0000      -0.519565       -14.1381
 137   2.0000      -0.515644       -14.0314
 138   2.0000      -0.513840       -13.9823
 139   2.0000      -0.511804       -13.9269
 140   2.0000      -0.509559       -13.8658
 141   2.0000      -0.503298       -13.6954
 142   2.0000      -0.501110       -13.6359
 143   2.0000      -0.497575       -13.5397
 144   2.0000      -0.495313       -13.4781
 145   2.0000      -0.492562       -13.4033
 146   2.0000      -0.488217       -13.2851
 147   2.0000      -0.473014       -12.8714
 148   2.0000      -0.469869       -12.7858
 149   2.0000      -0.465927       -12.6785
 150   2.0000      -0.462753       -12.5921
 151   2.0000      -0.460031       -12.5181
 152   2.0000      -0.451883       -12.2964
 153   2.0000      -0.440683       -11.9916
 154   2.0000      -0.432693       -11.7742
 155   2.0000      -0.430963       -11.7271
 156   2.0000      -0.418497       -11.3879
 157   2.0000      -0.416641       -11.3374
 158   2.0000      -0.411030       -11.1847
 159   2.0000      -0.410438       -11.1686
 160   2.0000      -0.381272       -10.3749
 161   2.0000      -0.369371       -10.0511
 162   2.0000      -0.353043        -9.6068
 163   2.0000      -0.351596        -9.5674
 164   2.0000      -0.345580        -9.4037
 165   2.0000      -0.341667        -9.2972
 166   2.0000      -0.337866        -9.1938
 167   2.0000      -0.316533        -8.6133
 168   2.0000      -0.311799        -8.4845
 169   2.0000      -0.305234        -8.3058
 170   2.0000      -0.298020        -8.1095
 171   2.0000      -0.282442        -7.6857
 172   2.0000      -0.275194        -7.4884
 173   2.0000      -0.266581        -7.2540
 174   2.0000      -0.228836        -6.2269
 175   2.0000      -0.182913        -4.9773
 176   2.0000      -0.173137        -4.7113
 177   2.0000      -0.062716        -1.7066
 178   2.0000      -0.050736        -1.3806
 179   0.0000       0.036326         0.9885
 180   0.0000       0.054033         1.4703
 181   0.0000       0.072918         1.9842
 182   0.0000       0.098727         2.6865
 183   0.0000       0.102240         2.7821

MULLIKEN ATOMIC CHARGES
-----------------------
   0 C :    0.240003
   1 N :   -0.409658
   2 C :   -0.066129
   3 N :   -0.344245
   4 C :   -0.065661
   5 N :   -0.566365
   6 C :   -0.024045
   7 N :   -0.336738
   8 C :    0.234251
   9 N :   -0.566502
  10 C :    0.102689
  11 N :   -0.440289
  12 C :   -0.058173
  13 N :   -0.452082
  14 C :    0.219535
  15 N :   -0.441832
  16 C :    0.258136
  17 C :   -0.032806
  18 C :   -0.175786
  19 C :    0.230976
  20 C :    0.185523
  21 C :   -0.067617
  22 C :   -0.092479
  23 C :   -0.069444
  24 C :    0.217596
  25 C :    0.115242
  26 C :   -0.064681
  27 C :    0.250350
  28 C :   -0.038724
  29 C :   -0.198108
  30 C :    0.219374
  31 C :    0.185643
  32 C :   -0.064434
  33 C :   -0.104547
  34 C :   -0.050637
  35 C :    0.176077
  36 C :    0.121704
  37 C :   -0.071037
  38 C :    0.245109
  39 C :   -0.065673
  40 C :   -0.206008
  41 C :    0.216039
  42 C :    0.212852
  43 C :   -0.077747
  44 C :   -0.092995
  45 C :   -0.036828
  46 C :    0.181716
  47 C :    0.116933
  48 C :   -0.082576
  49 C :    0.205840
  50 C :   -0.069231
  51 C :   -0.188359
  52 H :    0.084562
  53 H :   -0.005956
  54 H :    0.069351
  55 H :    0.083058
  56 H :    0.087500
  57 H :    0.078279
  58 H :    0.076210
  59 H :   -0.030048
  60 H :    0.068659
  61 H :    0.177692
  62 H :    0.167185
  63 H :    0.051651
  64 H :   -0.035896
  65 H :    0.039480
  66 H :    0.053956
  67 H :    0.057106
  68 H :    0.055348
  69 H :    0.058544
  70 H :   -0.011982
  71 H :    0.045847
  72 H :    0.035495
  73 H :   -0.019658
  74 H :    0.027549
  75 H :    0.034139
  76 H :    0.044560
  77 H :    0.044815
  78 H :    0.044078
  79 H :   -0.011559
  80 H :    0.027308
  81 H :    0.049762
  82 H :   -0.022908
  83 H :    0.042454
  84 H :    0.048647
  85 H :    0.053547
  86 H :    0.056258
  87 H :    0.054062
  88 H :   -0.031207
  89 H :    0.037965
Sum of atomic charges:   -0.0000000

LOEWDIN ATOMIC CHARGES
----------------------
   0 C :    0.043478
   1 N :    0.198640
   2 C :   -0.097863
   3 N :    0.170463
   4 C :    0.126967
   5 N :   -0.149076
   6 C :   -0.008543
   7 N :    0.177486
   8 C :    0.040256
   9 N :   -0.138462
  10 C :    0.041297
  11 N :    0.137809
  12 C :   -0.096033
  13 N :    0.110628
  14 C :   -0.062688
  15 N :    0.133914
  16 C :   -0.014142
  17 C :   -0.012321
  18 C :   -0.122289
  19 C :   -0.089366
  20 C :   -0.021195
  21 C :   -0.098596
  22 C :    0.030372
  23 C :   -0.035705
  24 C :    0.007278
  25 C :    0.028921
  26 C :   -0.090418
  27 C :   -0.050317
  28 C :   -0.014625
  29 C :   -0.119296
  30 C :   -0.066947
  31 C :   -0.029319
  32 C :   -0.100914
  33 C :   -0.010921
  34 C :   -0.027609
  35 C :   -0.037897
  36 C :    0.022446
  37 C :   -0.111172
  38 C :   -0.027987
  39 C :   -0.035413
  40 C :   -0.114040
  41 C :   -0.093305
  42 C :    0.001086
  43 C :   -0.115188
  44 C :    0.025518
  45 C :   -0.013484
  46 C :   -0.026005
  47 C :    0.027997
  48 C :   -0.115534
  49 C :   -0.120492
  50 C :   -0.034986
  51 C :   -0.107723
  52 H :    0.043341
  53 H :    0.008233
  54 H :    0.056743
  55 H :    0.042841
  56 H :    0.041326
  57 H :    0.040795
  58 H :    0.040411
  59 H :   -0.001030
  60 H :    0.056364
  61 H :    0.062902
  62 H :    0.057375
  63 H :    0.028120
  64 H :   -0.005823
  65 H :    0.041043
  66 H :    0.029527
  67 H :    0.025804
  68 H :    0.030719
  69 H :    0.031036
  70 H :    0.003863
  71 H :    0.045154
  72 H :    0.021140
  73 H :    0.001586
  74 H :    0.036969
  75 H :    0.020129
  76 H :    0.019178
  77 H :    0.025327
  78 H :    0.025028
  79 H :    0.005662
  80 H :    0.036043
  81 H :    0.027754
  82 H :   -0.001275
  83 H :    0.044096
  84 H :    0.026387
  85 H :    0.023931
  86 H :    0.030278
  87 H :    0.029895
  88 H :   -0.005605
  89 H :    0.040048

  Mayer bond orders larger than 0.100000
B(  0-C ,  1-N ) :   1.2167 B(  0-C , 17-C ) :   1.5070 B(  0-C , 52-H ) :   0.9665
B(  1-N ,  8-C ) :   1.2080 B(  1-N , 10-C ) :   0.9231 B(  2-C , 12-C ) :   1.5839
B(  2-C , 16-C ) :   1.2694 B(  2-C , 53-H ) :   0.9793 B(  3-N , 14-C ) :   1.1740
B(  3-N , 16-C ) :   1.2019 B(  3-N , 61-H ) :   0.8950 B(  4-C ,  6-C ) :   1.3657
B(  4-C , 17-C ) :   1.3645 B(  4-C , 18-C ) :   1.0442 B(  5-N , 19-C ) :   1.3623
B(  5-N , 27-C ) :   1.4501 B(  6-C ,  8-C ) :   1.5073 B(  6-C , 54-H ) :   0.9705
B(  7-N , 30-C ) :   1.1837 B(  7-N , 38-C ) :   1.2162 B(  7-N , 62-H ) :   0.9017
B(  8-C , 55-H ) :   0.9674 B(  9-N , 41-C ) :   1.4366 B(  9-N , 49-C ) :   1.3911
B( 10-C , 56-H ) :   0.9768 B( 10-C , 57-H ) :   0.9805 B( 10-C , 58-H ) :   0.9815
B( 11-N , 20-C ) :   1.0946 B( 11-N , 24-C ) :   1.1342 B( 11-N , 25-C ) :   0.9629
B( 12-C , 14-C ) :   1.2697 B( 12-C , 59-H ) :   0.9767 B( 13-N , 31-C ) :   1.0801
B( 13-N , 35-C ) :   1.0698 B( 13-N , 36-C ) :   0.9836 B( 14-C , 18-C ) :   1.2652
B( 15-N , 42-C ) :   1.1267 B( 15-N , 46-C ) :   1.0875 B( 15-N , 47-C ) :   0.9667
B( 16-C , 51-C ) :   1.2512 B( 17-C , 60-H ) :   0.9709 B( 18-C , 19-C ) :   1.3166
B( 19-C , 21-C ) :   1.1592 B( 20-C , 28-C ) :   1.6303 B( 20-C , 63-H ) :   0.9710
B( 21-C , 26-C ) :   1.6855 B( 21-C , 64-H ) :   0.9714 B( 22-C , 23-C ) :   1.2534
B( 22-C , 28-C ) :   1.2793 B( 22-C , 29-C ) :   1.2590 B( 23-C , 24-C ) :   1.6366
B( 23-C , 65-H ) :   0.9723 B( 24-C , 66-H ) :   0.9691 B( 25-C , 67-H ) :   0.9762
B( 25-C , 68-H ) :   0.9834 B( 25-C , 69-H ) :   0.9819 B( 26-C , 27-C ) :   1.1693
B( 26-C , 70-H ) :   0.9759 B( 27-C , 29-C ) :   1.2443 B( 28-C , 71-H ) :   0.9709
B( 29-C , 30-C ) :   1.1722 B( 30-C , 32-C ) :   1.3538 B( 31-C , 39-C ) :   1.6877
B( 31-C , 72-H ) :   0.9709 B( 32-C , 37-C ) :   1.5064 B( 32-C , 73-H ) :   0.9771
B( 33-C , 34-C ) :   1.2302 B( 33-C , 39-C ) :   1.2226 B( 33-C , 40-C ) :   1.3644
B( 34-C , 35-C ) :   1.6864 B( 34-C , 74-H ) :   0.9710 B( 35-C , 75-H ) :   0.9709
B( 36-C , 76-H ) :   0.9754 B( 36-C , 77-H ) :   0.9826 B( 36-C , 78-H ) :   0.9838
B( 37-C , 38-C ) :   1.3470 B( 37-C , 79-H ) :   0.9793 B( 38-C , 40-C ) :   1.1763
B( 39-C , 80-H ) :   0.9721 B( 40-C , 41-C ) :   1.1659 B( 41-C , 43-C ) :   1.2582
B( 42-C , 50-C ) :   1.6428 B( 42-C , 81-H ) :   0.9696 B( 43-C , 48-C ) :   1.5929
B( 43-C , 82-H ) :   0.9757 B( 44-C , 45-C ) :   1.2815 B( 44-C , 50-C ) :   1.2477
B( 44-C , 51-C ) :   1.2459 B( 45-C , 46-C ) :   1.6331 B( 45-C , 83-H ) :   0.9702
B( 46-C , 84-H ) :   0.9709 B( 47-C , 85-H ) :   0.9759 B( 47-C , 86-H ) :   0.9825
B( 47-C , 87-H ) :   0.9830 B( 48-C , 49-C ) :   1.2523 B( 48-C , 88-H ) :   0.9725
B( 49-C , 51-C ) :   1.1884 B( 50-C , 89-H ) :   0.9723

MP2 TOTAL ENERGY:    -2130.869033724 Eh
FINAL SINGLE POINT ENERGY     -2130.869033724226

DIPOLE MOMENT
-------------
                                X             Y             Z
Electronic contribution:     -4.70777       5.62497      -0.14944
Nuclear contribution   :     -0.02850       0.16476       0.20599
                        -----------------------------------------
Total Dipole Moment    :     -4.73628       5.78972       0.05656
                        -----------------------------------------
Magnitude (a.u.)       :      7.48040
Magnitude (Debye)      :     19.01367

Rotational constants in cm-1:     0.001498     0.001472     0.000763
Rotational constants in MHz :    44.902505    44.137214    22.868576

                             ****ORCA TERMINATED NORMALLY****
TOTAL RUN TIME: 0 days 1 hours 9 minutes 47 seconds 65 msec
