                         Program Version 5.0.4 -  RELEASE  -
|  1> ! PAL2
|  2> ! mp2 cc-pvdz TightSCF  NoKeepInts
|  3>
|  4> %scf
|  5>   MaxCore 2000
|  6> end
|  7> %mp2
|  8>   MaxCore 2000
|  9> end
| 10> * xyz 0 1
| 11>    C       -3.10500         6.45500        -0.34400
| 12>    C        1.47400         4.04100         0.05700
| 13>    C       -2.80200         4.09300         0.04900
| 14>    C       -4.12400         4.05400         0.52000
| 15>    C       -4.88700         5.20400         0.54000
| 16>    C       -5.23100         7.59000         0.11600
| 17>    C        0.13200         4.30700         0.06100
| 18>    C       -0.56900         3.05600         0.04700
| 19>    C        1.64900         2.61800         0.02300
| 20>    C       -2.30500         5.33000        -0.39000
| 21>    N       -4.37500         6.38300         0.11600
| 22>    N        0.38800         2.06700         0.02500
| 23>    N       -2.01000         0.39500        -0.07500
| 24>    N       -0.38800        -2.07400        -0.02700
| 25>    N        2.01000        -0.40100         0.06500
| 26>    C       -1.96000         2.86100         0.02400
| 27>    C       -2.62300         1.61500        -0.01800
| 28>    C       -5.57300        -4.32900         1.06600
| 29>    C       -4.07300         1.47100         0.05600
| 30>    C       -4.10600        -2.75600        -0.02600
| 31>    C       -4.99500        -2.75700        -1.11100
| 32>    C       -6.13200        -3.54200        -1.07600
| 33>    C       -7.65100        -5.11300         0.04000
| 34>    C       -4.32400         0.14100         0.03700
| 35>    C       -3.02500        -0.52000        -0.04800
| 36>    C       -4.42200        -3.56600         1.07500
| 37>    N       -6.40700        -4.31300         0.00100
| 38>    C       -2.86700        -1.92200        -0.04000
| 39>    C       -1.65000        -2.62400        -0.02700
| 40>    C        3.56800        -6.14200        -1.04000
| 41>    C       -1.47600        -4.04900        -0.03400
| 42>    C        2.80300        -4.09900        -0.00800
| 43>    C        3.65700        -4.38400         1.06900
| 44>    C        4.42700        -5.53000         1.05900
| 45>    C        5.24500        -7.58800         0.01400
| 46>    C       -0.13400        -4.31500        -0.02200
| 47>    C        0.56800        -3.06400        -0.02700
| 48>    C        2.77500        -5.01200        -1.07400
| 49>    N        4.37600        -6.39100         0.01700
| 50>    C        1.95900        -2.86900        -0.00900
| 51>    C        2.62100        -1.62200         0.00900
| 52>    C        5.54300         4.33900        -1.13000
| 53>    C        4.07000        -1.47900        -0.09400
| 54>    C        4.10400         2.75100        -0.02100
| 55>    C        5.02700         2.72900         1.03600
| 56>    C        6.16600         3.50900         0.97800
| 57>    C        7.61900         5.15300        -0.11500
| 58>    C        4.32100        -0.14800        -0.09200
| 59>    C        3.02500         0.51400         0.01500
| 60>    C        4.38700         3.58200        -1.11500
| 61>    C        2.86600         1.91600         0.01300
| 62>    N        6.41300         4.29600        -0.09500
| 63>    H       -2.75900         7.43100        -0.66000
| 64>    H        2.27400         4.76600         0.08100
| 65>    H       -4.56700         3.12700         0.86300
| 66>    H       -5.91200         5.22100         0.88600
| 67>    H       -5.80100         7.62100        -0.81600
| 68>    H       -5.90800         7.54000         0.96800
| 69>    H       -4.59400         8.47100         0.19500
| 70>    H       -0.33200         5.28200         0.06900
| 71>    H       -1.28700         5.42800        -0.75100
| 72>    H        0.18200         1.07200         0.00500
| 73>    H       -0.18300        -1.08000        -0.02100
| 74>    H       -5.86400        -4.96200         1.89500
| 75>    H       -4.79400         2.27200         0.13900
| 76>    H       -4.80000        -2.16000        -1.99400
| 77>    H       -6.84100        -3.58200        -1.89300
| 78>    H       -8.42800        -4.53600         0.54600
| 79>    H       -7.95600        -5.33700        -0.98100
| 80>    H       -7.45600        -6.03700         0.58400
| 81>    H       -5.28700        -0.34400         0.10000
| 82>    H       -3.78000        -3.60100         1.94700
| 83>    H        3.58700        -6.86800        -1.84300
| 84>    H       -2.27600        -4.77400        -0.05000
| 85>    H        3.71400        -3.72400         1.92600
| 86>    H        5.09200        -5.79500         1.87100
| 87>    H        6.20500        -7.32900        -0.43900
| 88>    H        5.39300        -7.91700         1.04200
| 89>    H        4.75900        -8.37300        -0.56400
| 90>    H        0.32900        -5.29000        -0.00800
| 91>    H        2.14600        -4.84200        -1.94000
| 92>    H        5.80800         4.98600        -1.95600
| 93>    H        4.78800        -2.28100        -0.18500
| 94>    H        4.86000         2.11400         1.91200
| 95>    H        6.90100         3.53100         1.77200
| 96>    H        7.38300         6.10900         0.35600
| 97>    H        8.41400         4.65200         0.43500
| 98>    H        7.92100         5.31000        -1.15000
| 99>    H        5.28300         0.33600        -0.17900
|100>    H        3.72000         3.63200        -1.96700
|101> *
|102>
|103>                          ****END OF INPUT****

CARTESIAN COORDINATES (ANGSTROEM)
---------------------------------
  C     -3.105000    6.455000   -0.344000
  C      1.474000    4.041000    0.057000
  C     -2.802000    4.093000    0.049000
  C     -4.124000    4.054000    0.520000
  C     -4.887000    5.204000    0.540000
  C     -5.231000    7.590000    0.116000
  C      0.132000    4.307000    0.061000
  C     -0.569000    3.056000    0.047000
  C      1.649000    2.618000    0.023000
  C     -2.305000    5.330000   -0.390000
  N     -4.375000    6.383000    0.116000
  N      0.388000    2.067000    0.025000
  N     -2.010000    0.395000   -0.075000
  N     -0.388000   -2.074000   -0.027000
  N      2.010000   -0.401000    0.065000
  C     -1.960000    2.861000    0.024000
  C     -2.623000    1.615000   -0.018000
  C     -5.573000   -4.329000    1.066000
  C     -4.073000    1.471000    0.056000
  C     -4.106000   -2.756000   -0.026000
  C     -4.995000   -2.757000   -1.111000
  C     -6.132000   -3.542000   -1.076000
  C     -7.651000   -5.113000    0.040000
  C     -4.324000    0.141000    0.037000
  C     -3.025000   -0.520000   -0.048000
  C     -4.422000   -3.566000    1.075000
  N     -6.407000   -4.313000    0.001000
  C     -2.867000   -1.922000   -0.040000
  C     -1.650000   -2.624000   -0.027000
  C      3.568000   -6.142000   -1.040000
  C     -1.476000   -4.049000   -0.034000
  C      2.803000   -4.099000   -0.008000
  C      3.657000   -4.384000    1.069000
  C      4.427000   -5.530000    1.059000
  C      5.245000   -7.588000    0.014000
  C     -0.134000   -4.315000   -0.022000
  C      0.568000   -3.064000   -0.027000
  C      2.775000   -5.012000   -1.074000
  N      4.376000   -6.391000    0.017000
  C      1.959000   -2.869000   -0.009000
  C      2.621000   -1.622000    0.009000
  C      5.543000    4.339000   -1.130000
  C      4.070000   -1.479000   -0.094000
  C      4.104000    2.751000   -0.021000
  C      5.027000    2.729000    1.036000
  C      6.166000    3.509000    0.978000
  C      7.619000    5.153000   -0.115000
  C      4.321000   -0.148000   -0.092000
  C      3.025000    0.514000    0.015000
  C      4.387000    3.582000   -1.115000
  C      2.866000    1.916000    0.013000
  N      6.413000    4.296000   -0.095000
  H     -2.759000    7.431000   -0.660000
  H      2.274000    4.766000    0.081000
  H     -4.567000    3.127000    0.863000
  H     -5.912000    5.221000    0.886000
  H     -5.801000    7.621000   -0.816000
  H     -5.908000    7.540000    0.968000
  H     -4.594000    8.471000    0.195000
  H     -0.332000    5.282000    0.069000
  H     -1.287000    5.428000   -0.751000
  H      0.182000    1.072000    0.005000
  H     -0.183000   -1.080000   -0.021000
  H     -5.864000   -4.962000    1.895000
  H     -4.794000    2.272000    0.139000
  H     -4.800000   -2.160000   -1.994000
  H     -6.841000   -3.582000   -1.893000
  H     -8.428000   -4.536000    0.546000
  H     -7.956000   -5.337000   -0.981000
  H     -7.456000   -6.037000    0.584000
  H     -5.287000   -0.344000    0.100000
  H     -3.780000   -3.601000    1.947000
  H      3.587000   -6.868000   -1.843000
  H     -2.276000   -4.774000   -0.050000
  H      3.714000   -3.724000    1.926000
  H      5.092000   -5.795000    1.871000
  H      6.205000   -7.329000   -0.439000
  H      5.393000   -7.917000    1.042000
  H      4.759000   -8.373000   -0.564000
  H      0.329000   -5.290000   -0.008000
  H      2.146000   -4.842000   -1.940000
  H      5.808000    4.986000   -1.956000
  H      4.788000   -2.281000   -0.185000
  H      4.860000    2.114000    1.912000
  H      6.901000    3.531000    1.772000
  H      7.383000    6.109000    0.356000
  H      8.414000    4.652000    0.435000
  H      7.921000    5.310000   -1.150000
  H      5.283000    0.336000   -0.179000
  H      3.720000    3.632000   -1.967000

 Total Charge           Charge          ....    0
 Multiplicity           Mult            ....    1
 Number of Electrons    NEL             ....  358
 Basis Dimension        Dim             ....  918

ORBITAL ENERGIES
----------------

  NO   OCC          E(Eh)            E(eV)
   0   2.0000     -15.677131      -426.5964
   1   2.0000     -15.633574      -425.4112
   2   2.0000     -15.631967      -425.3674
   3   2.0000     -15.589303      -424.2065
   4   2.0000     -15.524839      -422.4523
   5   2.0000     -15.515984      -422.2114
   6   2.0000     -15.453487      -420.5108
   7   2.0000     -15.440344      -420.1531
   8   2.0000     -11.327215      -308.2292
   9   2.0000     -11.326296      -308.2042
  10   2.0000     -11.326141      -308.2000
  11   2.0000     -11.299077      -307.4635
  12   2.0000     -11.298438      -307.4461
  13   2.0000     -11.292545      -307.2858
  14   2.0000     -11.291158      -307.2480
  15   2.0000     -11.286826      -307.1301
  16   2.0000     -11.286348      -307.1171
  17   2.0000     -11.279560      -306.9324
  18   2.0000     -11.271494      -306.7130
  19   2.0000     -11.261536      -306.4420
  20   2.0000     -11.260553      -306.4152
  21   2.0000     -11.254211      -306.2426
  22   2.0000     -11.251407      -306.1663
  23   2.0000     -11.237314      -305.7829
  24   2.0000     -11.236727      -305.7669
  25   2.0000     -11.230877      -305.6077
  26   2.0000     -11.230071      -305.5858
  27   2.0000     -11.229862      -305.5801
  28   2.0000     -11.229739      -305.5767
  29   2.0000     -11.210316      -305.0482
  30   2.0000     -11.209060      -305.0140
  31   2.0000     -11.196923      -304.6838
  32   2.0000     -11.190611      -304.5120
  33   2.0000     -11.190463      -304.5080
  34   2.0000     -11.188810      -304.4630
  35   2.0000     -11.187661      -304.4317
  36   2.0000     -11.186380      -304.3969
  37   2.0000     -11.186182      -304.3915
  38   2.0000     -11.182261      -304.2848
  39   2.0000     -11.173696      -304.0517
  40   2.0000     -11.171915      -304.0033
  41   2.0000     -11.170874      -303.9749
  42   2.0000     -11.167643      -303.8870
  43   2.0000     -11.160999      -303.7062
  44   2.0000     -11.160322      -303.6878
  45   2.0000     -11.157416      -303.6087
  46   2.0000     -11.156051      -303.5716
  47   2.0000     -11.155309      -303.5514
  48   2.0000     -11.147646      -303.3429
  49   2.0000     -11.137353      -303.0628
  50   2.0000     -11.130343      -302.8720
  51   2.0000     -11.118855      -302.5594
  52   2.0000      -1.358126       -36.9565
  53   2.0000      -1.320881       -35.9430
  54   2.0000      -1.319732       -35.9117
  55   2.0000      -1.282601       -34.9014
  56   2.0000      -1.225675       -33.3523
  57   2.0000      -1.210473       -32.9386
  58   2.0000      -1.172872       -31.9155
  59   2.0000      -1.151051       -31.3217
  60   2.0000      -1.141798       -31.0699
  61   2.0000      -1.110147       -30.2086
  62   2.0000      -1.108873       -30.1740
  63   2.0000      -1.079990       -29.3880
  64   2.0000      -1.078853       -29.3571
  65   2.0000      -1.045082       -28.4381
  66   2.0000      -1.044397       -28.4195
  67   2.0000      -1.039879       -28.2965
  68   2.0000      -1.014721       -27.6120
  69   2.0000      -1.013075       -27.5672
  70   2.0000      -1.009380       -27.4666
  71   2.0000      -0.993038       -27.0219
  72   2.0000      -0.986286       -26.8382
  73   2.0000      -0.980837       -26.6899
  74   2.0000      -0.972434       -26.4613
  75   2.0000      -0.961641       -26.1676
  76   2.0000      -0.954099       -25.9623
  77   2.0000      -0.945853       -25.7380
  78   2.0000      -0.935577       -25.4583
  79   2.0000      -0.918150       -24.9841
  80   2.0000      -0.908612       -24.7246
  81   2.0000      -0.895107       -24.3571
  82   2.0000      -0.875456       -23.8224
  83   2.0000      -0.871774       -23.7222
  84   2.0000      -0.870062       -23.6756
  85   2.0000      -0.857923       -23.3453
  86   2.0000      -0.841659       -22.9027
  87   2.0000      -0.835441       -22.7335
  88   2.0000      -0.825434       -22.4612
  89   2.0000      -0.797297       -21.6955
  90   2.0000      -0.790428       -21.5086
  91   2.0000      -0.753030       -20.4910
  92   2.0000      -0.748325       -20.3629
  93   2.0000      -0.733132       -19.9495
  94   2.0000      -0.725355       -19.7379
  95   2.0000      -0.722325       -19.6555
  96   2.0000      -0.717166       -19.5151
  97   2.0000      -0.713832       -19.4244
  98   2.0000      -0.709637       -19.3102
  99   2.0000      -0.697443       -18.9784
 100   2.0000      -0.696411       -18.9503
 101   2.0000      -0.687172       -18.6989
 102   2.0000      -0.683378       -18.5957
 103   2.0000      -0.682579       -18.5739
 104   2.0000      -0.678309       -18.4577
 105   2.0000      -0.674044       -18.3417
 106   2.0000      -0.671089       -18.2613
 107   2.0000      -0.660261       -17.9666
 108   2.0000      -0.657398       -17.8887
 109   2.0000      -0.652800       -17.7636
 110   2.0000      -0.651676       -17.7330
 111   2.0000      -0.644343       -17.5335
 112   2.0000      -0.644102       -17.5269
 113   2.0000      -0.638181       -17.3658
 114   2.0000      -0.637364       -17.3436
 115   2.0000      -0.628104       -17.0916
 116   2.0000      -0.622972       -16.9519
 117   2.0000      -0.620733       -16.8910
 118   2.0000      -0.612706       -16.6726
 119   2.0000      -0.612040       -16.6545
 120   2.0000      -0.611584       -16.6421
 121   2.0000      -0.609592       -16.5879
 122   2.0000      -0.600812       -16.3489
 123   2.0000      -0.586815       -15.9680
 124   2.0000      -0.581424       -15.8214
 125   2.0000      -0.580781       -15.8038
 126   2.0000      -0.579652       -15.7731
 127   2.0000      -0.572320       -15.5736
 128   2.0000      -0.568786       -15.4775
 129   2.0000      -0.559546       -15.2260
 130   2.0000      -0.551977       -15.0201
 131   2.0000      -0.547583       -14.9005
 132   2.0000      -0.542113       -14.7517
 133   2.0000      -0.541901       -14.7459
 134   2.0000      -0.538190       -14.6449
 135   2.0000      -0.536046       -14.5865
 136   2.0000      -0.529690       -14.4136
 137   2.0000      -0.520876       -14.1737
 138   2.0000      -0.516705       -14.0603
 139   2.0000      -0.514502       -14.0003
 140   2.0000      -0.512485       -13.9454
 141   2.0000      -0.511034       -13.9059
 142   2.0000      -0.508891       -13.8476
 143   2.0000      -0.504380       -13.7249
 144   2.0000      -0.502070       -13.6620
 145   2.0000      -0.496420       -13.5083
 146   2.0000      -0.491007       -13.3610
 147   2.0000      -0.482684       -13.1345
 148   2.0000      -0.478850       -13.0302
 149   2.0000      -0.467005       -12.7079
 150   2.0000      -0.466400       -12.6914
 151   2.0000      -0.457207       -12.4412
 152   2.0000      -0.451273       -12.2797
 153   2.0000      -0.444860       -12.1053
 154   2.0000      -0.440159       -11.9773
 155   2.0000      -0.428029       -11.6473
 156   2.0000      -0.420336       -11.4379
 157   2.0000      -0.407904       -11.0996
 158   2.0000      -0.399430       -10.8690
 159   2.0000      -0.388241       -10.5646
 160   2.0000      -0.385939       -10.5019
 161   2.0000      -0.378517       -10.3000
 162   2.0000      -0.369964       -10.0672
 163   2.0000      -0.356444        -9.6993
 164   2.0000      -0.355898        -9.6845
 165   2.0000      -0.341485        -9.2923
 166   2.0000      -0.337623        -9.1872
 167   2.0000      -0.325180        -8.8486
 168   2.0000      -0.322664        -8.7801
 169   2.0000      -0.304696        -8.2912
 170   2.0000      -0.299640        -8.1536
 171   2.0000      -0.285560        -7.7705
 172   2.0000      -0.280412        -7.6304
 173   2.0000      -0.263541        -7.1713
 174   2.0000      -0.241789        -6.5794
 175   2.0000      -0.189940        -5.1685
 176   2.0000      -0.180544        -4.9128
 177   2.0000      -0.077556        -2.1104
 178   2.0000      -0.059082        -1.6077
 179   0.0000       0.028346         0.7713
 180   0.0000       0.065725         1.7885
 181   0.0000       0.090707         2.4683
 182   0.0000       0.107949         2.9374
 183   0.0000       0.112492         3.0611

MULLIKEN ATOMIC CHARGES
-----------------------
   0 C :    0.212815
   1 N :   -0.456095
   2 C :   -0.069146
   3 N :   -0.338781
   4 C :   -0.050533
   5 N :   -0.566028
   6 C :   -0.109857
   7 N :   -0.340567
   8 C :    0.208528
   9 N :   -0.562171
  10 C :    0.118887
  11 N :   -0.438545
  12 C :   -0.075620
  13 N :   -0.430018
  14 C :    0.228657
  15 N :   -0.440899
  16 C :    0.228913
  17 C :   -0.122806
  18 C :   -0.189131
  19 C :    0.220918
  20 C :    0.213014
  21 C :   -0.083239
  22 C :   -0.091233
  23 C :   -0.039891
  24 C :    0.193899
  25 C :    0.114656
  26 C :   -0.086717
  27 C :    0.213738
  28 C :   -0.061423
  29 C :   -0.181002
  30 C :    0.245872
  31 C :    0.229001
  32 C :   -0.062037
  33 C :   -0.061470
  34 C :   -0.051261
  35 C :    0.227247
  36 C :    0.108563
  37 C :   -0.064318
  38 C :    0.231210
  39 C :   -0.057711
  40 C :   -0.181682
  41 C :    0.225924
  42 C :    0.197753
  43 C :   -0.072283
  44 C :   -0.089306
  45 C :   -0.061016
  46 C :    0.211463
  47 C :    0.115316
  48 C :   -0.067143
  49 C :    0.238466
  50 C :   -0.046671
  51 C :   -0.192285
  52 H :    0.037713
  53 H :   -0.017296
  54 H :    0.050277
  55 H :    0.036639
  56 H :    0.049528
  57 H :    0.047829
  58 H :    0.047259
  59 H :   -0.000824
  60 H :    0.047118
  61 H :    0.171220
  62 H :    0.175327
  63 H :    0.055035
  64 H :   -0.013467
  65 H :    0.047144
  66 H :    0.055567
  67 H :    0.062196
  68 H :    0.057150
  69 H :    0.056279
  70 H :   -0.030072
  71 H :    0.044554
  72 H :    0.070576
  73 H :   -0.008176
  74 H :    0.059701
  75 H :    0.070003
  76 H :    0.074270
  77 H :    0.067504
  78 H :    0.066822
  79 H :   -0.016509
  80 H :    0.060639
  81 H :    0.054393
  82 H :   -0.024672
  83 H :    0.042175
  84 H :    0.054356
  85 H :    0.060989
  86 H :    0.055693
  87 H :    0.057256
  88 H :   -0.014666
  89 H :    0.046515
Sum of atomic charges:   -0.0000000

LOEWDIN ATOMIC CHARGES
----------------------
   0 C :   -0.019521
   1 N :    0.118251
   2 C :   -0.101372
   3 N :    0.183245
   4 C :   -0.010607
   5 N :   -0.133391
   6 C :   -0.033992
   7 N :    0.175387
   8 C :   -0.022964
   9 N :   -0.140454
  10 C :    0.023524
  11 N :    0.141641
  12 C :   -0.116245
  13 N :    0.164927
  14 C :   -0.023509
  15 N :    0.139002
  16 C :   -0.059838
  17 C :   -0.045660
  18 C :   -0.105855
  19 C :   -0.079099
  20 C :    0.004098
  21 C :   -0.121039
  22 C :    0.036441
  23 C :   -0.014766
  24 C :   -0.012454
  25 C :    0.029745
  26 C :   -0.108669
  27 C :   -0.115912
  28 C :   -0.027553
  29 C :   -0.100374
  30 C :   -0.030130
  31 C :    0.022986
  32 C :   -0.094805
  33 C :    0.079641
  34 C :   -0.015462
  35 C :    0.021761
  36 C :    0.034949
  37 C :   -0.094339
  38 C :   -0.052062
  39 C :   -0.017863
  40 C :   -0.108342
  41 C :   -0.091069
  42 C :   -0.010045
  43 C :   -0.099315
  44 C :    0.033798
  45 C :   -0.027797
  46 C :    0.001897
  47 C :    0.029555
  48 C :   -0.095037
  49 C :   -0.070235
  50 C :   -0.018988
  51 C :   -0.108522
  52 H :    0.023027
  53 H :    0.002783
  54 H :    0.030221
  55 H :    0.022840
  56 H :    0.021917
  57 H :    0.026299
  58 H :    0.027009
  59 H :    0.010872
  60 H :    0.033976
  61 H :    0.060108
  62 H :    0.061779
  63 H :    0.030602
  64 H :    0.004593
  65 H :    0.045887
  66 H :    0.029221
  67 H :    0.028110
  68 H :    0.031588
  69 H :    0.030248
  70 H :   -0.004679
  71 H :    0.043377
  72 H :    0.037359
  73 H :    0.007044
  74 H :    0.050376
  75 H :    0.037034
  76 H :    0.034466
  77 H :    0.035953
  78 H :    0.035646
  79 H :    0.003006
  80 H :    0.050460
  81 H :    0.029100
  82 H :   -0.002638
  83 H :    0.042635
  84 H :    0.029953
  85 H :    0.027441
  86 H :    0.030249
  87 H :    0.031425
  88 H :    0.002298
  89 H :    0.044851

  Mayer bond orders larger than 0.100000
B(  0-C ,  1-N ) :   1.0962 B(  0-C , 17-C ) :   1.7055 B(  0-C , 52-H ) :   0.9657
B(  1-N ,  8-C ) :   1.0874 B(  1-N , 10-C ) :   0.9774 B(  2-C , 12-C ) :   1.5009
B(  2-C , 16-C ) :   1.3617 B(  2-C , 53-H ) :   0.9743 B(  3-N , 14-C ) :   1.2201
B(  3-N , 16-C ) :   1.1864 B(  3-N , 61-H ) :   0.8990 B(  4-C ,  6-C ) :   1.2114
B(  4-C , 17-C ) :   1.2133 B(  4-C , 18-C ) :   1.4521 B(  5-N , 19-C ) :   1.4541
B(  5-N , 27-C ) :   1.3762 B(  6-C ,  8-C ) :   1.7143 B(  6-C , 54-H ) :   0.9300
B(  7-N , 30-C ) :   1.1960 B(  7-N , 38-C ) :   1.1899 B(  7-N , 62-H ) :   0.8969
B(  8-C , 55-H ) :   0.9655 B(  9-N , 41-C ) :   1.3949 B(  9-N , 49-C ) :   1.4248
B( 10-C , 56-H ) :   0.9773 B( 10-C , 57-H ) :   0.9822 B( 10-C , 58-H ) :   0.9843
B( 11-N , 20-C ) :   1.1303 B( 11-N , 24-C ) :   1.1070 B( 11-N , 25-C ) :   0.9604
B( 12-C , 14-C ) :   1.3565 B( 12-C , 59-H ) :   0.9649 B( 13-N , 31-C ) :   1.1591
B( 13-N , 35-C ) :   1.1579 B( 13-N , 36-C ) :   0.9423 B( 14-C , 18-C ) :   1.1258
B( 15-N , 42-C ) :   1.1083 B( 15-N , 46-C ) :   1.1241 B( 15-N , 47-C ) :   0.9612
B( 16-C , 51-C ) :   1.1701 B( 17-C , 60-H ) :   0.9420 B( 18-C , 19-C ) :   1.1277
B( 19-C , 21-C ) :   1.2496 B( 20-C , 28-C ) :   1.6291 B( 20-C , 63-H ) :   0.9703
B( 21-C , 26-C ) :   1.5938 B( 21-C , 64-H ) :   0.9531 B( 22-C , 23-C ) :   1.2885
B( 22-C , 28-C ) :   1.2637 B( 22-C , 29-C ) :   1.2259 B( 23-C , 24-C ) :   1.6209
B( 23-C , 65-H ) :   0.9703 B( 24-C , 66-H ) :   0.9695 B( 25-C , 67-H ) :   0.9760
B( 25-C , 68-H ) :   0.9828 B( 25-C , 69-H ) :   0.9823 B( 26-C , 27-C ) :   1.2512
B( 26-C , 70-H ) :   0.9695 B( 27-C , 29-C ) :   1.2085 B( 28-C , 71-H ) :   0.9720
B( 29-C , 30-C ) :   1.2438 B( 30-C , 32-C ) :   1.2813 B( 31-C , 39-C ) :   1.5901
B( 31-C , 72-H ) :   0.9682 B( 32-C , 37-C ) :   1.5773 B( 32-C , 73-H ) :   0.9786
B( 33-C , 34-C ) :   1.3052 B( 33-C , 39-C ) :   1.3023 B( 33-C , 40-C ) :   1.1801
B( 34-C , 35-C ) :   1.5877 B( 34-C , 74-H ) :   0.9697 B( 35-C , 75-H ) :   0.9682
B( 36-C , 76-H ) :   0.9767 B( 36-C , 77-H ) :   0.9816 B( 36-C , 78-H ) :   0.9824
B( 37-C , 38-C ) :   1.2870 B( 37-C , 79-H ) :   0.9765 B( 38-C , 40-C ) :   1.2321
B( 39-C , 80-H ) :   0.9706 B( 40-C , 41-C ) :   1.2494 B( 41-C , 43-C ) :   1.1854
B( 42-C , 50-C ) :   1.6327 B( 42-C , 81-H ) :   0.9696 B( 43-C , 48-C ) :   1.6674
B( 43-C , 82-H ) :   0.9722 B( 44-C , 45-C ) :   1.2642 B( 44-C , 50-C ) :   1.2725
B( 44-C , 51-C ) :   1.2595 B( 45-C , 46-C ) :   1.6342 B( 45-C , 83-H ) :   0.9718
B( 46-C , 84-H ) :   0.9700 B( 47-C , 85-H ) :   0.9762 B( 47-C , 86-H ) :   0.9829
B( 47-C , 87-H ) :   0.9824 B( 48-C , 49-C ) :   1.1888 B( 48-C , 88-H ) :   0.9748
B( 49-C , 51-C ) :   1.2431 B( 50-C , 89-H ) :   0.9709

MP2 TOTAL ENERGY:    -2130.850578592 Eh
FINAL SINGLE POINT ENERGY     -2130.850578592406

DIPOLE MOMENT
-------------
                                X             Y             Z
Electronic contribution:      2.73288      -4.05601      -0.10721
Nuclear contribution   :     -0.04585       0.15264       0.12571
                        -----------------------------------------
Total Dipole Moment    :      2.68703      -3.90336       0.01850
                        -----------------------------------------
Magnitude (a.u.)       :      4.73885
Magnitude (Debye)      :     12.04520

Rotational constants in cm-1:     0.001503     0.001477     0.000760
Rotational constants in MHz :    45.043978    44.283414    22.792496

                             ****ORCA TERMINATED NORMALLY****
TOTAL RUN TIME: 0 days 1 hours 34 minutes 30 seconds 340 msec
