                         Program Version 5.0.4 -  RELEASE  -
|  1> ! PAL2
|  2> ! mp2 cc-pvdz TightSCF  NoKeepInts
|  3>
|  4> %scf
|  5>   MaxCore 2000
|  6> end
|  7> %mp2
|  8>   MaxCore 2000
|  9> end
| 10> * xyz 0 1
| 11>    C       -4.00000         5.81100         1.24800
| 12>    C        1.47400         4.04100         0.05700
| 13>    C       -2.80200         4.09300         0.04900
| 14>    C       -3.21700         4.70700        -1.14300
| 15>    C       -4.00000         5.84400        -1.10100
| 16>    C       -5.19100         7.61800         0.09200
| 17>    C        0.13200         4.30700         0.06100
| 18>    C       -0.56900         3.05600         0.04700
| 19>    C        1.64900         2.61800         0.02300
| 20>    C       -3.21200         4.67600         1.25800
| 21>    N       -4.38300         6.37800         0.08200
| 22>    N        0.38800         2.06700         0.02500
| 23>    N       -2.01000         0.39500        -0.07500
| 24>    N       -0.38800        -2.07400        -0.02700
| 25>    N        2.01000        -0.40100         0.06500
| 26>    C       -1.96000         2.86100         0.02400
| 27>    C       -2.62300         1.61500        -0.01800
| 28>    C       -5.57300        -4.32900         1.06600
| 29>    C       -4.07300         1.47100         0.05600
| 30>    C       -4.10600        -2.75600        -0.02600
| 31>    C       -4.99500        -2.75700        -1.11100
| 32>    C       -6.13200        -3.54200        -1.07600
| 33>    C       -7.65100        -5.11300         0.04000
| 34>    C       -4.32400         0.14100         0.03700
| 35>    C       -3.02500        -0.52000        -0.04800
| 36>    C       -4.42200        -3.56600         1.07500
| 37>    N       -6.40700        -4.31300         0.00100
| 38>    C       -2.86700        -1.92200        -0.04000
| 39>    C       -1.65000        -2.62400        -0.02700
| 40>    C        3.56800        -6.14200        -1.04000
| 41>    C       -1.47600        -4.04900        -0.03400
| 42>    C        2.80300        -4.09900        -0.00800
| 43>    C        3.65700        -4.38400         1.06900
| 44>    C        4.42700        -5.53000         1.05900
| 45>    C        5.24500        -7.58800         0.01400
| 46>    C       -0.13400        -4.31500        -0.02200
| 47>    C        0.56800        -3.06400        -0.02700
| 48>    C        2.77500        -5.01200        -1.07400
| 49>    N        4.37600        -6.39100         0.01700
| 50>    C        1.95900        -2.86900        -0.00900
| 51>    C        2.62100        -1.62200         0.00900
| 52>    C        5.54300         4.33900        -1.13000
| 53>    C        4.07000        -1.47900        -0.09400
| 54>    C        4.10400         2.75100        -0.02100
| 55>    C        5.02700         2.72900         1.03600
| 56>    C        6.16600         3.50900         0.97800
| 57>    C        7.61900         5.15300        -0.11500
| 58>    C        4.32100        -0.14800        -0.09200
| 59>    C        3.02500         0.51400         0.01500
| 60>    C        4.38700         3.58200        -1.11500
| 61>    C        2.86600         1.91600         0.01300
| 62>    N        6.41300         4.29600        -0.09500
| 63>    H       -4.35000         6.28700         2.15600
| 64>    H        2.27400         4.76600         0.08100
| 65>    H       -2.92500         4.31000        -2.10700
| 66>    H       -4.33600         6.35700        -1.99300
| 67>    H       -4.52100         8.47900         0.04000
| 68>    H       -5.85900         7.60900        -0.76900
| 69>    H       -5.77100         7.65000         1.01500
| 70>    H       -0.33200         5.28200         0.06900
| 71>    H       -2.93600         4.24100         2.21200
| 72>    H        0.18200         1.07200         0.00500
| 73>    H       -0.18300        -1.08000        -0.02100
| 74>    H       -5.86400        -4.96200         1.89500
| 75>    H       -4.79400         2.27200         0.13900
| 76>    H       -4.80000        -2.16000        -1.99400
| 77>    H       -6.84100        -3.58200        -1.89300
| 78>    H       -8.42800        -4.53600         0.54600
| 79>    H       -7.95600        -5.33700        -0.98100
| 80>    H       -7.45600        -6.03700         0.58400
| 81>    H       -5.28700        -0.34400         0.10000
| 82>    H       -3.78000        -3.60100         1.94700
| 83>    H        3.58700        -6.86800        -1.84300
| 84>    H       -2.27600        -4.77400        -0.05000
| 85>    H        3.71400        -3.72400         1.92600
| 86>    H        5.09200        -5.79500         1.87100
| 87>    H        6.20500        -7.32900        -0.43900
| 88>    H        5.39300        -7.91700         1.04200
| 89>    H        4.75900        -8.37300        -0.56400
| 90>    H        0.32900        -5.29000        -0.00800
| 91>    H        2.14600        -4.84200        -1.94000
| 92>    H        5.80800         4.98600        -1.95600
| 93>    H        4.78800        -2.28100        -0.18500
| 94>    H        4.86000         2.11400         1.91200
| 95>    H        6.90100         3.53100         1.77200
| 96>    H        7.38300         6.10900         0.35600
| 97>    H        8.41400         4.65200         0.43500
| 98>    H        7.92100         5.31000        -1.15000
| 99>    H        5.28300         0.33600        -0.17900
|100>    H        3.72000         3.63200        -1.96700
|101> *
|102>
|103>                          ****END OF INPUT****

CARTESIAN COORDINATES (ANGSTROEM)
---------------------------------
  C     -4.000000    5.811000    1.248000
  C      1.474000    4.041000    0.057000
  C     -2.802000    4.093000    0.049000
  C     -3.217000    4.707000   -1.143000
  C     -4.000000    5.844000   -1.101000
  C     -5.191000    7.618000    0.092000
  C      0.132000    4.307000    0.061000
  C     -0.569000    3.056000    0.047000
  C      1.649000    2.618000    0.023000
  C     -3.212000    4.676000    1.258000
  N     -4.383000    6.378000    0.082000
  N      0.388000    2.067000    0.025000
  N     -2.010000    0.395000   -0.075000
  N     -0.388000   -2.074000   -0.027000
  N      2.010000   -0.401000    0.065000
  C     -1.960000    2.861000    0.024000
  C     -2.623000    1.615000   -0.018000
  C     -5.573000   -4.329000    1.066000
  C     -4.073000    1.471000    0.056000
  C     -4.106000   -2.756000   -0.026000
  C     -4.995000   -2.757000   -1.111000
  C     -6.132000   -3.542000   -1.076000
  C     -7.651000   -5.113000    0.040000
  C     -4.324000    0.141000    0.037000
  C     -3.025000   -0.520000   -0.048000
  C     -4.422000   -3.566000    1.075000
  N     -6.407000   -4.313000    0.001000
  C     -2.867000   -1.922000   -0.040000
  C     -1.650000   -2.624000   -0.027000
  C      3.568000   -6.142000   -1.040000
  C     -1.476000   -4.049000   -0.034000
  C      2.803000   -4.099000   -0.008000
  C      3.657000   -4.384000    1.069000
  C      4.427000   -5.530000    1.059000
  C      5.245000   -7.588000    0.014000
  C     -0.134000   -4.315000   -0.022000
  C      0.568000   -3.064000   -0.027000
  C      2.775000   -5.012000   -1.074000
  N      4.376000   -6.391000    0.017000
  C      1.959000   -2.869000   -0.009000
  C      2.621000   -1.622000    0.009000
  C      5.543000    4.339000   -1.130000
  C      4.070000   -1.479000   -0.094000
  C      4.104000    2.751000   -0.021000
  C      5.027000    2.729000    1.036000
  C      6.166000    3.509000    0.978000
  C      7.619000    5.153000   -0.115000
  C      4.321000   -0.148000   -0.092000
  C      3.025000    0.514000    0.015000
  C      4.387000    3.582000   -1.115000
  C      2.866000    1.916000    0.013000
  N      6.413000    4.296000   -0.095000
  H     -4.350000    6.287000    2.156000
  H      2.274000    4.766000    0.081000
  H     -2.925000    4.310000   -2.107000
  H     -4.336000    6.357000   -1.993000
  H     -4.521000    8.479000    0.040000
  H     -5.859000    7.609000   -0.769000
  H     -5.771000    7.650000    1.015000
  H     -0.332000    5.282000    0.069000
  H     -2.936000    4.241000    2.212000
  H      0.182000    1.072000    0.005000
  H     -0.183000   -1.080000   -0.021000
  H     -5.864000   -4.962000    1.895000
  H     -4.794000    2.272000    0.139000
  H     -4.800000   -2.160000   -1.994000
  H     -6.841000   -3.582000   -1.893000
  H     -8.428000   -4.536000    0.546000
  H     -7.956000   -5.337000   -0.981000
  H     -7.456000   -6.037000    0.584000
  H     -5.287000   -0.344000    0.100000
  H     -3.780000   -3.601000    1.947000
  H      3.587000   -6.868000   -1.843000
  H     -2.276000   -4.774000   -0.050000
  H      3.714000   -3.724000    1.926000
  H      5.092000   -5.795000    1.871000
  H      6.205000   -7.329000   -0.439000
  H      5.393000   -7.917000    1.042000
  H      4.759000   -8.373000   -0.564000
  H      0.329000   -5.290000   -0.008000
  H      2.146000   -4.842000   -1.940000
  H      5.808000    4.986000   -1.956000
  H      4.788000   -2.281000   -0.185000
  H      4.860000    2.114000    1.912000
  H      6.901000    3.531000    1.772000
  H      7.383000    6.109000    0.356000
  H      8.414000    4.652000    0.435000
  H      7.921000    5.310000   -1.150000
  H      5.283000    0.336000   -0.179000
  H      3.720000    3.632000   -1.967000

 Total Charge           Charge          ....    0
 Multiplicity           Mult            ....    1
 Number of Electrons    NEL             ....  358
 Basis Dimension        Dim             ....  918

ORBITAL ENERGIES
----------------

  NO   OCC          E(Eh)            E(eV)
   0   2.0000     -15.720934      -427.7884
   1   2.0000     -15.628123      -425.2628
   2   2.0000     -15.618470      -425.0002
   3   2.0000     -15.575936      -423.8428
   4   2.0000     -15.520742      -422.3409
   5   2.0000     -15.503964      -421.8843
   6   2.0000     -15.451369      -420.4531
   7   2.0000     -15.426614      -419.7795
   8   2.0000     -11.357923      -309.0648
   9   2.0000     -11.357408      -309.0508
  10   2.0000     -11.350873      -308.8730
  11   2.0000     -11.314415      -307.8809
  12   2.0000     -11.296167      -307.3843
  13   2.0000     -11.290419      -307.2279
  14   2.0000     -11.289543      -307.2041
  15   2.0000     -11.287111      -307.1379
  16   2.0000     -11.287013      -307.1353
  17   2.0000     -11.281437      -306.9835
  18   2.0000     -11.280058      -306.9460
  19   2.0000     -11.271126      -306.7029
  20   2.0000     -11.262764      -306.4754
  21   2.0000     -11.242578      -305.9261
  22   2.0000     -11.238874      -305.8253
  23   2.0000     -11.231892      -305.6353
  24   2.0000     -11.226520      -305.4891
  25   2.0000     -11.225628      -305.4649
  26   2.0000     -11.222772      -305.3871
  27   2.0000     -11.218849      -305.2804
  28   2.0000     -11.218540      -305.2720
  29   2.0000     -11.211450      -305.0791
  30   2.0000     -11.209598      -305.0287
  31   2.0000     -11.195682      -304.6500
  32   2.0000     -11.194567      -304.6196
  33   2.0000     -11.193305      -304.5853
  34   2.0000     -11.187759      -304.4344
  35   2.0000     -11.187003      -304.4138
  36   2.0000     -11.182545      -304.2925
  37   2.0000     -11.179601      -304.2124
  38   2.0000     -11.179529      -304.2105
  39   2.0000     -11.178184      -304.1738
  40   2.0000     -11.170458      -303.9636
  41   2.0000     -11.165440      -303.8271
  42   2.0000     -11.164476      -303.8008
  43   2.0000     -11.161982      -303.7330
  44   2.0000     -11.160533      -303.6935
  45   2.0000     -11.144280      -303.2513
  46   2.0000     -11.143649      -303.2341
  47   2.0000     -11.140433      -303.1466
  48   2.0000     -11.136976      -303.0525
  49   2.0000     -11.130521      -302.8769
  50   2.0000     -11.116341      -302.4910
  51   2.0000     -11.110588      -302.3345
  52   2.0000      -1.392432       -37.8900
  53   2.0000      -1.316423       -35.8217
  54   2.0000      -1.307487       -35.5785
  55   2.0000      -1.271305       -34.5940
  56   2.0000      -1.224605       -33.3232
  57   2.0000      -1.200003       -32.6538
  58   2.0000      -1.178489       -32.0683
  59   2.0000      -1.165425       -31.7128
  60   2.0000      -1.136592       -30.9282
  61   2.0000      -1.109926       -30.2026
  62   2.0000      -1.105784       -30.0899
  63   2.0000      -1.097243       -29.8575
  64   2.0000      -1.065576       -28.9958
  65   2.0000      -1.057940       -28.7880
  66   2.0000      -1.040901       -28.3244
  67   2.0000      -1.032433       -28.0939
  68   2.0000      -1.015281       -27.6272
  69   2.0000      -1.003866       -27.3166
  70   2.0000      -0.998560       -27.1722
  71   2.0000      -0.995252       -27.0822
  72   2.0000      -0.985618       -26.8200
  73   2.0000      -0.975838       -26.5539
  74   2.0000      -0.964426       -26.2434
  75   2.0000      -0.961191       -26.1553
  76   2.0000      -0.950690       -25.8696
  77   2.0000      -0.940322       -25.5875
  78   2.0000      -0.935941       -25.4683
  79   2.0000      -0.919491       -25.0206
  80   2.0000      -0.912017       -24.8172
  81   2.0000      -0.891337       -24.2545
  82   2.0000      -0.886795       -24.1309
  83   2.0000      -0.868039       -23.6206
  84   2.0000      -0.859950       -23.4004
  85   2.0000      -0.846181       -23.0258
  86   2.0000      -0.828926       -22.5562
  87   2.0000      -0.826098       -22.4793
  88   2.0000      -0.820037       -22.3144
  89   2.0000      -0.794223       -21.6119
  90   2.0000      -0.785639       -21.3783
  91   2.0000      -0.772590       -21.0232
  92   2.0000      -0.740835       -20.1591
  93   2.0000      -0.733525       -19.9602
  94   2.0000      -0.728937       -19.8354
  95   2.0000      -0.724208       -19.7067
  96   2.0000      -0.716000       -19.4833
  97   2.0000      -0.711073       -19.3493
  98   2.0000      -0.706371       -19.2213
  99   2.0000      -0.705410       -19.1952
 100   2.0000      -0.695801       -18.9337
 101   2.0000      -0.687991       -18.7212
 102   2.0000      -0.683950       -18.6112
 103   2.0000      -0.675653       -18.3854
 104   2.0000      -0.672183       -18.2910
 105   2.0000      -0.671709       -18.2781
 106   2.0000      -0.666686       -18.1414
 107   2.0000      -0.661520       -18.0009
 108   2.0000      -0.651952       -17.7405
 109   2.0000      -0.648826       -17.6555
 110   2.0000      -0.648360       -17.6428
 111   2.0000      -0.641945       -17.4682
 112   2.0000      -0.640418       -17.4267
 113   2.0000      -0.635098       -17.2819
 114   2.0000      -0.633668       -17.2430
 115   2.0000      -0.629056       -17.1175
 116   2.0000      -0.627047       -17.0628
 117   2.0000      -0.614506       -16.7216
 118   2.0000      -0.610692       -16.6178
 119   2.0000      -0.608731       -16.5644
 120   2.0000      -0.608145       -16.5485
 121   2.0000      -0.600611       -16.3434
 122   2.0000      -0.593224       -16.1424
 123   2.0000      -0.589124       -16.0309
 124   2.0000      -0.584077       -15.8936
 125   2.0000      -0.577992       -15.7280
 126   2.0000      -0.574560       -15.6346
 127   2.0000      -0.571565       -15.5531
 128   2.0000      -0.570609       -15.5271
 129   2.0000      -0.569351       -15.4928
 130   2.0000      -0.556244       -15.1362
 131   2.0000      -0.542703       -14.7677
 132   2.0000      -0.542012       -14.7489
 133   2.0000      -0.538151       -14.6438
 134   2.0000      -0.533437       -14.5156
 135   2.0000      -0.529154       -14.3990
 136   2.0000      -0.519519       -14.1368
 137   2.0000      -0.515578       -14.0296
 138   2.0000      -0.513727       -13.9792
 139   2.0000      -0.511867       -13.9286
 140   2.0000      -0.509588       -13.8666
 141   2.0000      -0.503277       -13.6949
 142   2.0000      -0.501127       -13.6364
 143   2.0000      -0.497443       -13.5361
 144   2.0000      -0.495274       -13.4771
 145   2.0000      -0.492539       -13.4027
 146   2.0000      -0.488261       -13.2863
 147   2.0000      -0.473015       -12.8714
 148   2.0000      -0.469879       -12.7861
 149   2.0000      -0.465789       -12.6748
 150   2.0000      -0.462841       -12.5945
 151   2.0000      -0.459993       -12.5171
 152   2.0000      -0.451865       -12.2959
 153   2.0000      -0.440733       -11.9929
 154   2.0000      -0.432577       -11.7710
 155   2.0000      -0.430838       -11.7237
 156   2.0000      -0.418546       -11.3892
 157   2.0000      -0.416557       -11.3351
 158   2.0000      -0.410927       -11.1819
 159   2.0000      -0.410322       -11.1654
 160   2.0000      -0.381369       -10.3776
 161   2.0000      -0.369298       -10.0491
 162   2.0000      -0.353106        -9.6085
 163   2.0000      -0.351566        -9.5666
 164   2.0000      -0.345529        -9.4023
 165   2.0000      -0.341695        -9.2980
 166   2.0000      -0.337829        -9.1928
 167   2.0000      -0.316528        -8.6132
 168   2.0000      -0.311682        -8.4813
 169   2.0000      -0.305138        -8.3032
 170   2.0000      -0.298019        -8.1095
 171   2.0000      -0.282369        -7.6837
 172   2.0000      -0.275265        -7.4903
 173   2.0000      -0.266562        -7.2535
 174   2.0000      -0.228684        -6.2228
 175   2.0000      -0.182885        -4.9766
 176   2.0000      -0.173088        -4.7100
 177   2.0000      -0.062663        -1.7052
 178   2.0000      -0.050745        -1.3808
 179   0.0000       0.036390         0.9902
 180   0.0000       0.054122         1.4727
 181   0.0000       0.072837         1.9820
 182   0.0000       0.098668         2.6849
 183   0.0000       0.102361         2.7854

MULLIKEN ATOMIC CHARGES
-----------------------
   0 C :    0.237095
   1 N :   -0.409338
   2 C :   -0.066392
   3 N :   -0.344439
   4 C :   -0.066547
   5 N :   -0.566265
   6 C :   -0.026938
   7 N :   -0.336789
   8 C :    0.236173
   9 N :   -0.566462
  10 C :    0.102272
  11 N :   -0.440263
  12 C :   -0.057850
  13 N :   -0.452064
  14 C :    0.218720
  15 N :   -0.441827
  16 C :    0.258393
  17 C :   -0.029628
  18 C :   -0.174090
  19 C :    0.229863
  20 C :    0.185521
  21 C :   -0.066908
  22 C :   -0.092440
  23 C :   -0.069478
  24 C :    0.217686
  25 C :    0.115227
  26 C :   -0.064813
  27 C :    0.250326
  28 C :   -0.038655
  29 C :   -0.198043
  30 C :    0.219362
  31 C :    0.185753
  32 C :   -0.064291
  33 C :   -0.104540
  34 C :   -0.050486
  35 C :    0.175955
  36 C :    0.121697
  37 C :   -0.070989
  38 C :    0.245245
  39 C :   -0.065784
  40 C :   -0.205870
  41 C :    0.215767
  42 C :    0.212826
  43 C :   -0.077814
  44 C :   -0.092917
  45 C :   -0.036834
  46 C :    0.181781
  47 C :    0.116934
  48 C :   -0.082817
  49 C :    0.205754
  50 C :   -0.069173
  51 C :   -0.188492
  52 H :    0.084792
  53 H :   -0.006029
  54 H :    0.068447
  55 H :    0.083011
  56 H :    0.087645
  57 H :    0.078192
  58 H :    0.076802
  59 H :   -0.030494
  60 H :    0.070019
  61 H :    0.177644
  62 H :    0.167223
  63 H :    0.051703
  64 H :   -0.035715
  65 H :    0.039391
  66 H :    0.053964
  67 H :    0.057164
  68 H :    0.055348
  69 H :    0.058569
  70 H :   -0.011971
  71 H :    0.045922
  72 H :    0.035504
  73 H :   -0.019599
  74 H :    0.027584
  75 H :    0.034138
  76 H :    0.044571
  77 H :    0.044824
  78 H :    0.044071
  79 H :   -0.011502
  80 H :    0.027296
  81 H :    0.049767
  82 H :   -0.023032
  83 H :    0.042452
  84 H :    0.048640
  85 H :    0.053534
  86 H :    0.056257
  87 H :    0.054069
  88 H :   -0.031349
  89 H :    0.038032
Sum of atomic charges:   -0.0000000

LOEWDIN ATOMIC CHARGES
----------------------
   0 C :    0.041638
   1 N :    0.198796
   2 C :   -0.097986
   3 N :    0.170285
   4 C :    0.126645
   5 N :   -0.148998
   6 C :   -0.010280
   7 N :    0.177432
   8 C :    0.041582
   9 N :   -0.138402
  10 C :    0.041429
  11 N :    0.137873
  12 C :   -0.095899
  13 N :    0.110651
  14 C :   -0.062936
  15 N :    0.133921
  16 C :   -0.014000
  17 C :   -0.010748
  18 C :   -0.122271
  19 C :   -0.089337
  20 C :   -0.021180
  21 C :   -0.098478
  22 C :    0.030435
  23 C :   -0.035742
  24 C :    0.007356
  25 C :    0.028935
  26 C :   -0.090575
  27 C :   -0.050335
  28 C :   -0.014559
  29 C :   -0.119106
  30 C :   -0.067015
  31 C :   -0.029219
  32 C :   -0.100685
  33 C :   -0.010883
  34 C :   -0.027504
  35 C :   -0.037999
  36 C :    0.022447
  37 C :   -0.111073
  38 C :   -0.027792
  39 C :   -0.035471
  40 C :   -0.113934
  41 C :   -0.093703
  42 C :    0.001072
  43 C :   -0.115316
  44 C :    0.025663
  45 C :   -0.013495
  46 C :   -0.025936
  47 C :    0.027996
  48 C :   -0.115889
  49 C :   -0.120499
  50 C :   -0.034928
  51 C :   -0.107997
  52 H :    0.043319
  53 H :    0.008191
  54 H :    0.056345
  55 H :    0.042941
  56 H :    0.041410
  57 H :    0.040622
  58 H :    0.040773
  59 H :   -0.001112
  60 H :    0.057059
  61 H :    0.062867
  62 H :    0.057394
  63 H :    0.028141
  64 H :   -0.005689
  65 H :    0.041009
  66 H :    0.029534
  67 H :    0.025832
  68 H :    0.030719
  69 H :    0.031048
  70 H :    0.003863
  71 H :    0.045188
  72 H :    0.021147
  73 H :    0.001616
  74 H :    0.036992
  75 H :    0.020124
  76 H :    0.019183
  77 H :    0.025331
  78 H :    0.025026
  79 H :    0.005691
  80 H :    0.036032
  81 H :    0.027755
  82 H :   -0.001331
  83 H :    0.044096
  84 H :    0.026386
  85 H :    0.023928
  86 H :    0.030277
  87 H :    0.029898
  88 H :   -0.005673
  89 H :    0.040081

  Mayer bond orders larger than 0.100000
B(  0-C ,  1-N ) :   1.2141 B(  0-C , 17-C ) :   1.5047 B(  0-C , 52-H ) :   0.9665
B(  1-N ,  8-C ) :   1.2114 B(  1-N , 10-C ) :   0.9228 B(  2-C , 12-C ) :   1.5838
B(  2-C , 16-C ) :   1.2690 B(  2-C , 53-H ) :   0.9794 B(  3-N , 14-C ) :   1.1737
B(  3-N , 16-C ) :   1.2020 B(  3-N , 61-H ) :   0.8950 B(  4-C ,  6-C ) :   1.3626
B(  4-C , 17-C ) :   1.3682 B(  4-C , 18-C ) :   1.0433 B(  5-N , 19-C ) :   1.3623
B(  5-N , 27-C ) :   1.4500 B(  6-C ,  8-C ) :   1.5082 B(  6-C , 54-H ) :   0.9707
B(  7-N , 30-C ) :   1.1834 B(  7-N , 38-C ) :   1.2163 B(  7-N , 62-H ) :   0.9016
B(  8-C , 55-H ) :   0.9674 B(  9-N , 41-C ) :   1.4361 B(  9-N , 49-C ) :   1.3917
B( 10-C , 56-H ) :   0.9768 B( 10-C , 57-H ) :   0.9806 B( 10-C , 58-H ) :   0.9814
B( 11-N , 20-C ) :   1.0946 B( 11-N , 24-C ) :   1.1343 B( 11-N , 25-C ) :   0.9629
B( 12-C , 14-C ) :   1.2696 B( 12-C , 59-H ) :   0.9767 B( 13-N , 31-C ) :   1.0802
B( 13-N , 35-C ) :   1.0697 B( 13-N , 36-C ) :   0.9836 B( 14-C , 18-C ) :   1.2666
B( 15-N , 42-C ) :   1.1267 B( 15-N , 46-C ) :   1.0876 B( 15-N , 47-C ) :   0.9667
B( 16-C , 51-C ) :   1.2518 B( 17-C , 60-H ) :   0.9706 B( 18-C , 19-C ) :   1.3159
B( 19-C , 21-C ) :   1.1594 B( 20-C , 28-C ) :   1.6301 B( 20-C , 63-H ) :   0.9710
B( 21-C , 26-C ) :   1.6853 B( 21-C , 64-H ) :   0.9716 B( 22-C , 23-C ) :   1.2534
B( 22-C , 28-C ) :   1.2795 B( 22-C , 29-C ) :   1.2585 B( 23-C , 24-C ) :   1.6364
B( 23-C , 65-H ) :   0.9723 B( 24-C , 66-H ) :   0.9691 B( 25-C , 67-H ) :   0.9762
B( 25-C , 68-H ) :   0.9834 B( 25-C , 69-H ) :   0.9819 B( 26-C , 27-C ) :   1.1694
B( 26-C , 70-H ) :   0.9759 B( 27-C , 29-C ) :   1.2441 B( 28-C , 71-H ) :   0.9709
B( 29-C , 30-C ) :   1.1729 B( 30-C , 32-C ) :   1.3531 B( 31-C , 39-C ) :   1.6877
B( 31-C , 72-H ) :   0.9709 B( 32-C , 37-C ) :   1.5071 B( 32-C , 73-H ) :   0.9771
B( 33-C , 34-C ) :   1.2303 B( 33-C , 39-C ) :   1.2226 B( 33-C , 40-C ) :   1.3641
B( 34-C , 35-C ) :   1.6863 B( 34-C , 74-H ) :   0.9710 B( 35-C , 75-H ) :   0.9709
B( 36-C , 76-H ) :   0.9754 B( 36-C , 77-H ) :   0.9826 B( 36-C , 78-H ) :   0.9838
B( 37-C , 38-C ) :   1.3462 B( 37-C , 79-H ) :   0.9794 B( 38-C , 40-C ) :   1.1769
B( 39-C , 80-H ) :   0.9721 B( 40-C , 41-C ) :   1.1657 B( 41-C , 43-C ) :   1.2588
B( 42-C , 50-C ) :   1.6428 B( 42-C , 81-H ) :   0.9696 B( 43-C , 48-C ) :   1.5923
B( 43-C , 82-H ) :   0.9757 B( 44-C , 45-C ) :   1.2814 B( 44-C , 50-C ) :   1.2478
B( 44-C , 51-C ) :   1.2463 B( 45-C , 46-C ) :   1.6332 B( 45-C , 83-H ) :   0.9702
B( 46-C , 84-H ) :   0.9709 B( 47-C , 85-H ) :   0.9759 B( 47-C , 86-H ) :   0.9825
B( 47-C , 87-H ) :   0.9830 B( 48-C , 49-C ) :   1.2529 B( 48-C , 88-H ) :   0.9725
B( 49-C , 51-C ) :   1.1874 B( 50-C , 89-H ) :   0.9723

MP2 TOTAL ENERGY:    -2130.869052301 Eh
FINAL SINGLE POINT ENERGY     -2130.869052300986

DIPOLE MOMENT
-------------
                                X             Y             Z
Electronic contribution:     -4.80005       5.56095      -0.06378
Nuclear contribution   :      0.05486       0.22498       0.09019
                        -----------------------------------------
Total Dipole Moment    :     -4.74520       5.78593       0.02641
                        -----------------------------------------
Magnitude (a.u.)       :      7.48295
Magnitude (Debye)      :     19.02015

Rotational constants in cm-1:     0.001498     0.001472     0.000763
Rotational constants in MHz :    44.913312    44.125404    22.868217

                             ****ORCA TERMINATED NORMALLY****
TOTAL RUN TIME: 0 days 1 hours 21 minutes 13 seconds 127 msec
