                         Program Version 5.0.4 -  RELEASE  -
|  1> ! PAL2
|  2> ! mp2 cc-pvdz TightSCF  NoKeepInts
|  3>
|  4> %scf
|  5>   MaxCore 2000
|  6> end
|  7> %mp2
|  8>   MaxCore 2000
|  9> end
| 10> * xyz 0 1
| 11>    C       -3.55900         6.15700        -0.94700
| 12>    C        1.47400         4.04100         0.05700
| 13>    C       -2.80200         4.09300         0.04900
| 14>    C       -3.64700         4.36700         1.13500
| 15>    C       -4.41500         5.51400         1.14400
| 16>    C       -5.22700         7.59200         0.13800
| 17>    C        0.13200         4.30700         0.06100
| 18>    C       -0.56900         3.05600         0.04700
| 19>    C        1.64900         2.61800         0.02300
| 20>    C       -2.77600         5.02000        -1.00400
| 21>    N       -4.36200         6.39100         0.11500
| 22>    N        0.38800         2.06700         0.02500
| 23>    N       -2.01000         0.39500        -0.07500
| 24>    N       -0.38800        -2.07400        -0.02700
| 25>    N        2.01000        -0.40100         0.06500
| 26>    C       -1.96000         2.86100         0.02400
| 27>    C       -2.62300         1.61500        -0.01800
| 28>    C       -5.57300        -4.32900         1.06600
| 29>    C       -4.07300         1.47100         0.05600
| 30>    C       -4.10600        -2.75600        -0.02600
| 31>    C       -4.99500        -2.75700        -1.11100
| 32>    C       -6.13200        -3.54200        -1.07600
| 33>    C       -7.65100        -5.11300         0.04000
| 34>    C       -4.32400         0.14100         0.03700
| 35>    C       -3.02500        -0.52000        -0.04800
| 36>    C       -4.42200        -3.56600         1.07500
| 37>    N       -6.40700        -4.31300         0.00100
| 38>    C       -2.86700        -1.92200        -0.04000
| 39>    C       -1.65000        -2.62400        -0.02700
| 40>    C        3.56800        -6.14200        -1.04000
| 41>    C       -1.47600        -4.04900        -0.03400
| 42>    C        2.80300        -4.09900        -0.00800
| 43>    C        3.65700        -4.38400         1.06900
| 44>    C        4.42700        -5.53000         1.05900
| 45>    C        5.24500        -7.58800         0.01400
| 46>    C       -0.13400        -4.31500        -0.02200
| 47>    C        0.56800        -3.06400        -0.02700
| 48>    C        2.77500        -5.01200        -1.07400
| 49>    N        4.37600        -6.39100         0.01700
| 50>    C        1.95900        -2.86900        -0.00900
| 51>    C        2.62100        -1.62200         0.00900
| 52>    C        5.54300         4.33900        -1.13000
| 53>    C        4.07000        -1.47900        -0.09400
| 54>    C        4.10400         2.75100        -0.02100
| 55>    C        5.02700         2.72900         1.03600
| 56>    C        6.16600         3.50900         0.97800
| 57>    C        7.61900         5.15300        -0.11500
| 58>    C        4.32100        -0.14800        -0.09200
| 59>    C        3.02500         0.51400         0.01500
| 60>    C        4.38700         3.58200        -1.11500
| 61>    C        2.86600         1.91600         0.01300
| 62>    N        6.41300         4.29600        -0.09500
| 63>    H       -3.56100         6.90500        -1.73000
| 64>    H        2.27400         4.76600         0.08100
| 65>    H       -3.71800         3.68500         1.97400
| 66>    H       -5.08800         5.76300         1.95500
| 67>    H       -6.20600         7.33300        -0.27000
| 68>    H       -5.32800         7.93300         1.16800
| 69>    H       -4.76200         8.37000        -0.46900
| 70>    H       -0.33200         5.28200         0.06900
| 71>    H       -2.13300         4.87300        -1.86500
| 72>    H        0.18200         1.07200         0.00500
| 73>    H       -0.18300        -1.08000        -0.02100
| 74>    H       -5.86400        -4.96200         1.89500
| 75>    H       -4.79400         2.27200         0.13900
| 76>    H       -4.80000        -2.16000        -1.99400
| 77>    H       -6.84100        -3.58200        -1.89300
| 78>    H       -8.42800        -4.53600         0.54600
| 79>    H       -7.95600        -5.33700        -0.98100
| 80>    H       -7.45600        -6.03700         0.58400
| 81>    H       -5.28700        -0.34400         0.10000
| 82>    H       -3.78000        -3.60100         1.94700
| 83>    H        3.58700        -6.86800        -1.84300
| 84>    H       -2.27600        -4.77400        -0.05000
| 85>    H        3.71400        -3.72400         1.92600
| 86>    H        5.09200        -5.79500         1.87100
| 87>    H        6.20500        -7.32900        -0.43900
| 88>    H        5.39300        -7.91700         1.04200
| 89>    H        4.75900        -8.37300        -0.56400
| 90>    H        0.32900        -5.29000        -0.00800
| 91>    H        2.14600        -4.84200        -1.94000
| 92>    H        5.80800         4.98600        -1.95600
| 93>    H        4.78800        -2.28100        -0.18500
| 94>    H        4.86000         2.11400         1.91200
| 95>    H        6.90100         3.53100         1.77200
| 96>    H        7.38300         6.10900         0.35600
| 97>    H        8.41400         4.65200         0.43500
| 98>    H        7.92100         5.31000        -1.15000
| 99>    H        5.28300         0.33600        -0.17900
|100>    H        3.72000         3.63200        -1.96700
|101> *
|102>
|103>                          ****END OF INPUT****

CARTESIAN COORDINATES (ANGSTROEM)
---------------------------------
  C     -3.559000    6.157000   -0.947000
  C      1.474000    4.041000    0.057000
  C     -2.802000    4.093000    0.049000
  C     -3.647000    4.367000    1.135000
  C     -4.415000    5.514000    1.144000
  C     -5.227000    7.592000    0.138000
  C      0.132000    4.307000    0.061000
  C     -0.569000    3.056000    0.047000
  C      1.649000    2.618000    0.023000
  C     -2.776000    5.020000   -1.004000
  N     -4.362000    6.391000    0.115000
  N      0.388000    2.067000    0.025000
  N     -2.010000    0.395000   -0.075000
  N     -0.388000   -2.074000   -0.027000
  N      2.010000   -0.401000    0.065000
  C     -1.960000    2.861000    0.024000
  C     -2.623000    1.615000   -0.018000
  C     -5.573000   -4.329000    1.066000
  C     -4.073000    1.471000    0.056000
  C     -4.106000   -2.756000   -0.026000
  C     -4.995000   -2.757000   -1.111000
  C     -6.132000   -3.542000   -1.076000
  C     -7.651000   -5.113000    0.040000
  C     -4.324000    0.141000    0.037000
  C     -3.025000   -0.520000   -0.048000
  C     -4.422000   -3.566000    1.075000
  N     -6.407000   -4.313000    0.001000
  C     -2.867000   -1.922000   -0.040000
  C     -1.650000   -2.624000   -0.027000
  C      3.568000   -6.142000   -1.040000
  C     -1.476000   -4.049000   -0.034000
  C      2.803000   -4.099000   -0.008000
  C      3.657000   -4.384000    1.069000
  C      4.427000   -5.530000    1.059000
  C      5.245000   -7.588000    0.014000
  C     -0.134000   -4.315000   -0.022000
  C      0.568000   -3.064000   -0.027000
  C      2.775000   -5.012000   -1.074000
  N      4.376000   -6.391000    0.017000
  C      1.959000   -2.869000   -0.009000
  C      2.621000   -1.622000    0.009000
  C      5.543000    4.339000   -1.130000
  C      4.070000   -1.479000   -0.094000
  C      4.104000    2.751000   -0.021000
  C      5.027000    2.729000    1.036000
  C      6.166000    3.509000    0.978000
  C      7.619000    5.153000   -0.115000
  C      4.321000   -0.148000   -0.092000
  C      3.025000    0.514000    0.015000
  C      4.387000    3.582000   -1.115000
  C      2.866000    1.916000    0.013000
  N      6.413000    4.296000   -0.095000
  H     -3.561000    6.905000   -1.730000
  H      2.274000    4.766000    0.081000
  H     -3.718000    3.685000    1.974000
  H     -5.088000    5.763000    1.955000
  H     -6.206000    7.333000   -0.270000
  H     -5.328000    7.933000    1.168000
  H     -4.762000    8.370000   -0.469000
  H     -0.332000    5.282000    0.069000
  H     -2.133000    4.873000   -1.865000
  H      0.182000    1.072000    0.005000
  H     -0.183000   -1.080000   -0.021000
  H     -5.864000   -4.962000    1.895000
  H     -4.794000    2.272000    0.139000
  H     -4.800000   -2.160000   -1.994000
  H     -6.841000   -3.582000   -1.893000
  H     -8.428000   -4.536000    0.546000
  H     -7.956000   -5.337000   -0.981000
  H     -7.456000   -6.037000    0.584000
  H     -5.287000   -0.344000    0.100000
  H     -3.780000   -3.601000    1.947000
  H      3.587000   -6.868000   -1.843000
  H     -2.276000   -4.774000   -0.050000
  H      3.714000   -3.724000    1.926000
  H      5.092000   -5.795000    1.871000
  H      6.205000   -7.329000   -0.439000
  H      5.393000   -7.917000    1.042000
  H      4.759000   -8.373000   -0.564000
  H      0.329000   -5.290000   -0.008000
  H      2.146000   -4.842000   -1.940000
  H      5.808000    4.986000   -1.956000
  H      4.788000   -2.281000   -0.185000
  H      4.860000    2.114000    1.912000
  H      6.901000    3.531000    1.772000
  H      7.383000    6.109000    0.356000
  H      8.414000    4.652000    0.435000
  H      7.921000    5.310000   -1.150000
  H      5.283000    0.336000   -0.179000
  H      3.720000    3.632000   -1.967000

 Total Charge           Charge          ....    0
 Multiplicity           Mult            ....    1
 Number of Electrons    NEL             ....  358
 Basis Dimension        Dim             ....  918

ORBITAL ENERGIES
----------------

  NO   OCC          E(Eh)            E(eV)
   0   2.0000     -15.643907      -425.6923
   1   2.0000     -15.638105      -425.5345
   2   2.0000     -15.628610      -425.2761
   3   2.0000     -15.623548      -425.1384
   4   2.0000     -15.517128      -422.2425
   5   2.0000     -15.515214      -422.1904
   6   2.0000     -15.445084      -420.2821
   7   2.0000     -15.440233      -420.1501
   8   2.0000     -11.305676      -307.6431
   9   2.0000     -11.301837      -307.5386
  10   2.0000     -11.299068      -307.4633
  11   2.0000     -11.297754      -307.4275
  12   2.0000     -11.295858      -307.3759
  13   2.0000     -11.293965      -307.3244
  14   2.0000     -11.292924      -307.2961
  15   2.0000     -11.292640      -307.2884
  16   2.0000     -11.286453      -307.1200
  17   2.0000     -11.284327      -307.0621
  18   2.0000     -11.282623      -307.0158
  19   2.0000     -11.280178      -306.9492
  20   2.0000     -11.247247      -306.0531
  21   2.0000     -11.241335      -305.8923
  22   2.0000     -11.237556      -305.7895
  23   2.0000     -11.236935      -305.7726
  24   2.0000     -11.233375      -305.6757
  25   2.0000     -11.232851      -305.6614
  26   2.0000     -11.232560      -305.6535
  27   2.0000     -11.228683      -305.5480
  28   2.0000     -11.226505      -305.4887
  29   2.0000     -11.226286      -305.4828
  30   2.0000     -11.222973      -305.3926
  31   2.0000     -11.222123      -305.3695
  32   2.0000     -11.197934      -304.7113
  33   2.0000     -11.197468      -304.6986
  34   2.0000     -11.194816      -304.6264
  35   2.0000     -11.194669      -304.6224
  36   2.0000     -11.175602      -304.1036
  37   2.0000     -11.174964      -304.0862
  38   2.0000     -11.172502      -304.0192
  39   2.0000     -11.169498      -303.9375
  40   2.0000     -11.166627      -303.8594
  41   2.0000     -11.165887      -303.8392
  42   2.0000     -11.165445      -303.8272
  43   2.0000     -11.163342      -303.7700
  44   2.0000     -11.157557      -303.6126
  45   2.0000     -11.155267      -303.5502
  46   2.0000     -11.154263      -303.5229
  47   2.0000     -11.151555      -303.4492
  48   2.0000     -11.147192      -303.3305
  49   2.0000     -11.145725      -303.2906
  50   2.0000     -11.137207      -303.0588
  51   2.0000     -11.135619      -303.0156
  52   2.0000      -1.329813       -36.1861
  53   2.0000      -1.324691       -36.0467
  54   2.0000      -1.316389       -35.8208
  55   2.0000      -1.312309       -35.7097
  56   2.0000      -1.215794       -33.0834
  57   2.0000      -1.212456       -32.9926
  58   2.0000      -1.162974       -31.6461
  59   2.0000      -1.154072       -31.4039
  60   2.0000      -1.117804       -30.4170
  61   2.0000      -1.111755       -30.2524
  62   2.0000      -1.106184       -30.1008
  63   2.0000      -1.100891       -29.9568
  64   2.0000      -1.053494       -28.6670
  65   2.0000      -1.048478       -28.5305
  66   2.0000      -1.040932       -28.3252
  67   2.0000      -1.037193       -28.2235
  68   2.0000      -1.026410       -27.9300
  69   2.0000      -1.010979       -27.5101
  70   2.0000      -1.007402       -27.4128
  71   2.0000      -0.997931       -27.1551
  72   2.0000      -0.979582       -26.6558
  73   2.0000      -0.976315       -26.5669
  74   2.0000      -0.968047       -26.3419
  75   2.0000      -0.961834       -26.1728
  76   2.0000      -0.951165       -25.8825
  77   2.0000      -0.945411       -25.7259
  78   2.0000      -0.936881       -25.4938
  79   2.0000      -0.923044       -25.1173
  80   2.0000      -0.892128       -24.2761
  81   2.0000      -0.879720       -23.9384
  82   2.0000      -0.875250       -23.8168
  83   2.0000      -0.868230       -23.6257
  84   2.0000      -0.864240       -23.5172
  85   2.0000      -0.856789       -23.3144
  86   2.0000      -0.850980       -23.1563
  87   2.0000      -0.841387       -22.8953
  88   2.0000      -0.822037       -22.3688
  89   2.0000      -0.797710       -21.7068
  90   2.0000      -0.797565       -21.7028
  91   2.0000      -0.739052       -20.1106
  92   2.0000      -0.729093       -19.8396
  93   2.0000      -0.727325       -19.7915
  94   2.0000      -0.722697       -19.6656
  95   2.0000      -0.717478       -19.5236
  96   2.0000      -0.711036       -19.3483
  97   2.0000      -0.710244       -19.3267
  98   2.0000      -0.697777       -18.9875
  99   2.0000      -0.690808       -18.7979
 100   2.0000      -0.684573       -18.6282
 101   2.0000      -0.681797       -18.5526
 102   2.0000      -0.679392       -18.4872
 103   2.0000      -0.672499       -18.2996
 104   2.0000      -0.668632       -18.1944
 105   2.0000      -0.667311       -18.1585
 106   2.0000      -0.661684       -18.0053
 107   2.0000      -0.660783       -17.9808
 108   2.0000      -0.657878       -17.9018
 109   2.0000      -0.655224       -17.8296
 110   2.0000      -0.651564       -17.7300
 111   2.0000      -0.649682       -17.6787
 112   2.0000      -0.648481       -17.6461
 113   2.0000      -0.645031       -17.5522
 114   2.0000      -0.633819       -17.2471
 115   2.0000      -0.623641       -16.9701
 116   2.0000      -0.619925       -16.8690
 117   2.0000      -0.615453       -16.7473
 118   2.0000      -0.610720       -16.6185
 119   2.0000      -0.608528       -16.5589
 120   2.0000      -0.607310       -16.5258
 121   2.0000      -0.604878       -16.4596
 122   2.0000      -0.601907       -16.3787
 123   2.0000      -0.594570       -16.1791
 124   2.0000      -0.587737       -15.9931
 125   2.0000      -0.584175       -15.8962
 126   2.0000      -0.578172       -15.7328
 127   2.0000      -0.574975       -15.6459
 128   2.0000      -0.568634       -15.4733
 129   2.0000      -0.564183       -15.3522
 130   2.0000      -0.553277       -15.0554
 131   2.0000      -0.543866       -14.7993
 132   2.0000      -0.540310       -14.7026
 133   2.0000      -0.535121       -14.5614
 134   2.0000      -0.532839       -14.4993
 135   2.0000      -0.529589       -14.4108
 136   2.0000      -0.524058       -14.2603
 137   2.0000      -0.523319       -14.2402
 138   2.0000      -0.518476       -14.1084
 139   2.0000      -0.515164       -14.0183
 140   2.0000      -0.509472       -13.8634
 141   2.0000      -0.505969       -13.7681
 142   2.0000      -0.503458       -13.6998
 143   2.0000      -0.502386       -13.6706
 144   2.0000      -0.498224       -13.5574
 145   2.0000      -0.496842       -13.5198
 146   2.0000      -0.496084       -13.4991
 147   2.0000      -0.494133       -13.4460
 148   2.0000      -0.490167       -13.3381
 149   2.0000      -0.467868       -12.7313
 150   2.0000      -0.460042       -12.5184
 151   2.0000      -0.451428       -12.2840
 152   2.0000      -0.446286       -12.1441
 153   2.0000      -0.445921       -12.1341
 154   2.0000      -0.444204       -12.0874
 155   2.0000      -0.439654       -11.9636
 156   2.0000      -0.434846       -11.8328
 157   2.0000      -0.429537       -11.6883
 158   2.0000      -0.391955       -10.6657
 159   2.0000      -0.379997       -10.3402
 160   2.0000      -0.376317       -10.2401
 161   2.0000      -0.373256       -10.1568
 162   2.0000      -0.362780        -9.8717
 163   2.0000      -0.358934        -9.7671
 164   2.0000      -0.352572        -9.5940
 165   2.0000      -0.349514        -9.5108
 166   2.0000      -0.337645        -9.1878
 167   2.0000      -0.332829        -9.0567
 168   2.0000      -0.326478        -8.8839
 169   2.0000      -0.300175        -8.1682
 170   2.0000      -0.292697        -7.9647
 171   2.0000      -0.289735        -7.8841
 172   2.0000      -0.287104        -7.8125
 173   2.0000      -0.256273        -6.9735
 174   2.0000      -0.245906        -6.6914
 175   2.0000      -0.187094        -5.0911
 176   2.0000      -0.176884        -4.8133
 177   2.0000      -0.064471        -1.7544
 178   2.0000      -0.052997        -1.4421
 179   0.0000       0.032240         0.8773
 180   0.0000       0.069842         1.9005
 181   0.0000       0.092354         2.5131
 182   0.0000       0.095499         2.5987
 183   0.0000       0.130971         3.5639

MULLIKEN ATOMIC CHARGES
-----------------------
   0 C :    0.212565
   1 N :   -0.436754
   2 C :   -0.064806
   3 N :   -0.338583
   4 C :   -0.069212
   5 N :   -0.564304
   6 C :   -0.055276
   7 N :   -0.337478
   8 C :    0.210346
   9 N :   -0.563867
  10 C :    0.112299
  11 N :   -0.437595
  12 C :   -0.068071
  13 N :   -0.442289
  14 C :    0.239285
  15 N :   -0.440516
  16 C :    0.238136
  17 C :   -0.060510
  18 C :   -0.209024
  19 C :    0.240160
  20 C :    0.204607
  21 C :   -0.080674
  22 C :   -0.086522
  23 C :   -0.052338
  24 C :    0.208775
  25 C :    0.113889
  26 C :   -0.071082
  27 C :    0.228618
  28 C :   -0.049685
  29 C :   -0.188619
  30 C :    0.232553
  31 C :    0.205249
  32 C :   -0.066205
  33 C :   -0.086032
  34 C :   -0.050897
  35 C :    0.199221
  36 C :    0.115616
  37 C :   -0.067631
  38 C :    0.237858
  39 C :   -0.061663
  40 C :   -0.193029
  41 C :    0.220926
  42 C :    0.205959
  43 C :   -0.073981
  44 C :   -0.088589
  45 C :   -0.049316
  46 C :    0.200174
  47 C :    0.115604
  48 C :   -0.075742
  49 C :    0.222539
  50 C :   -0.055761
  51 C :   -0.188553
  52 H :    0.059448
  53 H :   -0.012841
  54 H :    0.051818
  55 H :    0.058659
  56 H :    0.064219
  57 H :    0.060754
  58 H :    0.059433
  59 H :   -0.015809
  60 H :    0.049200
  61 H :    0.173871
  62 H :    0.171653
  63 H :    0.056200
  64 H :   -0.022319
  65 H :    0.046477
  66 H :    0.057600
  67 H :    0.062139
  68 H :    0.058045
  69 H :    0.059150
  70 H :   -0.022700
  71 H :    0.047927
  72 H :    0.052195
  73 H :   -0.015938
  74 H :    0.042806
  75 H :    0.051237
  76 H :    0.058431
  77 H :    0.055449
  78 H :    0.054728
  79 H :   -0.013667
  80 H :    0.043163
  81 H :    0.053293
  82 H :   -0.022939
  83 H :    0.043754
  84 H :    0.053065
  85 H :    0.058621
  86 H :    0.056741
  87 H :    0.056499
  88 H :   -0.023600
  89 H :    0.043465
Sum of atomic charges:   -0.0000000

LOEWDIN ATOMIC CHARGES
----------------------
   0 C :    0.003567
   1 N :    0.147278
   2 C :   -0.100481
   3 N :    0.177339
   4 C :    0.048963
   5 N :   -0.140990
   6 C :   -0.019160
   7 N :    0.177825
   8 C :    0.002463
   9 N :   -0.139167
  10 C :    0.031049
  11 N :    0.144319
  12 C :   -0.101825
  13 N :    0.135540
  14 C :   -0.047068
  15 N :    0.138723
  16 C :   -0.040821
  17 C :   -0.022667
  18 C :   -0.110835
  19 C :   -0.087011
  20 C :   -0.002488
  21 C :   -0.104655
  22 C :    0.042835
  23 C :   -0.022537
  24 C :    0.001448
  25 C :    0.030340
  26 C :   -0.100872
  27 C :   -0.086416
  28 C :   -0.019659
  29 C :   -0.110922
  30 C :   -0.049525
  31 C :   -0.005254
  32 C :   -0.101116
  33 C :    0.030223
  34 C :   -0.021765
  35 C :   -0.010457
  36 C :    0.028249
  37 C :   -0.103232
  38 C :   -0.040087
  39 C :   -0.026886
  40 C :   -0.110195
  41 C :   -0.092063
  42 C :   -0.003294
  43 C :   -0.106031
  44 C :    0.034432
  45 C :   -0.020246
  46 C :   -0.008138
  47 C :    0.029269
  48 C :   -0.105854
  49 C :   -0.095488
  50 C :   -0.025156
  51 C :   -0.107863
  52 H :    0.031825
  53 H :    0.004892
  54 H :    0.046589
  55 H :    0.031818
  56 H :    0.029044
  57 H :    0.032373
  58 H :    0.032688
  59 H :    0.003281
  60 H :    0.045626
  61 H :    0.061106
  62 H :    0.059855
  63 H :    0.030759
  64 H :   -0.001901
  65 H :    0.044955
  66 H :    0.030666
  67 H :    0.028225
  68 H :    0.031986
  69 H :    0.031478
  70 H :   -0.001237
  71 H :    0.045479
  72 H :    0.028768
  73 H :    0.003308
  74 H :    0.043265
  75 H :    0.028072
  76 H :    0.026281
  77 H :    0.030290
  78 H :    0.029984
  79 H :    0.004489
  80 H :    0.042849
  81 H :    0.028950
  82 H :   -0.001546
  83 H :    0.043974
  84 H :    0.028963
  85 H :    0.026362
  86 H :    0.030633
  87 H :    0.031056
  88 H :   -0.001959
  89 H :    0.043118

  Mayer bond orders larger than 0.100000
B(  0-C ,  1-N ) :   1.1309 B(  0-C , 17-C ) :   1.6168 B(  0-C , 52-H ) :   0.9692
B(  1-N ,  8-C ) :   1.1262 B(  1-N , 10-C ) :   0.9559 B(  2-C , 12-C ) :   1.5420
B(  2-C , 16-C ) :   1.3169 B(  2-C , 53-H ) :   0.9780 B(  3-N , 14-C ) :   1.1977
B(  3-N , 16-C ) :   1.1973 B(  3-N , 61-H ) :   0.8976 B(  4-C ,  6-C ) :   1.2794
B(  4-C , 17-C ) :   1.2820 B(  4-C , 18-C ) :   1.2337 B(  5-N , 19-C ) :   1.4085
B(  5-N , 27-C ) :   1.4133 B(  6-C ,  8-C ) :   1.6189 B(  6-C , 54-H ) :   0.9708
B(  7-N , 30-C ) :   1.1926 B(  7-N , 38-C ) :   1.2040 B(  7-N , 62-H ) :   0.8990
B(  8-C , 55-H ) :   0.9695 B(  9-N , 41-C ) :   1.4153 B(  9-N , 49-C ) :   1.4090
B( 10-C , 56-H ) :   0.9764 B( 10-C , 57-H ) :   0.9816 B( 10-C , 58-H ) :   0.9833
B( 11-N , 20-C ) :   1.1208 B( 11-N , 24-C ) :   1.1265 B( 11-N , 25-C ) :   0.9584
B( 12-C , 14-C ) :   1.3169 B( 12-C , 59-H ) :   0.9771 B( 13-N , 31-C ) :   1.1142
B( 13-N , 35-C ) :   1.1078 B( 13-N , 36-C ) :   0.9645 B( 14-C , 18-C ) :   1.2048
B( 15-N , 42-C ) :   1.1193 B( 15-N , 46-C ) :   1.1107 B( 15-N , 47-C ) :   0.9623
B( 16-C , 51-C ) :   1.2061 B( 17-C , 60-H ) :   0.9714 B( 18-C , 19-C ) :   1.2306
B( 19-C , 21-C ) :   1.2011 B( 20-C , 28-C ) :   1.6230 B( 20-C , 63-H ) :   0.9704
B( 21-C , 26-C ) :   1.6499 B( 21-C , 64-H ) :   0.9720 B( 22-C , 23-C ) :   1.2793
B( 22-C , 28-C ) :   1.2765 B( 22-C , 29-C ) :   1.2345 B( 23-C , 24-C ) :   1.6203
B( 23-C , 65-H ) :   0.9711 B( 24-C , 66-H ) :   0.9690 B( 25-C , 67-H ) :   0.9762
B( 25-C , 68-H ) :   0.9830 B( 25-C , 69-H ) :   0.9821 B( 26-C , 27-C ) :   1.2030
B( 26-C , 70-H ) :   0.9737 B( 27-C , 29-C ) :   1.2336 B( 28-C , 71-H ) :   0.9713
B( 29-C , 30-C ) :   1.2013 B( 30-C , 32-C ) :   1.3228 B( 31-C , 39-C ) :   1.6418
B( 31-C , 72-H ) :   0.9699 B( 32-C , 37-C ) :   1.5352 B( 32-C , 73-H ) :   0.9776
B( 33-C , 34-C ) :   1.2656 B( 33-C , 39-C ) :   1.2594 B( 33-C , 40-C ) :   1.2718
B( 34-C , 35-C ) :   1.6393 B( 34-C , 74-H ) :   0.9706 B( 35-C , 75-H ) :   0.9699
B( 36-C , 76-H ) :   0.9761 B( 36-C , 77-H ) :   0.9822 B( 36-C , 78-H ) :   0.9832
B( 37-C , 38-C ) :   1.3233 B( 37-C , 79-H ) :   0.9780 B( 38-C , 40-C ) :   1.1996
B( 39-C , 80-H ) :   0.9716 B( 40-C , 41-C ) :   1.2092 B( 41-C , 43-C ) :   1.2205
B( 42-C , 50-C ) :   1.6334 B( 42-C , 81-H ) :   0.9696 B( 43-C , 48-C ) :   1.6312
B( 43-C , 82-H ) :   0.9742 B( 44-C , 45-C ) :   1.2745 B( 44-C , 50-C ) :   1.2648
B( 44-C , 51-C ) :   1.2511 B( 45-C , 46-C ) :   1.6308 B( 45-C , 83-H ) :   0.9709
B( 46-C , 84-H ) :   0.9703 B( 47-C , 85-H ) :   0.9761 B( 47-C , 86-H ) :   0.9827
B( 47-C , 87-H ) :   0.9826 B( 48-C , 49-C ) :   1.2188 B( 48-C , 88-H ) :   0.9736
B( 49-C , 51-C ) :   1.2174 B( 50-C , 89-H ) :   0.9715

MP2 TOTAL ENERGY:    -2130.909632020 Eh
FINAL SINGLE POINT ENERGY     -2130.909632019665

DIPOLE MOMENT
-------------
                                X             Y             Z
Electronic contribution:     -0.98019       0.45512      -0.14358
Nuclear contribution   :     -0.04472       0.15642       0.18033
                        -----------------------------------------
Total Dipole Moment    :     -1.02491       0.61154       0.03675
                        -----------------------------------------
Magnitude (a.u.)       :      1.19406
Magnitude (Debye)      :      3.03505

Rotational constants in cm-1:     0.001499     0.001474     0.000762
Rotational constants in MHz :    44.934640    44.174465    22.850501

                             ****ORCA TERMINATED NORMALLY****
TOTAL RUN TIME: 0 days 1 hours 28 minutes 54 seconds 233 msec
