                         Program Version 5.0.4 -  RELEASE  -
|  1> ! PAL2
|  2> ! mp2 cc-pvdz TightSCF  NoKeepInts
|  3>
|  4> %scf
|  5>   MaxCore 2000
|  6> end
|  7> %mp2
|  8>   MaxCore 2000
|  9> end
| 10> * xyz 0 1
| 11>    C       -3.03600         6.49500         0.02100
| 12>    C        1.47400         4.04100         0.05700
| 13>    C       -2.80200         4.09300         0.04900
| 14>    C       -4.20000         4.00900         0.14400
| 15>    C       -4.96300         5.15900         0.17100
| 16>    C       -5.22800         7.59200         0.10600
| 17>    C        0.13200         4.30700         0.06100
| 18>    C       -0.56900         3.05600         0.04700
| 19>    C        1.64900         2.61800         0.02300
| 20>    C       -2.23000         5.37300        -0.01600
| 21>    N       -4.38000         6.37900         0.11300
| 22>    N        0.38800         2.06700         0.02500
| 23>    N       -2.01000         0.39500        -0.07500
| 24>    N       -0.38800        -2.07400        -0.02700
| 25>    N        2.01000        -0.40100         0.06500
| 26>    C       -1.96000         2.86100         0.02400
| 27>    C       -2.62300         1.61500        -0.01800
| 28>    C       -5.57300        -4.32900         1.06600
| 29>    C       -4.07300         1.47100         0.05600
| 30>    C       -4.10600        -2.75600        -0.02600
| 31>    C       -4.99500        -2.75700        -1.11100
| 32>    C       -6.13200        -3.54200        -1.07600
| 33>    C       -7.65100        -5.11300         0.04000
| 34>    C       -4.32400         0.14100         0.03700
| 35>    C       -3.02500        -0.52000        -0.04800
| 36>    C       -4.42200        -3.56600         1.07500
| 37>    N       -6.40700        -4.31300         0.00100
| 38>    C       -2.86700        -1.92200        -0.04000
| 39>    C       -1.65000        -2.62400        -0.02700
| 40>    C        3.56800        -6.14200        -1.04000
| 41>    C       -1.47600        -4.04900        -0.03400
| 42>    C        2.80300        -4.09900        -0.00800
| 43>    C        3.65700        -4.38400         1.06900
| 44>    C        4.42700        -5.53000         1.05900
| 45>    C        5.24500        -7.58800         0.01400
| 46>    C       -0.13400        -4.31500        -0.02200
| 47>    C        0.56800        -3.06400        -0.02700
| 48>    C        2.77500        -5.01200        -1.07400
| 49>    N        4.37600        -6.39100         0.01700
| 50>    C        1.95900        -2.86900        -0.00900
| 51>    C        2.62100        -1.62200         0.00900
| 52>    C        5.54300         4.33900        -1.13000
| 53>    C        4.07000        -1.47900        -0.09400
| 54>    C        4.10400         2.75100        -0.02100
| 55>    C        5.02700         2.72900         1.03600
| 56>    C        6.16600         3.50900         0.97800
| 57>    C        7.61900         5.15300        -0.11500
| 58>    C        4.32100        -0.14800        -0.09200
| 59>    C        3.02500         0.51400         0.01500
| 60>    C        4.38700         3.58200        -1.11500
| 61>    C        2.86600         1.91600         0.01300
| 62>    N        6.41300         4.29600        -0.09500
| 63>    H       -2.63800         7.50100        -0.01400
| 64>    H        2.27400         4.76600         0.08100
| 65>    H       -4.70100         3.05000         0.18700
| 66>    H       -6.04300         5.14500         0.23400
| 67>    H       -5.53500         7.80500        -0.92100
| 68>    H       -6.10400         7.41100         0.72900
| 69>    H       -4.65100         8.42600         0.50500
| 70>    H       -0.33200         5.28200         0.06900
| 71>    H       -1.15600         5.50400        -0.07600
| 72>    H        0.18200         1.07200         0.00500
| 73>    H       -0.18300        -1.08000        -0.02100
| 74>    H       -5.86400        -4.96200         1.89500
| 75>    H       -4.79400         2.27200         0.13900
| 76>    H       -4.80000        -2.16000        -1.99400
| 77>    H       -6.84100        -3.58200        -1.89300
| 78>    H       -8.42800        -4.53600         0.54600
| 79>    H       -7.95600        -5.33700        -0.98100
| 80>    H       -7.45600        -6.03700         0.58400
| 81>    H       -5.28700        -0.34400         0.10000
| 82>    H       -3.78000        -3.60100         1.94700
| 83>    H        3.58700        -6.86800        -1.84300
| 84>    H       -2.27600        -4.77400        -0.05000
| 85>    H        3.71400        -3.72400         1.92600
| 86>    H        5.09200        -5.79500         1.87100
| 87>    H        6.20500        -7.32900        -0.43900
| 88>    H        5.39300        -7.91700         1.04200
| 89>    H        4.75900        -8.37300        -0.56400
| 90>    H        0.32900        -5.29000        -0.00800
| 91>    H        2.14600        -4.84200        -1.94000
| 92>    H        5.80800         4.98600        -1.95600
| 93>    H        4.78800        -2.28100        -0.18500
| 94>    H        4.86000         2.11400         1.91200
| 95>    H        6.90100         3.53100         1.77200
| 96>    H        7.38300         6.10900         0.35600
| 97>    H        8.41400         4.65200         0.43500
| 98>    H        7.92100         5.31000        -1.15000
| 99>    H        5.28300         0.33600        -0.17900
|100>    H        3.72000         3.63200        -1.96700
|101> *
|102>
|103>                          ****END OF INPUT****

CARTESIAN COORDINATES (ANGSTROEM)
---------------------------------
  C     -3.036000    6.495000    0.021000
  C      1.474000    4.041000    0.057000
  C     -2.802000    4.093000    0.049000
  C     -4.200000    4.009000    0.144000
  C     -4.963000    5.159000    0.171000
  C     -5.228000    7.592000    0.106000
  C      0.132000    4.307000    0.061000
  C     -0.569000    3.056000    0.047000
  C      1.649000    2.618000    0.023000
  C     -2.230000    5.373000   -0.016000
  N     -4.380000    6.379000    0.113000
  N      0.388000    2.067000    0.025000
  N     -2.010000    0.395000   -0.075000
  N     -0.388000   -2.074000   -0.027000
  N      2.010000   -0.401000    0.065000
  C     -1.960000    2.861000    0.024000
  C     -2.623000    1.615000   -0.018000
  C     -5.573000   -4.329000    1.066000
  C     -4.073000    1.471000    0.056000
  C     -4.106000   -2.756000   -0.026000
  C     -4.995000   -2.757000   -1.111000
  C     -6.132000   -3.542000   -1.076000
  C     -7.651000   -5.113000    0.040000
  C     -4.324000    0.141000    0.037000
  C     -3.025000   -0.520000   -0.048000
  C     -4.422000   -3.566000    1.075000
  N     -6.407000   -4.313000    0.001000
  C     -2.867000   -1.922000   -0.040000
  C     -1.650000   -2.624000   -0.027000
  C      3.568000   -6.142000   -1.040000
  C     -1.476000   -4.049000   -0.034000
  C      2.803000   -4.099000   -0.008000
  C      3.657000   -4.384000    1.069000
  C      4.427000   -5.530000    1.059000
  C      5.245000   -7.588000    0.014000
  C     -0.134000   -4.315000   -0.022000
  C      0.568000   -3.064000   -0.027000
  C      2.775000   -5.012000   -1.074000
  N      4.376000   -6.391000    0.017000
  C      1.959000   -2.869000   -0.009000
  C      2.621000   -1.622000    0.009000
  C      5.543000    4.339000   -1.130000
  C      4.070000   -1.479000   -0.094000
  C      4.104000    2.751000   -0.021000
  C      5.027000    2.729000    1.036000
  C      6.166000    3.509000    0.978000
  C      7.619000    5.153000   -0.115000
  C      4.321000   -0.148000   -0.092000
  C      3.025000    0.514000    0.015000
  C      4.387000    3.582000   -1.115000
  C      2.866000    1.916000    0.013000
  N      6.413000    4.296000   -0.095000
  H     -2.638000    7.501000   -0.014000
  H      2.274000    4.766000    0.081000
  H     -4.701000    3.050000    0.187000
  H     -6.043000    5.145000    0.234000
  H     -5.535000    7.805000   -0.921000
  H     -6.104000    7.411000    0.729000
  H     -4.651000    8.426000    0.505000
  H     -0.332000    5.282000    0.069000
  H     -1.156000    5.504000   -0.076000
  H      0.182000    1.072000    0.005000
  H     -0.183000   -1.080000   -0.021000
  H     -5.864000   -4.962000    1.895000
  H     -4.794000    2.272000    0.139000
  H     -4.800000   -2.160000   -1.994000
  H     -6.841000   -3.582000   -1.893000
  H     -8.428000   -4.536000    0.546000
  H     -7.956000   -5.337000   -0.981000
  H     -7.456000   -6.037000    0.584000
  H     -5.287000   -0.344000    0.100000
  H     -3.780000   -3.601000    1.947000
  H      3.587000   -6.868000   -1.843000
  H     -2.276000   -4.774000   -0.050000
  H      3.714000   -3.724000    1.926000
  H      5.092000   -5.795000    1.871000
  H      6.205000   -7.329000   -0.439000
  H      5.393000   -7.917000    1.042000
  H      4.759000   -8.373000   -0.564000
  H      0.329000   -5.290000   -0.008000
  H      2.146000   -4.842000   -1.940000
  H      5.808000    4.986000   -1.956000
  H      4.788000   -2.281000   -0.185000
  H      4.860000    2.114000    1.912000
  H      6.901000    3.531000    1.772000
  H      7.383000    6.109000    0.356000
  H      8.414000    4.652000    0.435000
  H      7.921000    5.310000   -1.150000
  H      5.283000    0.336000   -0.179000
  H      3.720000    3.632000   -1.967000

 Total Charge           Charge          ....    0
 Multiplicity           Mult            ....    1
 Number of Electrons    NEL             ....  358
 Basis Dimension        Dim             ....  918

ORBITAL ENERGIES
----------------

  NO   OCC          E(Eh)            E(eV)
   0   2.0000     -15.679705      -426.6665
   1   2.0000     -15.632933      -425.3937
   2   2.0000     -15.632544      -425.3831
   3   2.0000     -15.588236      -424.1775
   4   2.0000     -15.524794      -422.4511
   5   2.0000     -15.515344      -422.1940
   6   2.0000     -15.453848      -420.5206
   7   2.0000     -15.439356      -420.1262
   8   2.0000     -11.329239      -308.2843
   9   2.0000     -11.328382      -308.2609
  10   2.0000     -11.327863      -308.2468
  11   2.0000     -11.298815      -307.4564
  12   2.0000     -11.298708      -307.4535
  13   2.0000     -11.292170      -307.2756
  14   2.0000     -11.291838      -307.2665
  15   2.0000     -11.287078      -307.1370
  16   2.0000     -11.285631      -307.0976
  17   2.0000     -11.281938      -306.9971
  18   2.0000     -11.269721      -306.6647
  19   2.0000     -11.263233      -306.4881
  20   2.0000     -11.262233      -306.4609
  21   2.0000     -11.251364      -306.1652
  22   2.0000     -11.247496      -306.0599
  23   2.0000     -11.237269      -305.7816
  24   2.0000     -11.236754      -305.7676
  25   2.0000     -11.230389      -305.5944
  26   2.0000     -11.230263      -305.5910
  27   2.0000     -11.230093      -305.5864
  28   2.0000     -11.229699      -305.5756
  29   2.0000     -11.210698      -305.0586
  30   2.0000     -11.209183      -305.0174
  31   2.0000     -11.194202      -304.6097
  32   2.0000     -11.192229      -304.5560
  33   2.0000     -11.191135      -304.5263
  34   2.0000     -11.188589      -304.4570
  35   2.0000     -11.188018      -304.4415
  36   2.0000     -11.187056      -304.4153
  37   2.0000     -11.174289      -304.0679
  38   2.0000     -11.171811      -304.0004
  39   2.0000     -11.171501      -303.9920
  40   2.0000     -11.171259      -303.9854
  41   2.0000     -11.167962      -303.8957
  42   2.0000     -11.165703      -303.8342
  43   2.0000     -11.161943      -303.7319
  44   2.0000     -11.161224      -303.7123
  45   2.0000     -11.156910      -303.5950
  46   2.0000     -11.156211      -303.5759
  47   2.0000     -11.150632      -303.4241
  48   2.0000     -11.147305      -303.3336
  49   2.0000     -11.135714      -303.0182
  50   2.0000     -11.129650      -302.8532
  51   2.0000     -11.118068      -302.5380
  52   2.0000      -1.360295       -37.0155
  53   2.0000      -1.320339       -35.9283
  54   2.0000      -1.320222       -35.9251
  55   2.0000      -1.280096       -34.8332
  56   2.0000      -1.225848       -33.3570
  57   2.0000      -1.210344       -32.9351
  58   2.0000      -1.173533       -31.9335
  59   2.0000      -1.150734       -31.3131
  60   2.0000      -1.143546       -31.1175
  61   2.0000      -1.110192       -30.2099
  62   2.0000      -1.108827       -30.1727
  63   2.0000      -1.081973       -29.4420
  64   2.0000      -1.077393       -29.3174
  65   2.0000      -1.044835       -28.4314
  66   2.0000      -1.044583       -28.4246
  67   2.0000      -1.040982       -28.3266
  68   2.0000      -1.015312       -27.6281
  69   2.0000      -1.014756       -27.6129
  70   2.0000      -1.009116       -27.4594
  71   2.0000      -0.993228       -27.0271
  72   2.0000      -0.985611       -26.8198
  73   2.0000      -0.981671       -26.7126
  74   2.0000      -0.974014       -26.5043
  75   2.0000      -0.962408       -26.1885
  76   2.0000      -0.954992       -25.9866
  77   2.0000      -0.947080       -25.7714
  78   2.0000      -0.940057       -25.5802
  79   2.0000      -0.916668       -24.9438
  80   2.0000      -0.910525       -24.7766
  81   2.0000      -0.898481       -24.4489
  82   2.0000      -0.877219       -23.8703
  83   2.0000      -0.871686       -23.7198
  84   2.0000      -0.871220       -23.7071
  85   2.0000      -0.861867       -23.4526
  86   2.0000      -0.846666       -23.0390
  87   2.0000      -0.838035       -22.8041
  88   2.0000      -0.829520       -22.5724
  89   2.0000      -0.796277       -21.6678
  90   2.0000      -0.789455       -21.4822
  91   2.0000      -0.776043       -21.1172
  92   2.0000      -0.752960       -20.4891
  93   2.0000      -0.734152       -19.9773
  94   2.0000      -0.729105       -19.8399
  95   2.0000      -0.727134       -19.7863
  96   2.0000      -0.720516       -19.6062
  97   2.0000      -0.717922       -19.5357
  98   2.0000      -0.714344       -19.4383
  99   2.0000      -0.700341       -19.0572
 100   2.0000      -0.698176       -18.9983
 101   2.0000      -0.694762       -18.9054
 102   2.0000      -0.685322       -18.6485
 103   2.0000      -0.684275       -18.6201
 104   2.0000      -0.678782       -18.4706
 105   2.0000      -0.674503       -18.3542
 106   2.0000      -0.672875       -18.3098
 107   2.0000      -0.661147       -17.9907
 108   2.0000      -0.658110       -17.9081
 109   2.0000      -0.652712       -17.7612
 110   2.0000      -0.652081       -17.7440
 111   2.0000      -0.646134       -17.5822
 112   2.0000      -0.645717       -17.5709
 113   2.0000      -0.638005       -17.3610
 114   2.0000      -0.635420       -17.2907
 115   2.0000      -0.628927       -17.1140
 116   2.0000      -0.623304       -16.9610
 117   2.0000      -0.620522       -16.8853
 118   2.0000      -0.612771       -16.6743
 119   2.0000      -0.612031       -16.6542
 120   2.0000      -0.611657       -16.6440
 121   2.0000      -0.611460       -16.6387
 122   2.0000      -0.601710       -16.3734
 123   2.0000      -0.589333       -16.0366
 124   2.0000      -0.581239       -15.8163
 125   2.0000      -0.580925       -15.8078
 126   2.0000      -0.580193       -15.7878
 127   2.0000      -0.571012       -15.5380
 128   2.0000      -0.566667       -15.4198
 129   2.0000      -0.560025       -15.2391
 130   2.0000      -0.555627       -15.1194
 131   2.0000      -0.547702       -14.9037
 132   2.0000      -0.542637       -14.7659
 133   2.0000      -0.540107       -14.6971
 134   2.0000      -0.538427       -14.6514
 135   2.0000      -0.536348       -14.5948
 136   2.0000      -0.531883       -14.4733
 137   2.0000      -0.518082       -14.0977
 138   2.0000      -0.516466       -14.0537
 139   2.0000      -0.514394       -13.9974
 140   2.0000      -0.512030       -13.9331
 141   2.0000      -0.509814       -13.8727
 142   2.0000      -0.506974       -13.7955
 143   2.0000      -0.505794       -13.7633
 144   2.0000      -0.502498       -13.6737
 145   2.0000      -0.495492       -13.4830
 146   2.0000      -0.488221       -13.2852
 147   2.0000      -0.481022       -13.0893
 148   2.0000      -0.476618       -12.9694
 149   2.0000      -0.467739       -12.7278
 150   2.0000      -0.466143       -12.6844
 151   2.0000      -0.456302       -12.4166
 152   2.0000      -0.451529       -12.2867
 153   2.0000      -0.445181       -12.1140
 154   2.0000      -0.437940       -11.9169
 155   2.0000      -0.427778       -11.6404
 156   2.0000      -0.409121       -11.1328
 157   2.0000      -0.390789       -10.6339
 158   2.0000      -0.387805       -10.5527
 159   2.0000      -0.385884       -10.5004
 160   2.0000      -0.378393       -10.2966
 161   2.0000      -0.372724       -10.1423
 162   2.0000      -0.356857        -9.7106
 163   2.0000      -0.356490        -9.7006
 164   2.0000      -0.355760        -9.6807
 165   2.0000      -0.341869        -9.3027
 166   2.0000      -0.337468        -9.1830
 167   2.0000      -0.324601        -8.8328
 168   2.0000      -0.321709        -8.7541
 169   2.0000      -0.305032        -8.3003
 170   2.0000      -0.299308        -8.1446
 171   2.0000      -0.286001        -7.7825
 172   2.0000      -0.278169        -7.5694
 173   2.0000      -0.263557        -7.1717
 174   2.0000      -0.242305        -6.5934
 175   2.0000      -0.189939        -5.1685
 176   2.0000      -0.181376        -4.9355
 177   2.0000      -0.080070        -2.1788
 178   2.0000      -0.059676        -1.6239
 179   0.0000       0.028512         0.7759
 180   0.0000       0.065468         1.7815
 181   0.0000       0.090273         2.4565
 182   0.0000       0.106353         2.8940
 183   0.0000       0.117104         3.1866

MULLIKEN ATOMIC CHARGES
-----------------------
   0 C :    0.228236
   1 N :   -0.454931
   2 C :   -0.066125
   3 N :   -0.341244
   4 C :   -0.131152
   5 N :   -0.568795
   6 C :   -0.087805
   7 N :   -0.341074
   8 C :    0.219897
   9 N :   -0.562295
  10 C :    0.119142
  11 N :   -0.438666
  12 C :   -0.056433
  13 N :   -0.429369
  14 C :    0.214228
  15 N :   -0.440734
  16 C :    0.233908
  17 C :   -0.103666
  18 C :   -0.181339
  19 C :    0.213304
  20 C :    0.213313
  21 C :   -0.060263
  22 C :   -0.091087
  23 C :   -0.039584
  24 C :    0.192817
  25 C :    0.114747
  26 C :   -0.080355
  27 C :    0.219348
  28 C :   -0.061927
  29 C :   -0.183142
  30 C :    0.245375
  31 C :    0.230048
  32 C :   -0.061359
  33 C :   -0.059960
  34 C :   -0.051521
  35 C :    0.228991
  36 C :    0.108206
  37 C :   -0.064658
  38 C :    0.230965
  39 C :   -0.057374
  40 C :   -0.182004
  41 C :    0.226379
  42 C :    0.197388
  43 C :   -0.072679
  44 C :   -0.089274
  45 C :   -0.061665
  46 C :    0.212209
  47 C :    0.115253
  48 C :   -0.066377
  49 C :    0.237990
  50 C :   -0.045994
  51 C :   -0.192407
  52 H :    0.032534
  53 H :   -0.018940
  54 H :    0.072540
  55 H :    0.029930
  56 H :    0.049526
  57 H :    0.047757
  58 H :    0.046496
  59 H :   -0.019768
  60 H :    0.054496
  61 H :    0.171008
  62 H :    0.175364
  63 H :    0.054891
  64 H :   -0.046182
  65 H :    0.046621
  66 H :    0.055121
  67 H :    0.062041
  68 H :    0.056967
  69 H :    0.056100
  70 H :   -0.031163
  71 H :    0.044438
  72 H :    0.071428
  73 H :   -0.007916
  74 H :    0.060505
  75 H :    0.070909
  76 H :    0.075058
  77 H :    0.068093
  78 H :    0.067429
  79 H :   -0.016886
  80 H :    0.061490
  81 H :    0.054665
  82 H :   -0.024900
  83 H :    0.042235
  84 H :    0.054529
  85 H :    0.061126
  86 H :    0.055742
  87 H :    0.057450
  88 H :   -0.014428
  89 H :    0.047209
Sum of atomic charges:   -0.0000000

LOEWDIN ATOMIC CHARGES
----------------------
   0 C :   -0.015971
   1 N :    0.122952
   2 C :   -0.099673
   3 N :    0.182179
   4 C :   -0.009809
   5 N :   -0.134881
   6 C :   -0.009516
   7 N :    0.174996
   8 C :   -0.022563
   9 N :   -0.140623
  10 C :    0.022766
  11 N :    0.141265
  12 C :   -0.093467
  13 N :    0.166440
  14 C :   -0.014601
  15 N :    0.139305
  16 C :   -0.061477
  17 C :   -0.025194
  18 C :   -0.116097
  19 C :   -0.072566
  20 C :    0.004294
  21 C :   -0.090739
  22 C :    0.036293
  23 C :   -0.014693
  24 C :   -0.013678
  25 C :    0.029655
  26 C :   -0.107238
  27 C :   -0.117171
  28 C :   -0.027944
  29 C :   -0.099150
  30 C :   -0.029975
  31 C :    0.024257
  32 C :   -0.094266
  33 C :    0.082496
  34 C :   -0.015344
  35 C :    0.023670
  36 C :    0.035283
  37 C :   -0.094332
  38 C :   -0.052528
  39 C :   -0.017373
  40 C :   -0.109275
  41 C :   -0.090511
  42 C :   -0.010283
  43 C :   -0.099374
  44 C :    0.034492
  45 C :   -0.028191
  46 C :    0.002635
  47 C :    0.029618
  48 C :   -0.094393
  49 C :   -0.069708
  50 C :   -0.018383
  51 C :   -0.107784
  52 H :    0.021842
  53 H :    0.002408
  54 H :   -0.026183
  55 H :    0.021248
  56 H :    0.022043
  57 H :    0.026317
  58 H :    0.026522
  59 H :    0.001355
  60 H :   -0.012481
  61 H :    0.060291
  62 H :    0.061867
  63 H :    0.030558
  64 H :   -0.002267
  65 H :    0.045699
  66 H :    0.028990
  67 H :    0.028025
  68 H :    0.031502
  69 H :    0.030167
  70 H :   -0.004943
  71 H :    0.043314
  72 H :    0.037756
  73 H :    0.007190
  74 H :    0.050712
  75 H :    0.037486
  76 H :    0.034879
  77 H :    0.036232
  78 H :    0.035930
  79 H :    0.002828
  80 H :    0.050850
  81 H :    0.029204
  82 H :   -0.002753
  83 H :    0.042625
  84 H :    0.030054
  85 H :    0.027516
  86 H :    0.030275
  87 H :    0.031514
  88 H :    0.002427
  89 H :    0.045174

  Mayer bond orders larger than 0.100000
B(  0-C ,  1-N ) :   1.1045 B(  0-C , 17-C ) :   1.7244 B(  0-C , 52-H ) :   0.9590
B(  1-N ,  8-C ) :   1.0911 B(  1-N , 10-C ) :   0.9770 B(  2-C , 12-C ) :   1.4858
B(  2-C , 16-C ) :   1.3781 B(  2-C , 53-H ) :   0.9704 B(  3-N , 14-C ) :   1.2259
B(  3-N , 16-C ) :   1.1770 B(  3-N , 61-H ) :   0.8975 B(  4-C ,  6-C ) :   1.2290
B(  4-C , 17-C ) :   1.2306 B(  4-C , 18-C ) :   1.4893 B(  5-N , 19-C ) :   1.4666
B(  5-N , 27-C ) :   1.3674 B(  6-C ,  8-C ) :   1.7422 B(  6-C , 54-H ) :   0.8305
B(  7-N , 30-C ) :   1.1950 B(  7-N , 38-C ) :   1.1896 B(  7-N , 62-H ) :   0.8968
B(  8-C , 55-H ) :   0.9586 B(  9-N , 41-C ) :   1.3956 B(  9-N , 49-C ) :   1.4237
B( 10-C , 56-H ) :   0.9777 B( 10-C , 57-H ) :   0.9823 B( 10-C , 58-H ) :   0.9837
B( 11-N , 20-C ) :   1.1304 B( 11-N , 24-C ) :   1.1057 B( 11-N , 25-C ) :   0.9607
B( 12-C , 14-C ) :   1.3615 B( 12-C , 59-H ) :   0.9073 B( 13-N , 31-C ) :   1.1614
B( 13-N , 35-C ) :   1.1611 B( 13-N , 36-C ) :   0.9412 B( 14-C , 18-C ) :   1.1169
B( 15-N , 42-C ) :   1.1081 B( 15-N , 46-C ) :   1.1254 B( 15-N , 47-C ) :   0.9609
B( 16-C , 51-C ) :   1.1685 B( 17-C , 60-H ) :   0.8678 B( 18-C , 19-C ) :   1.1151
B( 19-C , 21-C ) :   1.2560 B( 20-C , 28-C ) :   1.6297 B( 20-C , 63-H ) :   0.9703
B( 21-C , 26-C ) :   1.5772 B( 21-C , 64-H ) :   0.8746 B( 22-C , 23-C ) :   1.2887
B( 22-C , 28-C ) :   1.2627 B( 22-C , 29-C ) :   1.2279 B( 23-C , 24-C ) :   1.6211
B( 23-C , 65-H ) :   0.9703 B( 24-C , 66-H ) :   0.9696 B( 25-C , 67-H ) :   0.9760
B( 25-C , 68-H ) :   0.9828 B( 25-C , 69-H ) :   0.9824 B( 26-C , 27-C ) :   1.2704
B( 26-C , 70-H ) :   0.9649 B( 27-C , 29-C ) :   1.2056 B( 28-C , 71-H ) :   0.9720
B( 29-C , 30-C ) :   1.2468 B( 30-C , 32-C ) :   1.2791 B( 31-C , 39-C ) :   1.5875
B( 31-C , 72-H ) :   0.9681 B( 32-C , 37-C ) :   1.5796 B( 32-C , 73-H ) :   0.9786
B( 33-C , 34-C ) :   1.3066 B( 33-C , 39-C ) :   1.3045 B( 33-C , 40-C ) :   1.1763
B( 34-C , 35-C ) :   1.5854 B( 34-C , 74-H ) :   0.9696 B( 35-C , 75-H ) :   0.9681
B( 36-C , 76-H ) :   0.9768 B( 36-C , 77-H ) :   0.9816 B( 36-C , 78-H ) :   0.9823
B( 37-C , 38-C ) :   1.2852 B( 37-C , 79-H ) :   0.9764 B( 38-C , 40-C ) :   1.2338
B( 39-C , 80-H ) :   0.9705 B( 40-C , 41-C ) :   1.2502 B( 41-C , 43-C ) :   1.1839
B( 42-C , 50-C ) :   1.6320 B( 42-C , 81-H ) :   0.9696 B( 43-C , 48-C ) :   1.6692
B( 43-C , 82-H ) :   0.9721 B( 44-C , 45-C ) :   1.2640 B( 44-C , 50-C ) :   1.2735
B( 44-C , 51-C ) :   1.2588 B( 45-C , 46-C ) :   1.6336 B( 45-C , 83-H ) :   0.9718
B( 46-C , 84-H ) :   0.9700 B( 47-C , 85-H ) :   0.9762 B( 47-C , 86-H ) :   0.9829
B( 47-C , 87-H ) :   0.9824 B( 48-C , 49-C ) :   1.1872 B( 48-C , 88-H ) :   0.9748
B( 49-C , 51-C ) :   1.2467 B( 50-C , 89-H ) :   0.9708 B( 54-H , 64-H ) :   0.1485
B( 59-H , 60-H ) :   0.1052

MP2 TOTAL ENERGY:    -2130.731322303 Eh
FINAL SINGLE POINT ENERGY     -2130.731322303000

DIPOLE MOMENT
-------------
                                X             Y             Z
Electronic contribution:      2.90617      -4.22762      -0.08243
Nuclear contribution   :     -0.03904       0.16138       0.10172
                        -----------------------------------------
Total Dipole Moment    :      2.86712      -4.06624       0.01929
                        -----------------------------------------
Magnitude (a.u.)       :      4.97544
Magnitude (Debye)      :     12.64657

Rotational constants in cm-1:     0.001504     0.001478     0.000760
Rotational constants in MHz :    45.074052    44.301279    22.780716

                             ****ORCA TERMINATED NORMALLY****
TOTAL RUN TIME: 0 days 1 hours 32 minutes 7 seconds 995 msec
