                         Program Version 5.0.4 -  RELEASE  -
|  1> ! PAL2
|  2> ! mp2 cc-pvdz TightSCF  NoKeepInts
|  3>
|  4> %scf
|  5>   MaxCore 2000
|  6> end
|  7> %mp2
|  8>   MaxCore 2000
|  9> end
| 10> * xyz 0 1
| 11>    C       -3.04200         6.49200        -0.05700
| 12>    C        1.47400         4.04100         0.05700
| 13>    C       -2.80200         4.09300         0.04900
| 14>    C       -4.19200         4.01300         0.22400
| 15>    C       -4.95500         5.16300         0.24900
| 16>    C       -5.22900         7.59100         0.10800
| 17>    C        0.13200         4.30700         0.06100
| 18>    C       -0.56900         3.05600         0.04700
| 19>    C        1.64900         2.61800         0.02300
| 20>    C       -2.23800         5.37000        -0.09500
| 21>    N       -4.37900         6.38000         0.11400
| 22>    N        0.38800         2.06700         0.02500
| 23>    N       -2.01000         0.39500        -0.07500
| 24>    N       -0.38800        -2.07400        -0.02700
| 25>    N        2.01000        -0.40100         0.06500
| 26>    C       -1.96000         2.86100         0.02400
| 27>    C       -2.62300         1.61500        -0.01800
| 28>    C       -5.57300        -4.32900         1.06600
| 29>    C       -4.07300         1.47100         0.05600
| 30>    C       -4.10600        -2.75600        -0.02600
| 31>    C       -4.99500        -2.75700        -1.11100
| 32>    C       -6.13200        -3.54200        -1.07600
| 33>    C       -7.65100        -5.11300         0.04000
| 34>    C       -4.32400         0.14100         0.03700
| 35>    C       -3.02500        -0.52000        -0.04800
| 36>    C       -4.42200        -3.56600         1.07500
| 37>    N       -6.40700        -4.31300         0.00100
| 38>    C       -2.86700        -1.92200        -0.04000
| 39>    C       -1.65000        -2.62400        -0.02700
| 40>    C        3.56800        -6.14200        -1.04000
| 41>    C       -1.47600        -4.04900        -0.03400
| 42>    C        2.80300        -4.09900        -0.00800
| 43>    C        3.65700        -4.38400         1.06900
| 44>    C        4.42700        -5.53000         1.05900
| 45>    C        5.24500        -7.58800         0.01400
| 46>    C       -0.13400        -4.31500        -0.02200
| 47>    C        0.56800        -3.06400        -0.02700
| 48>    C        2.77500        -5.01200        -1.07400
| 49>    N        4.37600        -6.39100         0.01700
| 50>    C        1.95900        -2.86900        -0.00900
| 51>    C        2.62100        -1.62200         0.00900
| 52>    C        5.54300         4.33900        -1.13000
| 53>    C        4.07000        -1.47900        -0.09400
| 54>    C        4.10400         2.75100        -0.02100
| 55>    C        5.02700         2.72900         1.03600
| 56>    C        6.16600         3.50900         0.97800
| 57>    C        7.61900         5.15300        -0.11500
| 58>    C        4.32100        -0.14800        -0.09200
| 59>    C        3.02500         0.51400         0.01500
| 60>    C        4.38700         3.58200        -1.11500
| 61>    C        2.86600         1.91600         0.01300
| 62>    N        6.41300         4.29600        -0.09500
| 63>    H       -2.64900         7.49700        -0.15100
| 64>    H        2.27400         4.76600         0.08100
| 65>    H       -4.68800         3.05600         0.33100
| 66>    H       -6.03100         5.15100         0.37300
| 67>    H       -5.59200         7.76600        -0.90800
| 68>    H       -6.06900         7.43400         0.78500
| 69>    H       -4.63300         8.43900         0.44300
| 70>    H       -0.33200         5.28200         0.06900
| 71>    H       -1.16800         5.49900        -0.21900
| 72>    H        0.18200         1.07200         0.00500
| 73>    H       -0.18300        -1.08000        -0.02100
| 74>    H       -5.86400        -4.96200         1.89500
| 75>    H       -4.79400         2.27200         0.13900
| 76>    H       -4.80000        -2.16000        -1.99400
| 77>    H       -6.84100        -3.58200        -1.89300
| 78>    H       -8.42800        -4.53600         0.54600
| 79>    H       -7.95600        -5.33700        -0.98100
| 80>    H       -7.45600        -6.03700         0.58400
| 81>    H       -5.28700        -0.34400         0.10000
| 82>    H       -3.78000        -3.60100         1.94700
| 83>    H        3.58700        -6.86800        -1.84300
| 84>    H       -2.27600        -4.77400        -0.05000
| 85>    H        3.71400        -3.72400         1.92600
| 86>    H        5.09200        -5.79500         1.87100
| 87>    H        6.20500        -7.32900        -0.43900
| 88>    H        5.39300        -7.91700         1.04200
| 89>    H        4.75900        -8.37300        -0.56400
| 90>    H        0.32900        -5.29000        -0.00800
| 91>    H        2.14600        -4.84200        -1.94000
| 92>    H        5.80800         4.98600        -1.95600
| 93>    H        4.78800        -2.28100        -0.18500
| 94>    H        4.86000         2.11400         1.91200
| 95>    H        6.90100         3.53100         1.77200
| 96>    H        7.38300         6.10900         0.35600
| 97>    H        8.41400         4.65200         0.43500
| 98>    H        7.92100         5.31000        -1.15000
| 99>    H        5.28300         0.33600        -0.17900
|100>    H        3.72000         3.63200        -1.96700
|101> *
|102>
|103>                          ****END OF INPUT****

CARTESIAN COORDINATES (ANGSTROEM)
---------------------------------
  C     -3.042000    6.492000   -0.057000
  C      1.474000    4.041000    0.057000
  C     -2.802000    4.093000    0.049000
  C     -4.192000    4.013000    0.224000
  C     -4.955000    5.163000    0.249000
  C     -5.229000    7.591000    0.108000
  C      0.132000    4.307000    0.061000
  C     -0.569000    3.056000    0.047000
  C      1.649000    2.618000    0.023000
  C     -2.238000    5.370000   -0.095000
  N     -4.379000    6.380000    0.114000
  N      0.388000    2.067000    0.025000
  N     -2.010000    0.395000   -0.075000
  N     -0.388000   -2.074000   -0.027000
  N      2.010000   -0.401000    0.065000
  C     -1.960000    2.861000    0.024000
  C     -2.623000    1.615000   -0.018000
  C     -5.573000   -4.329000    1.066000
  C     -4.073000    1.471000    0.056000
  C     -4.106000   -2.756000   -0.026000
  C     -4.995000   -2.757000   -1.111000
  C     -6.132000   -3.542000   -1.076000
  C     -7.651000   -5.113000    0.040000
  C     -4.324000    0.141000    0.037000
  C     -3.025000   -0.520000   -0.048000
  C     -4.422000   -3.566000    1.075000
  N     -6.407000   -4.313000    0.001000
  C     -2.867000   -1.922000   -0.040000
  C     -1.650000   -2.624000   -0.027000
  C      3.568000   -6.142000   -1.040000
  C     -1.476000   -4.049000   -0.034000
  C      2.803000   -4.099000   -0.008000
  C      3.657000   -4.384000    1.069000
  C      4.427000   -5.530000    1.059000
  C      5.245000   -7.588000    0.014000
  C     -0.134000   -4.315000   -0.022000
  C      0.568000   -3.064000   -0.027000
  C      2.775000   -5.012000   -1.074000
  N      4.376000   -6.391000    0.017000
  C      1.959000   -2.869000   -0.009000
  C      2.621000   -1.622000    0.009000
  C      5.543000    4.339000   -1.130000
  C      4.070000   -1.479000   -0.094000
  C      4.104000    2.751000   -0.021000
  C      5.027000    2.729000    1.036000
  C      6.166000    3.509000    0.978000
  C      7.619000    5.153000   -0.115000
  C      4.321000   -0.148000   -0.092000
  C      3.025000    0.514000    0.015000
  C      4.387000    3.582000   -1.115000
  C      2.866000    1.916000    0.013000
  N      6.413000    4.296000   -0.095000
  H     -2.649000    7.497000   -0.151000
  H      2.274000    4.766000    0.081000
  H     -4.688000    3.056000    0.331000
  H     -6.031000    5.151000    0.373000
  H     -5.592000    7.766000   -0.908000
  H     -6.069000    7.434000    0.785000
  H     -4.633000    8.439000    0.443000
  H     -0.332000    5.282000    0.069000
  H     -1.168000    5.499000   -0.219000
  H      0.182000    1.072000    0.005000
  H     -0.183000   -1.080000   -0.021000
  H     -5.864000   -4.962000    1.895000
  H     -4.794000    2.272000    0.139000
  H     -4.800000   -2.160000   -1.994000
  H     -6.841000   -3.582000   -1.893000
  H     -8.428000   -4.536000    0.546000
  H     -7.956000   -5.337000   -0.981000
  H     -7.456000   -6.037000    0.584000
  H     -5.287000   -0.344000    0.100000
  H     -3.780000   -3.601000    1.947000
  H      3.587000   -6.868000   -1.843000
  H     -2.276000   -4.774000   -0.050000
  H      3.714000   -3.724000    1.926000
  H      5.092000   -5.795000    1.871000
  H      6.205000   -7.329000   -0.439000
  H      5.393000   -7.917000    1.042000
  H      4.759000   -8.373000   -0.564000
  H      0.329000   -5.290000   -0.008000
  H      2.146000   -4.842000   -1.940000
  H      5.808000    4.986000   -1.956000
  H      4.788000   -2.281000   -0.185000
  H      4.860000    2.114000    1.912000
  H      6.901000    3.531000    1.772000
  H      7.383000    6.109000    0.356000
  H      8.414000    4.652000    0.435000
  H      7.921000    5.310000   -1.150000
  H      5.283000    0.336000   -0.179000
  H      3.720000    3.632000   -1.967000

 Total Charge           Charge          ....    0
 Multiplicity           Mult            ....    1
 Number of Electrons    NEL             ....  358
 Basis Dimension        Dim             ....  918

ORBITAL ENERGIES
----------------

  NO   OCC          E(Eh)            E(eV)
   0   2.0000     -15.679991      -426.6742
   1   2.0000     -15.632928      -425.3936
   2   2.0000     -15.632815      -425.3905
   3   2.0000     -15.588081      -424.1733
   4   2.0000     -15.524839      -422.4523
   5   2.0000     -15.515497      -422.1981
   6   2.0000     -15.454056      -420.5262
   7   2.0000     -15.439344      -420.1259
   8   2.0000     -11.329449      -308.2900
   9   2.0000     -11.328668      -308.2687
  10   2.0000     -11.328050      -308.2519
  11   2.0000     -11.299048      -307.4627
  12   2.0000     -11.298620      -307.4511
  13   2.0000     -11.292169      -307.2755
  14   2.0000     -11.292073      -307.2729
  15   2.0000     -11.287421      -307.1463
  16   2.0000     -11.285520      -307.0946
  17   2.0000     -11.282214      -307.0046
  18   2.0000     -11.269631      -306.6622
  19   2.0000     -11.263472      -306.4946
  20   2.0000     -11.262468      -306.4673
  21   2.0000     -11.251464      -306.1679
  22   2.0000     -11.247815      -306.0686
  23   2.0000     -11.237645      -305.7919
  24   2.0000     -11.236642      -305.7646
  25   2.0000     -11.230543      -305.5986
  26   2.0000     -11.230378      -305.5941
  27   2.0000     -11.230279      -305.5914
  28   2.0000     -11.229549      -305.5716
  29   2.0000     -11.210693      -305.0585
  30   2.0000     -11.209302      -305.0206
  31   2.0000     -11.193999      -304.6042
  32   2.0000     -11.192051      -304.5512
  33   2.0000     -11.191428      -304.5342
  34   2.0000     -11.188883      -304.4650
  35   2.0000     -11.188226      -304.4471
  36   2.0000     -11.187405      -304.4248
  37   2.0000     -11.174432      -304.0717
  38   2.0000     -11.173200      -304.0382
  39   2.0000     -11.171564      -303.9937
  40   2.0000     -11.171417      -303.9897
  41   2.0000     -11.167916      -303.8944
  42   2.0000     -11.167204      -303.8751
  43   2.0000     -11.162277      -303.7410
  44   2.0000     -11.160852      -303.7022
  45   2.0000     -11.157209      -303.6031
  46   2.0000     -11.156157      -303.5745
  47   2.0000     -11.151146      -303.4381
  48   2.0000     -11.147299      -303.3334
  49   2.0000     -11.135494      -303.0122
  50   2.0000     -11.129307      -302.8438
  51   2.0000     -11.117535      -302.5235
  52   2.0000      -1.360545       -37.0223
  53   2.0000      -1.320553       -35.9341
  54   2.0000      -1.320232       -35.9253
  55   2.0000      -1.280234       -34.8369
  56   2.0000      -1.225903       -33.3585
  57   2.0000      -1.210429       -32.9374
  58   2.0000      -1.173789       -31.9404
  59   2.0000      -1.150592       -31.3092
  60   2.0000      -1.143787       -31.1240
  61   2.0000      -1.110388       -30.2152
  62   2.0000      -1.108809       -30.1722
  63   2.0000      -1.082216       -29.4486
  64   2.0000      -1.077363       -29.3165
  65   2.0000      -1.045149       -28.4400
  66   2.0000      -1.044472       -28.4215
  67   2.0000      -1.041182       -28.3320
  68   2.0000      -1.014924       -27.6175
  69   2.0000      -1.014553       -27.6074
  70   2.0000      -1.009104       -27.4591
  71   2.0000      -0.993293       -27.0289
  72   2.0000      -0.985653       -26.8210
  73   2.0000      -0.981752       -26.7148
  74   2.0000      -0.973731       -26.4966
  75   2.0000      -0.962512       -26.1913
  76   2.0000      -0.955070       -25.9888
  77   2.0000      -0.946586       -25.7579
  78   2.0000      -0.939532       -25.5660
  79   2.0000      -0.916748       -24.9460
  80   2.0000      -0.910703       -24.7815
  81   2.0000      -0.898012       -24.4362
  82   2.0000      -0.877148       -23.8684
  83   2.0000      -0.871732       -23.7210
  84   2.0000      -0.871204       -23.7067
  85   2.0000      -0.861306       -23.4373
  86   2.0000      -0.845831       -23.0162
  87   2.0000      -0.837077       -22.7780
  88   2.0000      -0.829140       -22.5620
  89   2.0000      -0.796400       -21.6711
  90   2.0000      -0.789221       -21.4758
  91   2.0000      -0.772844       -21.0301
  92   2.0000      -0.753130       -20.4937
  93   2.0000      -0.733848       -19.9690
  94   2.0000      -0.727959       -19.8088
  95   2.0000      -0.726572       -19.7710
  96   2.0000      -0.720272       -19.5996
  97   2.0000      -0.717889       -19.5347
  98   2.0000      -0.714273       -19.4364
  99   2.0000      -0.699751       -19.0412
 100   2.0000      -0.698250       -19.0003
 101   2.0000      -0.694640       -18.9021
 102   2.0000      -0.685429       -18.6515
 103   2.0000      -0.684474       -18.6255
 104   2.0000      -0.678778       -18.4705
 105   2.0000      -0.674604       -18.3569
 106   2.0000      -0.672914       -18.3109
 107   2.0000      -0.660921       -17.9846
 108   2.0000      -0.658141       -17.9089
 109   2.0000      -0.652874       -17.7656
 110   2.0000      -0.652033       -17.7427
 111   2.0000      -0.646310       -17.5870
 112   2.0000      -0.645758       -17.5720
 113   2.0000      -0.637834       -17.3563
 114   2.0000      -0.635621       -17.2961
 115   2.0000      -0.628815       -17.1109
 116   2.0000      -0.623334       -16.9618
 117   2.0000      -0.620559       -16.8863
 118   2.0000      -0.612898       -16.6778
 119   2.0000      -0.612302       -16.6616
 120   2.0000      -0.611584       -16.6421
 121   2.0000      -0.611471       -16.6390
 122   2.0000      -0.601646       -16.3716
 123   2.0000      -0.589019       -16.0280
 124   2.0000      -0.581432       -15.8216
 125   2.0000      -0.580871       -15.8063
 126   2.0000      -0.580190       -15.7878
 127   2.0000      -0.571221       -15.5437
 128   2.0000      -0.566864       -15.4252
 129   2.0000      -0.560074       -15.2404
 130   2.0000      -0.555202       -15.1078
 131   2.0000      -0.547896       -14.9090
 132   2.0000      -0.542725       -14.7683
 133   2.0000      -0.540288       -14.7020
 134   2.0000      -0.538355       -14.6494
 135   2.0000      -0.536477       -14.5983
 136   2.0000      -0.531733       -14.4692
 137   2.0000      -0.518419       -14.1069
 138   2.0000      -0.516452       -14.0534
 139   2.0000      -0.514717       -14.0062
 140   2.0000      -0.512224       -13.9383
 141   2.0000      -0.509936       -13.8761
 142   2.0000      -0.507256       -13.8031
 143   2.0000      -0.505602       -13.7581
 144   2.0000      -0.502644       -13.6776
 145   2.0000      -0.495598       -13.4859
 146   2.0000      -0.488282       -13.2868
 147   2.0000      -0.481148       -13.0927
 148   2.0000      -0.476997       -12.9797
 149   2.0000      -0.467837       -12.7305
 150   2.0000      -0.466309       -12.6889
 151   2.0000      -0.456598       -12.4247
 152   2.0000      -0.451773       -12.2934
 153   2.0000      -0.445007       -12.1093
 154   2.0000      -0.438051       -11.9200
 155   2.0000      -0.427648       -11.6369
 156   2.0000      -0.409434       -11.1413
 157   2.0000      -0.391848       -10.6627
 158   2.0000      -0.389564       -10.6006
 159   2.0000      -0.387669       -10.5490
 160   2.0000      -0.378587       -10.3019
 161   2.0000      -0.372784       -10.1440
 162   2.0000      -0.360345        -9.8055
 163   2.0000      -0.356722        -9.7069
 164   2.0000      -0.355761        -9.6808
 165   2.0000      -0.342103        -9.3091
 166   2.0000      -0.337597        -9.1865
 167   2.0000      -0.324478        -8.8295
 168   2.0000      -0.321549        -8.7498
 169   2.0000      -0.305087        -8.3018
 170   2.0000      -0.299442        -8.1482
 171   2.0000      -0.285849        -7.7783
 172   2.0000      -0.278407        -7.5758
 173   2.0000      -0.263799        -7.1783
 174   2.0000      -0.241985        -6.5847
 175   2.0000      -0.189973        -5.1694
 176   2.0000      -0.181299        -4.9334
 177   2.0000      -0.079915        -2.1746
 178   2.0000      -0.059789        -1.6269
 179   0.0000       0.028411         0.7731
 180   0.0000       0.065347         1.7782
 181   0.0000       0.090154         2.4532
 182   0.0000       0.106142         2.8883
 183   0.0000       0.116500         3.1701

MULLIKEN ATOMIC CHARGES
-----------------------
   0 C :    0.223297
   1 N :   -0.455129
   2 C :   -0.070557
   3 N :   -0.341599
   4 C :   -0.096118
   5 N :   -0.568649
   6 C :   -0.094858
   7 N :   -0.341051
   8 C :    0.215127
   9 N :   -0.562214
  10 C :    0.119238
  11 N :   -0.438703
  12 C :   -0.051300
  13 N :   -0.429307
  14 C :    0.216818
  15 N :   -0.440669
  16 C :    0.232757
  17 C :   -0.112458
  18 C :   -0.180280
  19 C :    0.213730
  20 C :    0.213284
  21 C :   -0.052660
  22 C :   -0.091188
  23 C :   -0.039538
  24 C :    0.192928
  25 C :    0.114754
  26 C :   -0.086310
  27 C :    0.218292
  28 C :   -0.061951
  29 C :   -0.182648
  30 C :    0.245760
  31 C :    0.230028
  32 C :   -0.061611
  33 C :   -0.059913
  34 C :   -0.051641
  35 C :    0.229215
  36 C :    0.108173
  37 C :   -0.064434
  38 C :    0.230682
  39 C :   -0.057255
  40 C :   -0.181733
  41 C :    0.226486
  42 C :    0.197586
  43 C :   -0.072470
  44 C :   -0.089053
  45 C :   -0.061673
  46 C :    0.212436
  47 C :    0.115199
  48 C :   -0.066421
  49 C :    0.238570
  50 C :   -0.046011
  51 C :   -0.192676
  52 H :    0.034253
  53 H :   -0.018410
  54 H :    0.054485
  55 H :    0.032415
  56 H :    0.049439
  57 H :    0.047727
  58 H :    0.046354
  59 H :   -0.017767
  60 H :    0.045349
  61 H :    0.171172
  62 H :    0.175390
  63 H :    0.054839
  64 H :   -0.043232
  65 H :    0.046758
  66 H :    0.055144
  67 H :    0.062045
  68 H :    0.056959
  69 H :    0.056056
  70 H :   -0.030795
  71 H :    0.044342
  72 H :    0.071512
  73 H :   -0.007910
  74 H :    0.060572
  75 H :    0.071006
  76 H :    0.075122
  77 H :    0.068150
  78 H :    0.067498
  79 H :   -0.016892
  80 H :    0.061584
  81 H :    0.054800
  82 H :   -0.024799
  83 H :    0.042355
  84 H :    0.054675
  85 H :    0.061286
  86 H :    0.055819
  87 H :    0.057523
  88 H :   -0.014370
  89 H :    0.047264
Sum of atomic charges:   -0.0000000

LOEWDIN ATOMIC CHARGES
----------------------
   0 C :   -0.016709
   1 N :    0.122323
   2 C :   -0.100056
   3 N :    0.182310
   4 C :   -0.010723
   5 N :   -0.134743
   6 C :   -0.012117
   7 N :    0.174980
   8 C :   -0.022639
   9 N :   -0.140620
  10 C :    0.022727
  11 N :    0.141224
  12 C :   -0.098824
  13 N :    0.166576
  14 C :   -0.015118
  15 N :    0.139510
  16 C :   -0.061371
  17 C :   -0.029557
  18 C :   -0.114191
  19 C :   -0.073180
  20 C :    0.004253
  21 C :   -0.095175
  22 C :    0.036264
  23 C :   -0.014642
  24 C :   -0.013584
  25 C :    0.029646
  26 C :   -0.107750
  27 C :   -0.117096
  28 C :   -0.028013
  29 C :   -0.099675
  30 C :   -0.029484
  31 C :    0.024269
  32 C :   -0.094532
  33 C :    0.082627
  34 C :   -0.015381
  35 C :    0.023898
  36 C :    0.035316
  37 C :   -0.094087
  38 C :   -0.052942
  39 C :   -0.017262
  40 C :   -0.109002
  41 C :   -0.090383
  42 C :   -0.010018
  43 C :   -0.099137
  44 C :    0.034832
  45 C :   -0.028136
  46 C :    0.002887
  47 C :    0.029670
  48 C :   -0.094343
  49 C :   -0.069370
  50 C :   -0.018345
  51 C :   -0.108052
  52 H :    0.022217
  53 H :    0.002444
  54 H :   -0.019940
  55 H :    0.021789
  56 H :    0.022030
  57 H :    0.026366
  58 H :    0.026452
  59 H :    0.002549
  60 H :   -0.003919
  61 H :    0.060254
  62 H :    0.061858
  63 H :    0.030534
  64 H :   -0.002988
  65 H :    0.045757
  66 H :    0.029003
  67 H :    0.028028
  68 H :    0.031499
  69 H :    0.030148
  70 H :   -0.004970
  71 H :    0.043270
  72 H :    0.037790
  73 H :    0.007187
  74 H :    0.050731
  75 H :    0.037537
  76 H :    0.034912
  77 H :    0.036259
  78 H :    0.035962
  79 H :    0.002826
  80 H :    0.050894
  81 H :    0.029268
  82 H :   -0.002706
  83 H :    0.042677
  84 H :    0.030124
  85 H :    0.027595
  86 H :    0.030313
  87 H :    0.031549
  88 H :    0.002449
  89 H :    0.045200

  Mayer bond orders larger than 0.100000
B(  0-C ,  1-N ) :   1.1025 B(  0-C , 17-C ) :   1.7178 B(  0-C , 52-H ) :   0.9608
B(  1-N ,  8-C ) :   1.0906 B(  1-N , 10-C ) :   0.9773 B(  2-C , 12-C ) :   1.4872
B(  2-C , 16-C ) :   1.3747 B(  2-C , 53-H ) :   0.9714 B(  3-N , 14-C ) :   1.2236
B(  3-N , 16-C ) :   1.1782 B(  3-N , 61-H ) :   0.8982 B(  4-C ,  6-C ) :   1.2228
B(  4-C , 17-C ) :   1.2243 B(  4-C , 18-C ) :   1.4817 B(  5-N , 19-C ) :   1.4631
B(  5-N , 27-C ) :   1.3688 B(  6-C ,  8-C ) :   1.7331 B(  6-C , 54-H ) :   0.8485
B(  7-N , 30-C ) :   1.1955 B(  7-N , 38-C ) :   1.1891 B(  7-N , 62-H ) :   0.8968
B(  8-C , 55-H ) :   0.9604 B(  9-N , 41-C ) :   1.3953 B(  9-N , 49-C ) :   1.4239
B( 10-C , 56-H ) :   0.9776 B( 10-C , 57-H ) :   0.9823 B( 10-C , 58-H ) :   0.9839
B( 11-N , 20-C ) :   1.1304 B( 11-N , 24-C ) :   1.1057 B( 11-N , 25-C ) :   0.9607
B( 12-C , 14-C ) :   1.3589 B( 12-C , 59-H ) :   0.9186 B( 13-N , 31-C ) :   1.1614
B( 13-N , 35-C ) :   1.1614 B( 13-N , 36-C ) :   0.9411 B( 14-C , 18-C ) :   1.1177
B( 15-N , 42-C ) :   1.1084 B( 15-N , 46-C ) :   1.1258 B( 15-N , 47-C ) :   0.9608
B( 16-C , 51-C ) :   1.1682 B( 17-C , 60-H ) :   0.8812 B( 18-C , 19-C ) :   1.1154
B( 19-C , 21-C ) :   1.2555 B( 20-C , 28-C ) :   1.6298 B( 20-C , 63-H ) :   0.9703
B( 21-C , 26-C ) :   1.5753 B( 21-C , 64-H ) :   0.8872 B( 22-C , 23-C ) :   1.2885
B( 22-C , 28-C ) :   1.2626 B( 22-C , 29-C ) :   1.2281 B( 23-C , 24-C ) :   1.6214
B( 23-C , 65-H ) :   0.9703 B( 24-C , 66-H ) :   0.9696 B( 25-C , 67-H ) :   0.9761
B( 25-C , 68-H ) :   0.9828 B( 25-C , 69-H ) :   0.9824 B( 26-C , 27-C ) :   1.2679
B( 26-C , 70-H ) :   0.9660 B( 27-C , 29-C ) :   1.2046 B( 28-C , 71-H ) :   0.9720
B( 29-C , 30-C ) :   1.2470 B( 30-C , 32-C ) :   1.2790 B( 31-C , 39-C ) :   1.5872
B( 31-C , 72-H ) :   0.9681 B( 32-C , 37-C ) :   1.5796 B( 32-C , 73-H ) :   0.9787
B( 33-C , 34-C ) :   1.3067 B( 33-C , 39-C ) :   1.3049 B( 33-C , 40-C ) :   1.1758
B( 34-C , 35-C ) :   1.5851 B( 34-C , 74-H ) :   0.9696 B( 35-C , 75-H ) :   0.9681
B( 36-C , 76-H ) :   0.9768 B( 36-C , 77-H ) :   0.9816 B( 36-C , 78-H ) :   0.9823
B( 37-C , 38-C ) :   1.2853 B( 37-C , 79-H ) :   0.9764 B( 38-C , 40-C ) :   1.2339
B( 39-C , 80-H ) :   0.9705 B( 40-C , 41-C ) :   1.2507 B( 41-C , 43-C ) :   1.1834
B( 42-C , 50-C ) :   1.6317 B( 42-C , 81-H ) :   0.9696 B( 43-C , 48-C ) :   1.6697
B( 43-C , 82-H ) :   0.9721 B( 44-C , 45-C ) :   1.2643 B( 44-C , 50-C ) :   1.2738
B( 44-C , 51-C ) :   1.2584 B( 45-C , 46-C ) :   1.6333 B( 45-C , 83-H ) :   0.9718
B( 46-C , 84-H ) :   0.9700 B( 47-C , 85-H ) :   0.9762 B( 47-C , 86-H ) :   0.9829
B( 47-C , 87-H ) :   0.9824 B( 48-C , 49-C ) :   1.1868 B( 48-C , 88-H ) :   0.9748
B( 49-C , 51-C ) :   1.2466 B( 50-C , 89-H ) :   0.9708 B( 54-H , 64-H ) :   0.1362

MP2 TOTAL ENERGY:    -2130.750337066 Eh
FINAL SINGLE POINT ENERGY     -2130.750337066228

DIPOLE MOMENT
-------------
                                X             Y             Z
Electronic contribution:      2.96075      -4.24665      -0.09082
Nuclear contribution   :     -0.04217       0.16002       0.10795
                        -----------------------------------------
Total Dipole Moment    :      2.91857      -4.08663       0.01713
                        -----------------------------------------
Magnitude (a.u.)       :      5.02184
Magnitude (Debye)      :     12.76450

Rotational constants in cm-1:     0.001503     0.001478     0.000760
Rotational constants in MHz :    45.070508    44.300204    22.781800

                             ****ORCA TERMINATED NORMALLY****
TOTAL RUN TIME: 0 days 2 hours 2 minutes 12 seconds 390 msec
