                         Program Version 5.0.4 -  RELEASE  -
|  1> ! PAL2
|  2> ! mp2 cc-pvdz TightSCF  NoKeepInts
|  3>
|  4> %scf
|  5>   MaxCore 2000
|  6> end
|  7> %mp2
|  8>   MaxCore 2000
|  9> end
| 10> * xyz 0 1
| 11>    C       -4.63800         5.41600        -0.78900
| 12>    C        1.47400         4.04100         0.05700
| 13>    C       -2.80200         4.09300         0.04900
| 14>    C       -2.53400         5.13200         0.95400
| 15>    C       -3.31900         6.26700         0.96000
| 16>    C       -5.19800         7.61100         0.15200
| 17>    C        0.13200         4.30700         0.06100
| 18>    C       -0.56900         3.05600         0.04700
| 19>    C        1.64900         2.61800         0.02300
| 20>    C       -3.88400         4.26000        -0.83000
| 21>    N       -4.35200         6.39900         0.09500
| 22>    N        0.38800         2.06700         0.02500
| 23>    N       -2.01000         0.39500        -0.07500
| 24>    N       -0.38800        -2.07400        -0.02700
| 25>    N        2.01000        -0.40100         0.06500
| 26>    C       -1.96000         2.86100         0.02400
| 27>    C       -2.62300         1.61500        -0.01800
| 28>    C       -5.57300        -4.32900         1.06600
| 29>    C       -4.07300         1.47100         0.05600
| 30>    C       -4.10600        -2.75600        -0.02600
| 31>    C       -4.99500        -2.75700        -1.11100
| 32>    C       -6.13200        -3.54200        -1.07600
| 33>    C       -7.65100        -5.11300         0.04000
| 34>    C       -4.32400         0.14100         0.03700
| 35>    C       -3.02500        -0.52000        -0.04800
| 36>    C       -4.42200        -3.56600         1.07500
| 37>    N       -6.40700        -4.31300         0.00100
| 38>    C       -2.86700        -1.92200        -0.04000
| 39>    C       -1.65000        -2.62400        -0.02700
| 40>    C        3.56800        -6.14200        -1.04000
| 41>    C       -1.47600        -4.04900        -0.03400
| 42>    C        2.80300        -4.09900        -0.00800
| 43>    C        3.65700        -4.38400         1.06900
| 44>    C        4.42700        -5.53000         1.05900
| 45>    C        5.24500        -7.58800         0.01400
| 46>    C       -0.13400        -4.31500        -0.02200
| 47>    C        0.56800        -3.06400        -0.02700
| 48>    C        2.77500        -5.01200        -1.07400
| 49>    N        4.37600        -6.39100         0.01700
| 50>    C        1.95900        -2.86900        -0.00900
| 51>    C        2.62100        -1.62200         0.00900
| 52>    C        5.54300         4.33900        -1.13000
| 53>    C        4.07000        -1.47900        -0.09400
| 54>    C        4.10400         2.75100        -0.02100
| 55>    C        5.02700         2.72900         1.03600
| 56>    C        6.16600         3.50900         0.97800
| 57>    C        7.61900         5.15300        -0.11500
| 58>    C        4.32100        -0.14800        -0.09200
| 59>    C        3.02500         0.51400         0.01500
| 60>    C        4.38700         3.58200        -1.11500
| 61>    C        2.86600         1.91600         0.01300
| 62>    N        6.41300         4.29600        -0.09500
| 63>    H       -5.47300         5.59300        -1.45600
| 64>    H        2.27400         4.76600         0.08100
| 65>    H       -1.71800         5.05800         1.66300
| 66>    H       -3.15700         7.08900         1.64400
| 67>    H       -5.98100         7.46400         0.90000
| 68>    H       -4.57500         8.46200         0.42400
| 69>    H       -5.64500         7.77400        -0.82900
| 70>    H       -0.33200         5.28200         0.06900
| 71>    H       -4.13300         3.50000        -1.56100
| 72>    H        0.18200         1.07200         0.00500
| 73>    H       -0.18300        -1.08000        -0.02100
| 74>    H       -5.86400        -4.96200         1.89500
| 75>    H       -4.79400         2.27200         0.13900
| 76>    H       -4.80000        -2.16000        -1.99400
| 77>    H       -6.84100        -3.58200        -1.89300
| 78>    H       -8.42800        -4.53600         0.54600
| 79>    H       -7.95600        -5.33700        -0.98100
| 80>    H       -7.45600        -6.03700         0.58400
| 81>    H       -5.28700        -0.34400         0.10000
| 82>    H       -3.78000        -3.60100         1.94700
| 83>    H        3.58700        -6.86800        -1.84300
| 84>    H       -2.27600        -4.77400        -0.05000
| 85>    H        3.71400        -3.72400         1.92600
| 86>    H        5.09200        -5.79500         1.87100
| 87>    H        6.20500        -7.32900        -0.43900
| 88>    H        5.39300        -7.91700         1.04200
| 89>    H        4.75900        -8.37300        -0.56400
| 90>    H        0.32900        -5.29000        -0.00800
| 91>    H        2.14600        -4.84200        -1.94000
| 92>    H        5.80800         4.98600        -1.95600
| 93>    H        4.78800        -2.28100        -0.18500
| 94>    H        4.86000         2.11400         1.91200
| 95>    H        6.90100         3.53100         1.77200
| 96>    H        7.38300         6.10900         0.35600
| 97>    H        8.41400         4.65200         0.43500
| 98>    H        7.92100         5.31000        -1.15000
| 99>    H        5.28300         0.33600        -0.17900
|100>    H        3.72000         3.63200        -1.96700
|101> *
|102>
|103>                          ****END OF INPUT****

CARTESIAN COORDINATES (ANGSTROEM)
---------------------------------
  C     -4.638000    5.416000   -0.789000
  C      1.474000    4.041000    0.057000
  C     -2.802000    4.093000    0.049000
  C     -2.534000    5.132000    0.954000
  C     -3.319000    6.267000    0.960000
  C     -5.198000    7.611000    0.152000
  C      0.132000    4.307000    0.061000
  C     -0.569000    3.056000    0.047000
  C      1.649000    2.618000    0.023000
  C     -3.884000    4.260000   -0.830000
  N     -4.352000    6.399000    0.095000
  N      0.388000    2.067000    0.025000
  N     -2.010000    0.395000   -0.075000
  N     -0.388000   -2.074000   -0.027000
  N      2.010000   -0.401000    0.065000
  C     -1.960000    2.861000    0.024000
  C     -2.623000    1.615000   -0.018000
  C     -5.573000   -4.329000    1.066000
  C     -4.073000    1.471000    0.056000
  C     -4.106000   -2.756000   -0.026000
  C     -4.995000   -2.757000   -1.111000
  C     -6.132000   -3.542000   -1.076000
  C     -7.651000   -5.113000    0.040000
  C     -4.324000    0.141000    0.037000
  C     -3.025000   -0.520000   -0.048000
  C     -4.422000   -3.566000    1.075000
  N     -6.407000   -4.313000    0.001000
  C     -2.867000   -1.922000   -0.040000
  C     -1.650000   -2.624000   -0.027000
  C      3.568000   -6.142000   -1.040000
  C     -1.476000   -4.049000   -0.034000
  C      2.803000   -4.099000   -0.008000
  C      3.657000   -4.384000    1.069000
  C      4.427000   -5.530000    1.059000
  C      5.245000   -7.588000    0.014000
  C     -0.134000   -4.315000   -0.022000
  C      0.568000   -3.064000   -0.027000
  C      2.775000   -5.012000   -1.074000
  N      4.376000   -6.391000    0.017000
  C      1.959000   -2.869000   -0.009000
  C      2.621000   -1.622000    0.009000
  C      5.543000    4.339000   -1.130000
  C      4.070000   -1.479000   -0.094000
  C      4.104000    2.751000   -0.021000
  C      5.027000    2.729000    1.036000
  C      6.166000    3.509000    0.978000
  C      7.619000    5.153000   -0.115000
  C      4.321000   -0.148000   -0.092000
  C      3.025000    0.514000    0.015000
  C      4.387000    3.582000   -1.115000
  C      2.866000    1.916000    0.013000
  N      6.413000    4.296000   -0.095000
  H     -5.473000    5.593000   -1.456000
  H      2.274000    4.766000    0.081000
  H     -1.718000    5.058000    1.663000
  H     -3.157000    7.089000    1.644000
  H     -5.981000    7.464000    0.900000
  H     -4.575000    8.462000    0.424000
  H     -5.645000    7.774000   -0.829000
  H     -0.332000    5.282000    0.069000
  H     -4.133000    3.500000   -1.561000
  H      0.182000    1.072000    0.005000
  H     -0.183000   -1.080000   -0.021000
  H     -5.864000   -4.962000    1.895000
  H     -4.794000    2.272000    0.139000
  H     -4.800000   -2.160000   -1.994000
  H     -6.841000   -3.582000   -1.893000
  H     -8.428000   -4.536000    0.546000
  H     -7.956000   -5.337000   -0.981000
  H     -7.456000   -6.037000    0.584000
  H     -5.287000   -0.344000    0.100000
  H     -3.780000   -3.601000    1.947000
  H      3.587000   -6.868000   -1.843000
  H     -2.276000   -4.774000   -0.050000
  H      3.714000   -3.724000    1.926000
  H      5.092000   -5.795000    1.871000
  H      6.205000   -7.329000   -0.439000
  H      5.393000   -7.917000    1.042000
  H      4.759000   -8.373000   -0.564000
  H      0.329000   -5.290000   -0.008000
  H      2.146000   -4.842000   -1.940000
  H      5.808000    4.986000   -1.956000
  H      4.788000   -2.281000   -0.185000
  H      4.860000    2.114000    1.912000
  H      6.901000    3.531000    1.772000
  H      7.383000    6.109000    0.356000
  H      8.414000    4.652000    0.435000
  H      7.921000    5.310000   -1.150000
  H      5.283000    0.336000   -0.179000
  H      3.720000    3.632000   -1.967000

 Total Charge           Charge          ....    0
 Multiplicity           Mult            ....    1
 Number of Electrons    NEL             ....  358
 Basis Dimension        Dim             ....  918

ORBITAL ENERGIES
----------------

  NO   OCC          E(Eh)            E(eV)
   0   2.0000     -15.658337      -426.0850
   1   2.0000     -15.639029      -425.5596
   2   2.0000     -15.628487      -425.2728
   3   2.0000     -15.602920      -424.5770
   4   2.0000     -15.522749      -422.3955
   5   2.0000     -15.515751      -422.2051
   6   2.0000     -15.448440      -420.3734
   7   2.0000     -15.443653      -420.2432
   8   2.0000     -11.314646      -307.8872
   9   2.0000     -11.312074      -307.8172
  10   2.0000     -11.309627      -307.7506
  11   2.0000     -11.302414      -307.5543
  12   2.0000     -11.296053      -307.3812
  13   2.0000     -11.295917      -307.3775
  14   2.0000     -11.292328      -307.2799
  15   2.0000     -11.287023      -307.1355
  16   2.0000     -11.284482      -307.0664
  17   2.0000     -11.280984      -306.9712
  18   2.0000     -11.266089      -306.5659
  19   2.0000     -11.265921      -306.5613
  20   2.0000     -11.261817      -306.4496
  21   2.0000     -11.248203      -306.0792
  22   2.0000     -11.247296      -306.0545
  23   2.0000     -11.242522      -305.9246
  24   2.0000     -11.234691      -305.7115
  25   2.0000     -11.234106      -305.6956
  26   2.0000     -11.233100      -305.6682
  27   2.0000     -11.226894      -305.4993
  28   2.0000     -11.226681      -305.4935
  29   2.0000     -11.212588      -305.1100
  30   2.0000     -11.207746      -304.9783
  31   2.0000     -11.207048      -304.9593
  32   2.0000     -11.206573      -304.9464
  33   2.0000     -11.205542      -304.9183
  34   2.0000     -11.191158      -304.5269
  35   2.0000     -11.190773      -304.5164
  36   2.0000     -11.181571      -304.2660
  37   2.0000     -11.178628      -304.1859
  38   2.0000     -11.178131      -304.1724
  39   2.0000     -11.173959      -304.0589
  40   2.0000     -11.167628      -303.8866
  41   2.0000     -11.167512      -303.8834
  42   2.0000     -11.165506      -303.8289
  43   2.0000     -11.164921      -303.8129
  44   2.0000     -11.164691      -303.8067
  45   2.0000     -11.162179      -303.7383
  46   2.0000     -11.151316      -303.4427
  47   2.0000     -11.149730      -303.3996
  48   2.0000     -11.147666      -303.3434
  49   2.0000     -11.145894      -303.2952
  50   2.0000     -11.137712      -303.0726
  51   2.0000     -11.132827      -302.9396
  52   2.0000      -1.342094       -36.5202
  53   2.0000      -1.325544       -36.0699
  54   2.0000      -1.316566       -35.8256
  55   2.0000      -1.295623       -35.2557
  56   2.0000      -1.222576       -33.2680
  57   2.0000      -1.211112       -32.9560
  58   2.0000      -1.165940       -31.7268
  59   2.0000      -1.155491       -31.4425
  60   2.0000      -1.128140       -30.6982
  61   2.0000      -1.113702       -30.3054
  62   2.0000      -1.106074       -30.0978
  63   2.0000      -1.089405       -29.6442
  64   2.0000      -1.065066       -28.9819
  65   2.0000      -1.049469       -28.5575
  66   2.0000      -1.041269       -28.3344
  67   2.0000      -1.031701       -28.0740
  68   2.0000      -1.022770       -27.8310
  69   2.0000      -1.013281       -27.5728
  70   2.0000      -1.009352       -27.4659
  71   2.0000      -0.993535       -27.0355
  72   2.0000      -0.986800       -26.8522
  73   2.0000      -0.975145       -26.5351
  74   2.0000      -0.973108       -26.4796
  75   2.0000      -0.958782       -26.0898
  76   2.0000      -0.950839       -25.8736
  77   2.0000      -0.947100       -25.7719
  78   2.0000      -0.937342       -25.5064
  79   2.0000      -0.922010       -25.0892
  80   2.0000      -0.897437       -24.4205
  81   2.0000      -0.888363       -24.1736
  82   2.0000      -0.876348       -23.8466
  83   2.0000      -0.869328       -23.6556
  84   2.0000      -0.863705       -23.5026
  85   2.0000      -0.854677       -23.2569
  86   2.0000      -0.846494       -23.0343
  87   2.0000      -0.839589       -22.8464
  88   2.0000      -0.821994       -22.3676
  89   2.0000      -0.798787       -21.7361
  90   2.0000      -0.795673       -21.6514
  91   2.0000      -0.742667       -20.2090
  92   2.0000      -0.735873       -20.0241
  93   2.0000      -0.731306       -19.8998
  94   2.0000      -0.722881       -19.6706
  95   2.0000      -0.719489       -19.5783
  96   2.0000      -0.713209       -19.4074
  97   2.0000      -0.705237       -19.1905
  98   2.0000      -0.701143       -19.0791
  99   2.0000      -0.695823       -18.9343
 100   2.0000      -0.692074       -18.8323
 101   2.0000      -0.681549       -18.5459
 102   2.0000      -0.678800       -18.4711
 103   2.0000      -0.674076       -18.3425
 104   2.0000      -0.670741       -18.2518
 105   2.0000      -0.670108       -18.2346
 106   2.0000      -0.664012       -18.0687
 107   2.0000      -0.661956       -18.0127
 108   2.0000      -0.657065       -17.8796
 109   2.0000      -0.654794       -17.8179
 110   2.0000      -0.650588       -17.7034
 111   2.0000      -0.647843       -17.6287
 112   2.0000      -0.643708       -17.5162
 113   2.0000      -0.636720       -17.3260
 114   2.0000      -0.632338       -17.2068
 115   2.0000      -0.630478       -17.1562
 116   2.0000      -0.623044       -16.9539
 117   2.0000      -0.616241       -16.7688
 118   2.0000      -0.613262       -16.6877
 119   2.0000      -0.611516       -16.6402
 120   2.0000      -0.608569       -16.5600
 121   2.0000      -0.601967       -16.3803
 122   2.0000      -0.597585       -16.2611
 123   2.0000      -0.590915       -16.0796
 124   2.0000      -0.589649       -16.0452
 125   2.0000      -0.584727       -15.9112
 126   2.0000      -0.578331       -15.7372
 127   2.0000      -0.576307       -15.6821
 128   2.0000      -0.563633       -15.3372
 129   2.0000      -0.558599       -15.2003
 130   2.0000      -0.554090       -15.0776
 131   2.0000      -0.549620       -14.9559
 132   2.0000      -0.542169       -14.7532
 133   2.0000      -0.538081       -14.6419
 134   2.0000      -0.534188       -14.5360
 135   2.0000      -0.531804       -14.4711
 136   2.0000      -0.525217       -14.2919
 137   2.0000      -0.523472       -14.2444
 138   2.0000      -0.517636       -14.0856
 139   2.0000      -0.517019       -14.0688
 140   2.0000      -0.509753       -13.8711
 141   2.0000      -0.508695       -13.8423
 142   2.0000      -0.508071       -13.8253
 143   2.0000      -0.501786       -13.6543
 144   2.0000      -0.500387       -13.6162
 145   2.0000      -0.497545       -13.5389
 146   2.0000      -0.493956       -13.4412
 147   2.0000      -0.487822       -13.2743
 148   2.0000      -0.487428       -13.2636
 149   2.0000      -0.469266       -12.7694
 150   2.0000      -0.462861       -12.5951
 151   2.0000      -0.454819       -12.3762
 152   2.0000      -0.448173       -12.1954
 153   2.0000      -0.446959       -12.1624
 154   2.0000      -0.446064       -12.1380
 155   2.0000      -0.439914       -11.9707
 156   2.0000      -0.433999       -11.8097
 157   2.0000      -0.429447       -11.6858
 158   2.0000      -0.397691       -10.8217
 159   2.0000      -0.384719       -10.4687
 160   2.0000      -0.379184       -10.3181
 161   2.0000      -0.373254       -10.1568
 162   2.0000      -0.370808       -10.0902
 163   2.0000      -0.359923        -9.7940
 164   2.0000      -0.353119        -9.6089
 165   2.0000      -0.337453        -9.1826
 166   2.0000      -0.336064        -9.1448
 167   2.0000      -0.335799        -9.1376
 168   2.0000      -0.328693        -8.9442
 169   2.0000      -0.300987        -8.1903
 170   2.0000      -0.299840        -8.1591
 171   2.0000      -0.287523        -7.8239
 172   2.0000      -0.285400        -7.7661
 173   2.0000      -0.258202        -7.0260
 174   2.0000      -0.246451        -6.7063
 175   2.0000      -0.189123        -5.1463
 176   2.0000      -0.179231        -4.8771
 177   2.0000      -0.070408        -1.9159
 178   2.0000      -0.056534        -1.5384
 179   0.0000       0.029507         0.8029
 180   0.0000       0.068760         1.8710
 181   0.0000       0.092548         2.5184
 182   0.0000       0.102783         2.7969
 183   0.0000       0.120652         3.2831

MULLIKEN ATOMIC CHARGES
-----------------------
   0 C :    0.204279
   1 N :   -0.450885
   2 C :   -0.064045
   3 N :   -0.336107
   4 C :   -0.059126
   5 N :   -0.560833
   6 C :   -0.095382
   7 N :   -0.339367
   8 C :    0.204067
   9 N :   -0.562759
  10 C :    0.117518
  11 N :   -0.437392
  12 C :   -0.077414
  13 N :   -0.434464
  14 C :    0.233363
  15 N :   -0.441241
  16 C :    0.230645
  17 C :   -0.092603
  18 C :   -0.187791
  19 C :    0.220472
  20 C :    0.212349
  21 C :   -0.085737
  22 C :   -0.087401
  23 C :   -0.043897
  24 C :    0.200522
  25 C :    0.113879
  26 C :   -0.073790
  27 C :    0.215382
  28 C :   -0.056960
  29 C :   -0.181754
  30 C :    0.240916
  31 C :    0.221846
  32 C :   -0.062924
  33 C :   -0.070672
  34 C :   -0.049564
  35 C :    0.215732
  36 C :    0.111071
  37 C :   -0.065360
  38 C :    0.234877
  39 C :   -0.060292
  40 C :   -0.184269
  41 C :    0.222253
  42 C :    0.199305
  43 C :   -0.073222
  44 C :   -0.090435
  45 C :   -0.057703
  46 C :    0.206928
  47 C :    0.115706
  48 C :   -0.071048
  49 C :    0.232488
  50 C :   -0.049308
  51 C :   -0.191814
  52 H :    0.045293
  53 H :   -0.015457
  54 H :    0.048112
  55 H :    0.043801
  56 H :    0.052479
  57 H :    0.050812
  58 H :    0.050225
  59 H :   -0.003852
  60 H :    0.045874
  61 H :    0.171609
  62 H :    0.174482
  63 H :    0.057025
  64 H :   -0.011096
  65 H :    0.046981
  66 H :    0.057341
  67 H :    0.063565
  68 H :    0.058150
  69 H :    0.058172
  70 H :   -0.026741
  71 H :    0.047339
  72 H :    0.064265
  73 H :   -0.010794
  74 H :    0.053935
  75 H :    0.063397
  76 H :    0.068783
  77 H :    0.063281
  78 H :    0.062433
  79 H :   -0.014793
  80 H :    0.054374
  81 H :    0.053559
  82 H :   -0.024676
  83 H :    0.041664
  84 H :    0.053011
  85 H :    0.059443
  86 H :    0.055462
  87 H :    0.056660
  88 H :   -0.017982
  89 H :    0.045826
Sum of atomic charges:    0.0000000

LOEWDIN ATOMIC CHARGES
----------------------
   0 C :   -0.016882
   1 N :    0.121623
   2 C :   -0.100987
   3 N :    0.181467
   4 C :    0.008452
   5 N :   -0.132983
   6 C :   -0.033216
   7 N :    0.176455
   8 C :   -0.017003
   9 N :   -0.139682
  10 C :    0.025205
  11 N :    0.144702
  12 C :   -0.104633
  13 N :    0.154465
  14 C :   -0.038372
  15 N :    0.137723
  16 C :   -0.053757
  17 C :   -0.033175
  18 C :   -0.102674
  19 C :   -0.086396
  20 C :    0.004385
  21 C :   -0.108676
  22 C :    0.041854
  23 C :   -0.017029
  24 C :   -0.005916
  25 C :    0.030456
  26 C :   -0.106052
  27 C :   -0.107615
  28 C :   -0.023827
  29 C :   -0.102002
  30 C :   -0.038199
  31 C :    0.014159
  32 C :   -0.095718
  33 C :    0.061946
  34 C :   -0.016634
  35 C :    0.009003
  36 C :    0.032578
  37 C :   -0.097277
  38 C :   -0.045571
  39 C :   -0.021710
  40 C :   -0.108134
  41 C :   -0.094376
  42 C :   -0.008998
  43 C :   -0.102314
  44 C :    0.031905
  45 C :   -0.025988
  46 C :   -0.002457
  47 C :    0.029181
  48 C :   -0.100325
  49 C :   -0.078692
  50 C :   -0.020886
  51 C :   -0.109445
  52 H :    0.025668
  53 H :    0.003654
  54 H :    0.041221
  55 H :    0.025512
  56 H :    0.023267
  57 H :    0.027576
  58 H :    0.028494
  59 H :    0.007259
  60 H :    0.040952
  61 H :    0.060122
  62 H :    0.061329
  63 H :    0.031415
  64 H :    0.002290
  65 H :    0.045650
  66 H :    0.030216
  67 H :    0.028833
  68 H :    0.032048
  69 H :    0.031109
  70 H :   -0.003234
  71 H :    0.044810
  72 H :    0.034437
  73 H :    0.005770
  74 H :    0.048023
  75 H :    0.033794
  76 H :    0.031608
  77 H :    0.033964
  78 H :    0.033596
  79 H :    0.003854
  80 H :    0.047653
  81 H :    0.028813
  82 H :   -0.002551
  83 H :    0.042611
  84 H :    0.029212
  85 H :    0.026704
  86 H :    0.030103
  87 H :    0.031142
  88 H :    0.000721
  89 H :    0.044397

  Mayer bond orders larger than 0.100000
B(  0-C ,  1-N ) :   1.0958 B(  0-C , 17-C ) :   1.6813 B(  0-C , 52-H ) :   0.9687
B(  1-N ,  8-C ) :   1.0941 B(  1-N , 10-C ) :   0.9731 B(  2-C , 12-C ) :   1.5230
B(  2-C , 16-C ) :   1.3399 B(  2-C , 53-H ) :   0.9771 B(  3-N , 14-C ) :   1.2128
B(  3-N , 16-C ) :   1.1935 B(  3-N , 61-H ) :   0.8992 B(  4-C ,  6-C ) :   1.2273
B(  4-C , 17-C ) :   1.2279 B(  4-C , 18-C ) :   1.3687 B(  5-N , 19-C ) :   1.4403
B(  5-N , 27-C ) :   1.3896 B(  6-C ,  8-C ) :   1.6815 B(  6-C , 54-H ) :   0.9680
B(  7-N , 30-C ) :   1.1934 B(  7-N , 38-C ) :   1.1965 B(  7-N , 62-H ) :   0.8973
B(  8-C , 55-H ) :   0.9697 B(  9-N , 41-C ) :   1.3981 B(  9-N , 49-C ) :   1.4241
B( 10-C , 56-H ) :   0.9765 B( 10-C , 57-H ) :   0.9829 B( 10-C , 58-H ) :   0.9833
B( 11-N , 20-C ) :   1.1302 B( 11-N , 24-C ) :   1.1165 B( 11-N , 25-C ) :   0.9581
B( 12-C , 14-C ) :   1.3426 B( 12-C , 59-H ) :   0.9753 B( 13-N , 31-C ) :   1.1442
B( 13-N , 35-C ) :   1.1376 B( 13-N , 36-C ) :   0.9502 B( 14-C , 18-C ) :   1.1595
B( 15-N , 42-C ) :   1.1099 B( 15-N , 46-C ) :   1.1184 B( 15-N , 47-C ) :   0.9625
B( 16-C , 51-C ) :   1.1844 B( 17-C , 60-H ) :   0.9679 B( 18-C , 19-C ) :   1.1679
B( 19-C , 21-C ) :   1.2299 B( 20-C , 28-C ) :   1.6235 B( 20-C , 63-H ) :   0.9701
B( 21-C , 26-C ) :   1.6288 B( 21-C , 64-H ) :   0.9716 B( 22-C , 23-C ) :   1.2892
B( 22-C , 28-C ) :   1.2712 B( 22-C , 29-C ) :   1.2213 B( 23-C , 24-C ) :   1.6163
B( 23-C , 65-H ) :   0.9706 B( 24-C , 66-H ) :   0.9693 B( 25-C , 67-H ) :   0.9761
B( 25-C , 68-H ) :   0.9828 B( 25-C , 69-H ) :   0.9822 B( 26-C , 27-C ) :   1.2244
B( 26-C , 70-H ) :   0.9720 B( 27-C , 29-C ) :   1.2216 B( 28-C , 71-H ) :   0.9717
B( 29-C , 30-C ) :   1.2302 B( 30-C , 32-C ) :   1.2935 B( 31-C , 39-C ) :   1.6086
B( 31-C , 72-H ) :   0.9688 B( 32-C , 37-C ) :   1.5654 B( 32-C , 73-H ) :   0.9782
B( 33-C , 34-C ) :   1.2930 B( 33-C , 39-C ) :   1.2858 B( 33-C , 40-C ) :   1.2092
B( 34-C , 35-C ) :   1.6051 B( 34-C , 74-H ) :   0.9700 B( 35-C , 75-H ) :   0.9689
B( 36-C , 76-H ) :   0.9765 B( 36-C , 77-H ) :   0.9818 B( 36-C , 78-H ) :   0.9827
B( 37-C , 38-C ) :   1.2965 B( 37-C , 79-H ) :   0.9772 B( 38-C , 40-C ) :   1.2229
B( 39-C , 80-H ) :   0.9711 B( 40-C , 41-C ) :   1.2351 B( 41-C , 43-C ) :   1.2006
B( 42-C , 50-C ) :   1.6352 B( 42-C , 81-H ) :   0.9696 B( 43-C , 48-C ) :   1.6509
B( 43-C , 82-H ) :   0.9728 B( 44-C , 45-C ) :   1.2651 B( 44-C , 50-C ) :   1.2684
B( 44-C , 51-C ) :   1.2621 B( 45-C , 46-C ) :   1.6356 B( 45-C , 83-H ) :   0.9715
B( 46-C , 84-H ) :   0.9702 B( 47-C , 85-H ) :   0.9762 B( 47-C , 86-H ) :   0.9829
B( 47-C , 87-H ) :   0.9825 B( 48-C , 49-C ) :   1.2028 B( 48-C , 88-H ) :   0.9745
B( 49-C , 51-C ) :   1.2274 B( 50-C , 89-H ) :   0.9711

MP2 TOTAL ENERGY:    -2130.914847768 Eh
FINAL SINGLE POINT ENERGY     -2130.914847768365

DIPOLE MOMENT
-------------
                                X             Y             Z
Electronic contribution:      1.18262      -2.82906      -0.21763
Nuclear contribution   :      0.01667       0.19688       0.22643
                        -----------------------------------------
Total Dipole Moment    :      1.19929      -2.63219       0.00880
                        -----------------------------------------
Magnitude (a.u.)       :      2.89254
Magnitude (Debye)      :      7.35225

Rotational constants in cm-1:     0.001499     0.001476     0.000761
Rotational constants in MHz :    44.936771    44.250582    22.829087

                             ****ORCA TERMINATED NORMALLY****
TOTAL RUN TIME: 0 days 1 hours 23 minutes 6 seconds 113 msec
