                         Program Version 5.0.4 -  RELEASE  -
|  1> ! PAL2
|  2> ! mp2 cc-pvdz TightSCF  NoKeepInts
|  3>
|  4> %scf
|  5>   MaxCore 2000
|  6> end
|  7> %mp2
|  8>   MaxCore 2000
|  9> end
| 10> * xyz 0 1
| 11>    C       -3.22700         6.37700        -0.60500
| 12>    C        1.47400         4.04100         0.05700
| 13>    C       -2.80200         4.09300         0.04900
| 14>    C       -3.99500         4.13600         0.78800
| 15>    C       -4.75900         5.28600         0.80400
| 16>    C       -5.23100         7.59000         0.12400
| 17>    C        0.13200         4.30700         0.06100
| 18>    C       -0.56900         3.05600         0.04700
| 19>    C        1.64900         2.61800         0.02300
| 20>    C       -2.43200         5.24800        -0.65700
| 21>    N       -4.37000         6.38600         0.11700
| 22>    N        0.38800         2.06700         0.02500
| 23>    N       -2.01000         0.39500        -0.07500
| 24>    N       -0.38800        -2.07400        -0.02700
| 25>    N        2.01000        -0.40100         0.06500
| 26>    C       -1.96000         2.86100         0.02400
| 27>    C       -2.62300         1.61500        -0.01800
| 28>    C       -5.57300        -4.32900         1.06600
| 29>    C       -4.07300         1.47100         0.05600
| 30>    C       -4.10600        -2.75600        -0.02600
| 31>    C       -4.99500        -2.75700        -1.11100
| 32>    C       -6.13200        -3.54200        -1.07600
| 33>    C       -7.65100        -5.11300         0.04000
| 34>    C       -4.32400         0.14100         0.03700
| 35>    C       -3.02500        -0.52000        -0.04800
| 36>    C       -4.42200        -3.56600         1.07500
| 37>    N       -6.40700        -4.31300         0.00100
| 38>    C       -2.86700        -1.92200        -0.04000
| 39>    C       -1.65000        -2.62400        -0.02700
| 40>    C        3.56800        -6.14200        -1.04000
| 41>    C       -1.47600        -4.04900        -0.03400
| 42>    C        2.80300        -4.09900        -0.00800
| 43>    C        3.65700        -4.38400         1.06900
| 44>    C        4.42700        -5.53000         1.05900
| 45>    C        5.24500        -7.58800         0.01400
| 46>    C       -0.13400        -4.31500        -0.02200
| 47>    C        0.56800        -3.06400        -0.02700
| 48>    C        2.77500        -5.01200        -1.07400
| 49>    N        4.37600        -6.39100         0.01700
| 50>    C        1.95900        -2.86900        -0.00900
| 51>    C        2.62100        -1.62200         0.00900
| 52>    C        5.54300         4.33900        -1.13000
| 53>    C        4.07000        -1.47900        -0.09400
| 54>    C        4.10400         2.75100        -0.02100
| 55>    C        5.02700         2.72900         1.03600
| 56>    C        6.16600         3.50900         0.97800
| 57>    C        7.61900         5.15300        -0.11500
| 58>    C        4.32100        -0.14800        -0.09200
| 59>    C        3.02500         0.51400         0.01500
| 60>    C        4.38700         3.58200        -1.11500
| 61>    C        2.86600         1.91600         0.01300
| 62>    N        6.41300         4.29600        -0.09500
| 63>    H       -2.97400         7.29400        -1.12300
| 64>    H        2.27400         4.76600         0.08100
| 65>    H       -4.33800         3.27400         1.34500
| 66>    H       -5.68900         5.36400         1.35100
| 67>    H       -5.98400         7.49300        -0.66100
| 68>    H       -5.71300         7.67100         1.09800
| 69>    H       -4.60900         8.46600        -0.05900
| 70>    H       -0.33200         5.28200         0.06900
| 71>    H       -1.51500         5.28200        -1.23400
| 72>    H        0.18200         1.07200         0.00500
| 73>    H       -0.18300        -1.08000        -0.02100
| 74>    H       -5.86400        -4.96200         1.89500
| 75>    H       -4.79400         2.27200         0.13900
| 76>    H       -4.80000        -2.16000        -1.99400
| 77>    H       -6.84100        -3.58200        -1.89300
| 78>    H       -8.42800        -4.53600         0.54600
| 79>    H       -7.95600        -5.33700        -0.98100
| 80>    H       -7.45600        -6.03700         0.58400
| 81>    H       -5.28700        -0.34400         0.10000
| 82>    H       -3.78000        -3.60100         1.94700
| 83>    H        3.58700        -6.86800        -1.84300
| 84>    H       -2.27600        -4.77400        -0.05000
| 85>    H        3.71400        -3.72400         1.92600
| 86>    H        5.09200        -5.79500         1.87100
| 87>    H        6.20500        -7.32900        -0.43900
| 88>    H        5.39300        -7.91700         1.04200
| 89>    H        4.75900        -8.37300        -0.56400
| 90>    H        0.32900        -5.29000        -0.00800
| 91>    H        2.14600        -4.84200        -1.94000
| 92>    H        5.80800         4.98600        -1.95600
| 93>    H        4.78800        -2.28100        -0.18500
| 94>    H        4.86000         2.11400         1.91200
| 95>    H        6.90100         3.53100         1.77200
| 96>    H        7.38300         6.10900         0.35600
| 97>    H        8.41400         4.65200         0.43500
| 98>    H        7.92100         5.31000        -1.15000
| 99>    H        5.28300         0.33600        -0.17900
|100>    H        3.72000         3.63200        -1.96700
|101> *
|102>
|103>                          ****END OF INPUT****

CARTESIAN COORDINATES (ANGSTROEM)
---------------------------------
  C     -3.227000    6.377000   -0.605000
  C      1.474000    4.041000    0.057000
  C     -2.802000    4.093000    0.049000
  C     -3.995000    4.136000    0.788000
  C     -4.759000    5.286000    0.804000
  C     -5.231000    7.590000    0.124000
  C      0.132000    4.307000    0.061000
  C     -0.569000    3.056000    0.047000
  C      1.649000    2.618000    0.023000
  C     -2.432000    5.248000   -0.657000
  N     -4.370000    6.386000    0.117000
  N      0.388000    2.067000    0.025000
  N     -2.010000    0.395000   -0.075000
  N     -0.388000   -2.074000   -0.027000
  N      2.010000   -0.401000    0.065000
  C     -1.960000    2.861000    0.024000
  C     -2.623000    1.615000   -0.018000
  C     -5.573000   -4.329000    1.066000
  C     -4.073000    1.471000    0.056000
  C     -4.106000   -2.756000   -0.026000
  C     -4.995000   -2.757000   -1.111000
  C     -6.132000   -3.542000   -1.076000
  C     -7.651000   -5.113000    0.040000
  C     -4.324000    0.141000    0.037000
  C     -3.025000   -0.520000   -0.048000
  C     -4.422000   -3.566000    1.075000
  N     -6.407000   -4.313000    0.001000
  C     -2.867000   -1.922000   -0.040000
  C     -1.650000   -2.624000   -0.027000
  C      3.568000   -6.142000   -1.040000
  C     -1.476000   -4.049000   -0.034000
  C      2.803000   -4.099000   -0.008000
  C      3.657000   -4.384000    1.069000
  C      4.427000   -5.530000    1.059000
  C      5.245000   -7.588000    0.014000
  C     -0.134000   -4.315000   -0.022000
  C      0.568000   -3.064000   -0.027000
  C      2.775000   -5.012000   -1.074000
  N      4.376000   -6.391000    0.017000
  C      1.959000   -2.869000   -0.009000
  C      2.621000   -1.622000    0.009000
  C      5.543000    4.339000   -1.130000
  C      4.070000   -1.479000   -0.094000
  C      4.104000    2.751000   -0.021000
  C      5.027000    2.729000    1.036000
  C      6.166000    3.509000    0.978000
  C      7.619000    5.153000   -0.115000
  C      4.321000   -0.148000   -0.092000
  C      3.025000    0.514000    0.015000
  C      4.387000    3.582000   -1.115000
  C      2.866000    1.916000    0.013000
  N      6.413000    4.296000   -0.095000
  H     -2.974000    7.294000   -1.123000
  H      2.274000    4.766000    0.081000
  H     -4.338000    3.274000    1.345000
  H     -5.689000    5.364000    1.351000
  H     -5.984000    7.493000   -0.661000
  H     -5.713000    7.671000    1.098000
  H     -4.609000    8.466000   -0.059000
  H     -0.332000    5.282000    0.069000
  H     -1.515000    5.282000   -1.234000
  H      0.182000    1.072000    0.005000
  H     -0.183000   -1.080000   -0.021000
  H     -5.864000   -4.962000    1.895000
  H     -4.794000    2.272000    0.139000
  H     -4.800000   -2.160000   -1.994000
  H     -6.841000   -3.582000   -1.893000
  H     -8.428000   -4.536000    0.546000
  H     -7.956000   -5.337000   -0.981000
  H     -7.456000   -6.037000    0.584000
  H     -5.287000   -0.344000    0.100000
  H     -3.780000   -3.601000    1.947000
  H      3.587000   -6.868000   -1.843000
  H     -2.276000   -4.774000   -0.050000
  H      3.714000   -3.724000    1.926000
  H      5.092000   -5.795000    1.871000
  H      6.205000   -7.329000   -0.439000
  H      5.393000   -7.917000    1.042000
  H      4.759000   -8.373000   -0.564000
  H      0.329000   -5.290000   -0.008000
  H      2.146000   -4.842000   -1.940000
  H      5.808000    4.986000   -1.956000
  H      4.788000   -2.281000   -0.185000
  H      4.860000    2.114000    1.912000
  H      6.901000    3.531000    1.772000
  H      7.383000    6.109000    0.356000
  H      8.414000    4.652000    0.435000
  H      7.921000    5.310000   -1.150000
  H      5.283000    0.336000   -0.179000
  H      3.720000    3.632000   -1.967000

 Total Charge           Charge          ....    0
 Multiplicity           Mult            ....    1
 Number of Electrons    NEL             ....  358
 Basis Dimension        Dim             ....  918

ORBITAL ENERGIES
----------------

  NO   OCC          E(Eh)            E(eV)
   0   2.0000     -15.666894      -426.3179
   1   2.0000     -15.635405      -425.4610
   2   2.0000     -15.630597      -425.3302
   3   2.0000     -15.596533      -424.4032
   4   2.0000     -15.523708      -422.4216
   5   2.0000     -15.516381      -422.2222
   6   2.0000     -15.451047      -420.4444
   7   2.0000     -15.442144      -420.2021
   8   2.0000     -11.319966      -308.0319
   9   2.0000     -11.318913      -308.0033
  10   2.0000     -11.317271      -307.9586
  11   2.0000     -11.300212      -307.4944
  12   2.0000     -11.297496      -307.4205
  13   2.0000     -11.293513      -307.3121
  14   2.0000     -11.289352      -307.1989
  15   2.0000     -11.288515      -307.1761
  16   2.0000     -11.286096      -307.1103
  17   2.0000     -11.276821      -306.8579
  18   2.0000     -11.269935      -306.6705
  19   2.0000     -11.261423      -306.4389
  20   2.0000     -11.259434      -306.3848
  21   2.0000     -11.254307      -306.2453
  22   2.0000     -11.253370      -306.2198
  23   2.0000     -11.238994      -305.8286
  24   2.0000     -11.235315      -305.7285
  25   2.0000     -11.232210      -305.6440
  26   2.0000     -11.231406      -305.6221
  27   2.0000     -11.228745      -305.5497
  28   2.0000     -11.228648      -305.5470
  29   2.0000     -11.207980      -304.9846
  30   2.0000     -11.206916      -304.9557
  31   2.0000     -11.205887      -304.9277
  32   2.0000     -11.200388      -304.7781
  33   2.0000     -11.198835      -304.7358
  34   2.0000     -11.190937      -304.5209
  35   2.0000     -11.190182      -304.5003
  36   2.0000     -11.185705      -304.3785
  37   2.0000     -11.183307      -304.3132
  38   2.0000     -11.182390      -304.2883
  39   2.0000     -11.172570      -304.0211
  40   2.0000     -11.169964      -303.9502
  41   2.0000     -11.169759      -303.9446
  42   2.0000     -11.165695      -303.8340
  43   2.0000     -11.163039      -303.7617
  44   2.0000     -11.161197      -303.7116
  45   2.0000     -11.159825      -303.6743
  46   2.0000     -11.156227      -303.5764
  47   2.0000     -11.152141      -303.4652
  48   2.0000     -11.149390      -303.3903
  49   2.0000     -11.143087      -303.2188
  50   2.0000     -11.134724      -302.9912
  51   2.0000     -11.127174      -302.7858
  52   2.0000      -1.349412       -36.7194
  53   2.0000      -1.322453       -35.9858
  54   2.0000      -1.318489       -35.8779
  55   2.0000      -1.289784       -35.0968
  56   2.0000      -1.223818       -33.3018
  57   2.0000      -1.211139       -32.9568
  58   2.0000      -1.169454       -31.8225
  59   2.0000      -1.153472       -31.3876
  60   2.0000      -1.134412       -30.8689
  61   2.0000      -1.111152       -30.2360
  62   2.0000      -1.107988       -30.1499
  63   2.0000      -1.084821       -29.5195
  64   2.0000      -1.071890       -29.1676
  65   2.0000      -1.046562       -28.4784
  66   2.0000      -1.043196       -28.3868
  67   2.0000      -1.035109       -28.1668
  68   2.0000      -1.017833       -27.6966
  69   2.0000      -1.013728       -27.5850
  70   2.0000      -1.009862       -27.4797
  71   2.0000      -0.992391       -27.0043
  72   2.0000      -0.987363       -26.8675
  73   2.0000      -0.977611       -26.6022
  74   2.0000      -0.972871       -26.4732
  75   2.0000      -0.960060       -26.1246
  76   2.0000      -0.951737       -25.8981
  77   2.0000      -0.947624       -25.7862
  78   2.0000      -0.935820       -25.4650
  79   2.0000      -0.920842       -25.0574
  80   2.0000      -0.901880       -24.5414
  81   2.0000      -0.891782       -24.2666
  82   2.0000      -0.874321       -23.7915
  83   2.0000      -0.871079       -23.7033
  84   2.0000      -0.866738       -23.5851
  85   2.0000      -0.855985       -23.2925
  86   2.0000      -0.843523       -22.9534
  87   2.0000      -0.837373       -22.7861
  88   2.0000      -0.823112       -22.3980
  89   2.0000      -0.798448       -21.7269
  90   2.0000      -0.793825       -21.6011
  91   2.0000      -0.746541       -20.3144
  92   2.0000      -0.738918       -20.1070
  93   2.0000      -0.731865       -19.9151
  94   2.0000      -0.722901       -19.6711
  95   2.0000      -0.721124       -19.6228
  96   2.0000      -0.714359       -19.4387
  97   2.0000      -0.707830       -19.2610
  98   2.0000      -0.703953       -19.1555
  99   2.0000      -0.695955       -18.9379
 100   2.0000      -0.694843       -18.9077
 101   2.0000      -0.682640       -18.5756
 102   2.0000      -0.678628       -18.4664
 103   2.0000      -0.676610       -18.4115
 104   2.0000      -0.675884       -18.3917
 105   2.0000      -0.672195       -18.2914
 106   2.0000      -0.666385       -18.1333
 107   2.0000      -0.661912       -18.0115
 108   2.0000      -0.655128       -17.8269
 109   2.0000      -0.654066       -17.7980
 110   2.0000      -0.650238       -17.6939
 111   2.0000      -0.645319       -17.5600
 112   2.0000      -0.641785       -17.4639
 113   2.0000      -0.638188       -17.3660
 114   2.0000      -0.636735       -17.3264
 115   2.0000      -0.628430       -17.1004
 116   2.0000      -0.626230       -17.0406
 117   2.0000      -0.616726       -16.7820
 118   2.0000      -0.613479       -16.6936
 119   2.0000      -0.611673       -16.6445
 120   2.0000      -0.610409       -16.6101
 121   2.0000      -0.603414       -16.4197
 122   2.0000      -0.600866       -16.3504
 123   2.0000      -0.587817       -15.9953
 124   2.0000      -0.584211       -15.8972
 125   2.0000      -0.581845       -15.8328
 126   2.0000      -0.579617       -15.7722
 127   2.0000      -0.577191       -15.7062
 128   2.0000      -0.564362       -15.3571
 129   2.0000      -0.558663       -15.2020
 130   2.0000      -0.553443       -15.0600
 131   2.0000      -0.548379       -14.9222
 132   2.0000      -0.541776       -14.7425
 133   2.0000      -0.538085       -14.6420
 134   2.0000      -0.536838       -14.6081
 135   2.0000      -0.535331       -14.5671
 136   2.0000      -0.526192       -14.3184
 137   2.0000      -0.524325       -14.2676
 138   2.0000      -0.516503       -14.0548
 139   2.0000      -0.515030       -14.0147
 140   2.0000      -0.511637       -13.9223
 141   2.0000      -0.510926       -13.9030
 142   2.0000      -0.508562       -13.8387
 143   2.0000      -0.503029       -13.6881
 144   2.0000      -0.501280       -13.6405
 145   2.0000      -0.497746       -13.5443
 146   2.0000      -0.494153       -13.4466
 147   2.0000      -0.485737       -13.2176
 148   2.0000      -0.482753       -13.1364
 149   2.0000      -0.467891       -12.7320
 150   2.0000      -0.464663       -12.6441
 151   2.0000      -0.456640       -12.4258
 152   2.0000      -0.449394       -12.2286
 153   2.0000      -0.445964       -12.1353
 154   2.0000      -0.443178       -12.0595
 155   2.0000      -0.440036       -11.9740
 156   2.0000      -0.430898       -11.7253
 157   2.0000      -0.423805       -11.5323
 158   2.0000      -0.401631       -10.9289
 159   2.0000      -0.387656       -10.5487
 160   2.0000      -0.379488       -10.3264
 161   2.0000      -0.377902       -10.2832
 162   2.0000      -0.370112       -10.0713
 163   2.0000      -0.357543        -9.7293
 164   2.0000      -0.354888        -9.6570
 165   2.0000      -0.338921        -9.2225
 166   2.0000      -0.337158        -9.1745
 167   2.0000      -0.329755        -8.9731
 168   2.0000      -0.326934        -8.8963
 169   2.0000      -0.302378        -8.2281
 170   2.0000      -0.299874        -8.1600
 171   2.0000      -0.286839        -7.8053
 172   2.0000      -0.283878        -7.7247
 173   2.0000      -0.261214        -7.1080
 174   2.0000      -0.244509        -6.6534
 175   2.0000      -0.189588        -5.1589
 176   2.0000      -0.179840        -4.8937
 177   2.0000      -0.073193        -1.9917
 178   2.0000      -0.057446        -1.5632
 179   0.0000       0.028940         0.7875
 180   0.0000       0.067551         1.8382
 181   0.0000       0.091851         2.4994
 182   0.0000       0.106560         2.8996
 183   0.0000       0.114760         3.1228

MULLIKEN ATOMIC CHARGES
-----------------------
   0 C :    0.208024
   1 N :   -0.453432
   2 C :   -0.063036
   3 N :   -0.336189
   4 C :   -0.049656
   5 N :   -0.563202
   6 C :   -0.102623
   7 N :   -0.339676
   8 C :    0.205585
   9 N :   -0.562515
  10 C :    0.118350
  11 N :   -0.438125
  12 C :   -0.083522
  13 N :   -0.432501
  14 C :    0.238996
  15 N :   -0.441028
  16 C :    0.227997
  17 C :   -0.113528
  18 C :   -0.203545
  19 C :    0.231708
  20 C :    0.212082
  21 C :   -0.095986
  22 C :   -0.090557
  23 C :   -0.041817
  24 C :    0.196662
  25 C :    0.114404
  26 C :   -0.076361
  27 C :    0.213826
  28 C :   -0.059411
  29 C :   -0.180677
  30 C :    0.243275
  31 C :    0.224847
  32 C :   -0.062723
  33 C :   -0.066449
  34 C :   -0.050672
  35 C :    0.221267
  36 C :    0.109927
  37 C :   -0.065062
  38 C :    0.232944
  39 C :   -0.058797
  40 C :   -0.183446
  41 C :    0.224601
  42 C :    0.198701
  43 C :   -0.072579
  44 C :   -0.089688
  45 C :   -0.059006
  46 C :    0.209262
  47 C :    0.115468
  48 C :   -0.068915
  49 C :    0.235499
  50 C :   -0.048216
  51 C :   -0.190702
  52 H :    0.042247
  53 H :   -0.015919
  54 H :    0.052390
  55 H :    0.041195
  56 H :    0.051028
  57 H :    0.049614
  58 H :    0.048873
  59 H :    0.000123
  60 H :    0.048066
  61 H :    0.171512
  62 H :    0.174761
  63 H :    0.055599
  64 H :   -0.008287
  65 H :    0.047430
  66 H :    0.056318
  67 H :    0.062444
  68 H :    0.057552
  69 H :    0.057003
  70 H :   -0.028087
  71 H :    0.045448
  72 H :    0.067157
  73 H :   -0.009524
  74 H :    0.056537
  75 H :    0.066442
  76 H :    0.071252
  77 H :    0.065205
  78 H :    0.064476
  79 H :   -0.015750
  80 H :    0.057309
  81 H :    0.053864
  82 H :   -0.024389
  83 H :    0.042232
  84 H :    0.053899
  85 H :    0.060361
  86 H :    0.055709
  87 H :    0.056929
  88 H :   -0.016254
  89 H :    0.045449
Sum of atomic charges:    0.0000000

LOEWDIN ATOMIC CHARGES
----------------------
   0 C :   -0.018675
   1 N :    0.118899
   2 C :   -0.100899
   3 N :    0.182920
   4 C :    0.000001
   5 N :   -0.133331
   6 C :   -0.034590
   7 N :    0.176239
   8 C :   -0.020262
   9 N :   -0.140161
  10 C :    0.024906
  11 N :    0.142661
  12 C :   -0.110255
  13 N :    0.159173
  14 C :   -0.032377
  15 N :    0.138511
  16 C :   -0.056902
  17 C :   -0.041284
  18 C :   -0.102915
  19 C :   -0.083540
  20 C :    0.003545
  21 C :   -0.117800
  22 C :    0.037725
  23 C :   -0.015798
  24 C :   -0.009711
  25 C :    0.029978
  26 C :   -0.106267
  27 C :   -0.111604
  28 C :   -0.025986
  29 C :   -0.101568
  30 C :   -0.034129
  31 C :    0.017973
  32 C :   -0.095717
  33 C :    0.069927
  34 C :   -0.016308
  35 C :    0.015083
  36 C :    0.033656
  37 C :   -0.096223
  38 C :   -0.049075
  39 C :   -0.019750
  40 C :   -0.108338
  41 C :   -0.091978
  42 C :   -0.009457
  43 C :   -0.100612
  44 C :    0.032961
  45 C :   -0.026571
  46 C :   -0.000153
  47 C :    0.029411
  48 C :   -0.097240
  49 C :   -0.074845
  50 C :   -0.020232
  51 C :   -0.108447
  52 H :    0.024625
  53 H :    0.003413
  54 H :    0.042526
  55 H :    0.024389
  56 H :    0.022427
  57 H :    0.027208
  58 H :    0.027739
  59 H :    0.009090
  60 H :    0.040214
  61 H :    0.060153
  62 H :    0.061491
  63 H :    0.030800
  64 H :    0.004498
  65 H :    0.045889
  66 H :    0.029642
  67 H :    0.028257
  68 H :    0.031770
  69 H :    0.030568
  70 H :   -0.003724
  71 H :    0.043858
  72 H :    0.035766
  73 H :    0.006384
  74 H :    0.049063
  75 H :    0.035296
  76 H :    0.032896
  77 H :    0.034870
  78 H :    0.034548
  79 H :    0.003377
  80 H :    0.048981
  81 H :    0.028912
  82 H :   -0.002459
  83 H :    0.042773
  84 H :    0.029678
  85 H :    0.027138
  86 H :    0.030238
  87 H :    0.031270
  88 H :    0.001540
  89 H :    0.044332

  Mayer bond orders larger than 0.100000
B(  0-C ,  1-N ) :   1.0964 B(  0-C , 17-C ) :   1.6894 B(  0-C , 52-H ) :   0.9681
B(  1-N ,  8-C ) :   1.0890 B(  1-N , 10-C ) :   0.9749 B(  2-C , 12-C ) :   1.5151
B(  2-C , 16-C ) :   1.3491 B(  2-C , 53-H ) :   0.9760 B(  3-N , 14-C ) :   1.2165
B(  3-N , 16-C ) :   1.1917 B(  3-N , 61-H ) :   0.8990 B(  4-C ,  6-C ) :   1.2189
B(  4-C , 17-C ) :   1.2208 B(  4-C , 18-C ) :   1.4059 B(  5-N , 19-C ) :   1.4464
B(  5-N , 27-C ) :   1.3838 B(  6-C ,  8-C ) :   1.6965 B(  6-C , 54-H ) :   0.9619
B(  7-N , 30-C ) :   1.1955 B(  7-N , 38-C ) :   1.1933 B(  7-N , 62-H ) :   0.8972
B(  8-C , 55-H ) :   0.9681 B(  9-N , 41-C ) :   1.3974 B(  9-N , 49-C ) :   1.4232
B( 10-C , 56-H ) :   0.9768 B( 10-C , 57-H ) :   0.9821 B( 10-C , 58-H ) :   0.9842
B( 11-N , 20-C ) :   1.1294 B( 11-N , 24-C ) :   1.1108 B( 11-N , 25-C ) :   0.9597
B( 12-C , 14-C ) :   1.3501 B( 12-C , 59-H ) :   0.9743 B( 13-N , 31-C ) :   1.1505
B( 13-N , 35-C ) :   1.1471 B( 13-N , 36-C ) :   0.9466 B( 14-C , 18-C ) :   1.1426
B( 15-N , 42-C ) :   1.1094 B( 15-N , 46-C ) :   1.1211 B( 15-N , 47-C ) :   0.9617
B( 16-C , 51-C ) :   1.1771 B( 17-C , 60-H ) :   0.9641 B( 18-C , 19-C ) :   1.1495
B( 19-C , 21-C ) :   1.2378 B( 20-C , 28-C ) :   1.6272 B( 20-C , 63-H ) :   0.9703
B( 21-C , 26-C ) :   1.6177 B( 21-C , 64-H ) :   0.9697 B( 22-C , 23-C ) :   1.2884
B( 22-C , 28-C ) :   1.2666 B( 22-C , 29-C ) :   1.2238 B( 23-C , 24-C ) :   1.6194
B( 23-C , 65-H ) :   0.9705 B( 24-C , 66-H ) :   0.9694 B( 25-C , 67-H ) :   0.9760
B( 25-C , 68-H ) :   0.9828 B( 25-C , 69-H ) :   0.9823 B( 26-C , 27-C ) :   1.2338
B( 26-C , 70-H ) :   0.9714 B( 27-C , 29-C ) :   1.2183 B( 28-C , 71-H ) :   0.9718
B( 29-C , 30-C ) :   1.2339 B( 30-C , 32-C ) :   1.2899 B( 31-C , 39-C ) :   1.6003
B( 31-C , 72-H ) :   0.9686 B( 32-C , 37-C ) :   1.5688 B( 32-C , 73-H ) :   0.9784
B( 33-C , 34-C ) :   1.2982 B( 33-C , 39-C ) :   1.2934 B( 33-C , 40-C ) :   1.1966
B( 34-C , 35-C ) :   1.5974 B( 34-C , 74-H ) :   0.9699 B( 35-C , 75-H ) :   0.9686
B( 36-C , 76-H ) :   0.9766 B( 36-C , 77-H ) :   0.9817 B( 36-C , 78-H ) :   0.9826
B( 37-C , 38-C ) :   1.2939 B( 37-C , 79-H ) :   0.9769 B( 38-C , 40-C ) :   1.2254
B( 39-C , 80-H ) :   0.9708 B( 40-C , 41-C ) :   1.2423 B( 41-C , 43-C ) :   1.1923
B( 42-C , 50-C ) :   1.6335 B( 42-C , 81-H ) :   0.9697 B( 43-C , 48-C ) :   1.6599
B( 43-C , 82-H ) :   0.9726 B( 44-C , 45-C ) :   1.2652 B( 44-C , 50-C ) :   1.2707
B( 44-C , 51-C ) :   1.2595 B( 45-C , 46-C ) :   1.6346 B( 45-C , 83-H ) :   0.9717
B( 46-C , 84-H ) :   0.9701 B( 47-C , 85-H ) :   0.9762 B( 47-C , 86-H ) :   0.9829
B( 47-C , 87-H ) :   0.9825 B( 48-C , 49-C ) :   1.1951 B( 48-C , 88-H ) :   0.9746
B( 49-C , 51-C ) :   1.2364 B( 50-C , 89-H ) :   0.9711

MP2 TOTAL ENERGY:    -2130.900603057 Eh
FINAL SINGLE POINT ENERGY     -2130.900603057365

DIPOLE MOMENT
-------------
                                X             Y             Z
Electronic contribution:      1.99266      -3.30746      -0.11992
Nuclear contribution   :     -0.04925       0.15235       0.14573
                        -----------------------------------------
Total Dipole Moment    :      1.94341      -3.15511       0.02581
                        -----------------------------------------
Magnitude (a.u.)       :      3.70570
Magnitude (Debye)      :      9.41915

Rotational constants in cm-1:     0.001501     0.001476     0.000761
Rotational constants in MHz :    45.003803    44.250555    22.811883

                             ****ORCA TERMINATED NORMALLY****
TOTAL RUN TIME: 0 days 1 hours 31 minutes 9 seconds 201 msec
