                         Program Version 5.0.4 -  RELEASE  -
|  1> ! PAL2
|  2> ! mp2 cc-pvdz TightSCF  NoKeepInts
|  3>
|  4> %scf
|  5>   MaxCore 2000
|  6> end
|  7> %mp2
|  8>   MaxCore 2000
|  9> end
| 10> * xyz 0 1
| 11>    C       -4.42600         5.56500        -0.96200
| 12>    C        1.47400         4.04100         0.05700
| 13>    C       -2.80200         4.09300         0.04900
| 14>    C       -2.75100         4.97900         1.13600
| 15>    C       -3.53300         6.11700         1.14000
| 16>    C       -5.20600         7.60600         0.15300
| 17>    C        0.13200         4.30700         0.06100
| 18>    C       -0.56900         3.05600         0.04700
| 19>    C        1.64900         2.61800         0.02300
| 20>    C       -3.66700         4.41200        -1.00900
| 21>    N       -4.35200         6.39900         0.10000
| 22>    N        0.38800         2.06700         0.02500
| 23>    N       -2.01000         0.39500        -0.07500
| 24>    N       -0.38800        -2.07400        -0.02700
| 25>    N        2.01000        -0.40100         0.06500
| 26>    C       -1.96000         2.86100         0.02400
| 27>    C       -2.62300         1.61500        -0.01800
| 28>    C       -5.57300        -4.32900         1.06600
| 29>    C       -4.07300         1.47100         0.05600
| 30>    C       -4.10600        -2.75600        -0.02600
| 31>    C       -4.99500        -2.75700        -1.11100
| 32>    C       -6.13200        -3.54200        -1.07600
| 33>    C       -7.65100        -5.11300         0.04000
| 34>    C       -4.32400         0.14100         0.03700
| 35>    C       -3.02500        -0.52000        -0.04800
| 36>    C       -4.42200        -3.56600         1.07500
| 37>    N       -6.40700        -4.31300         0.00100
| 38>    C       -2.86700        -1.92200        -0.04000
| 39>    C       -1.65000        -2.62400        -0.02700
| 40>    C        3.56800        -6.14200        -1.04000
| 41>    C       -1.47600        -4.04900        -0.03400
| 42>    C        2.80300        -4.09900        -0.00800
| 43>    C        3.65700        -4.38400         1.06900
| 44>    C        4.42700        -5.53000         1.05900
| 45>    C        5.24500        -7.58800         0.01400
| 46>    C       -0.13400        -4.31500        -0.02200
| 47>    C        0.56800        -3.06400        -0.02700
| 48>    C        2.77500        -5.01200        -1.07400
| 49>    N        4.37600        -6.39100         0.01700
| 50>    C        1.95900        -2.86900        -0.00900
| 51>    C        2.62100        -1.62200         0.00900
| 52>    C        5.54300         4.33900        -1.13000
| 53>    C        4.07000        -1.47900        -0.09400
| 54>    C        4.10400         2.75100        -0.02100
| 55>    C        5.02700         2.72900         1.03600
| 56>    C        6.16600         3.50900         0.97800
| 57>    C        7.61900         5.15300        -0.11500
| 58>    C        4.32100        -0.14800        -0.09200
| 59>    C        3.02500         0.51400         0.01500
| 60>    C        4.38700         3.58200        -1.11500
| 61>    C        2.86600         1.91600         0.01300
| 62>    N        6.41300         4.29600        -0.09500
| 63>    H       -5.09600         5.85700        -1.76100
| 64>    H        2.27400         4.76600         0.08100
| 65>    H       -2.11000         4.78400         1.98700
| 66>    H       -3.53400         6.82500         1.95900
| 67>    H       -6.13100         7.36500         0.68100
| 68>    H       -4.66700         8.39400         0.67900
| 69>    H       -5.42800         7.92300        -0.86600
| 70>    H       -0.33200         5.28200         0.06900
| 71>    H       -3.74100         3.77400        -1.88300
| 72>    H        0.18200         1.07200         0.00500
| 73>    H       -0.18300        -1.08000        -0.02100
| 74>    H       -5.86400        -4.96200         1.89500
| 75>    H       -4.79400         2.27200         0.13900
| 76>    H       -4.80000        -2.16000        -1.99400
| 77>    H       -6.84100        -3.58200        -1.89300
| 78>    H       -8.42800        -4.53600         0.54600
| 79>    H       -7.95600        -5.33700        -0.98100
| 80>    H       -7.45600        -6.03700         0.58400
| 81>    H       -5.28700        -0.34400         0.10000
| 82>    H       -3.78000        -3.60100         1.94700
| 83>    H        3.58700        -6.86800        -1.84300
| 84>    H       -2.27600        -4.77400        -0.05000
| 85>    H        3.71400        -3.72400         1.92600
| 86>    H        5.09200        -5.79500         1.87100
| 87>    H        6.20500        -7.32900        -0.43900
| 88>    H        5.39300        -7.91700         1.04200
| 89>    H        4.75900        -8.37300        -0.56400
| 90>    H        0.32900        -5.29000        -0.00800
| 91>    H        2.14600        -4.84200        -1.94000
| 92>    H        5.80800         4.98600        -1.95600
| 93>    H        4.78800        -2.28100        -0.18500
| 94>    H        4.86000         2.11400         1.91200
| 95>    H        6.90100         3.53100         1.77200
| 96>    H        7.38300         6.10900         0.35600
| 97>    H        8.41400         4.65200         0.43500
| 98>    H        7.92100         5.31000        -1.15000
| 99>    H        5.28300         0.33600        -0.17900
|100>    H        3.72000         3.63200        -1.96700
|101> *
|102>
|103>                          ****END OF INPUT****

CARTESIAN COORDINATES (ANGSTROEM)
---------------------------------
  C     -4.426000    5.565000   -0.962000
  C      1.474000    4.041000    0.057000
  C     -2.802000    4.093000    0.049000
  C     -2.751000    4.979000    1.136000
  C     -3.533000    6.117000    1.140000
  C     -5.206000    7.606000    0.153000
  C      0.132000    4.307000    0.061000
  C     -0.569000    3.056000    0.047000
  C      1.649000    2.618000    0.023000
  C     -3.667000    4.412000   -1.009000
  N     -4.352000    6.399000    0.100000
  N      0.388000    2.067000    0.025000
  N     -2.010000    0.395000   -0.075000
  N     -0.388000   -2.074000   -0.027000
  N      2.010000   -0.401000    0.065000
  C     -1.960000    2.861000    0.024000
  C     -2.623000    1.615000   -0.018000
  C     -5.573000   -4.329000    1.066000
  C     -4.073000    1.471000    0.056000
  C     -4.106000   -2.756000   -0.026000
  C     -4.995000   -2.757000   -1.111000
  C     -6.132000   -3.542000   -1.076000
  C     -7.651000   -5.113000    0.040000
  C     -4.324000    0.141000    0.037000
  C     -3.025000   -0.520000   -0.048000
  C     -4.422000   -3.566000    1.075000
  N     -6.407000   -4.313000    0.001000
  C     -2.867000   -1.922000   -0.040000
  C     -1.650000   -2.624000   -0.027000
  C      3.568000   -6.142000   -1.040000
  C     -1.476000   -4.049000   -0.034000
  C      2.803000   -4.099000   -0.008000
  C      3.657000   -4.384000    1.069000
  C      4.427000   -5.530000    1.059000
  C      5.245000   -7.588000    0.014000
  C     -0.134000   -4.315000   -0.022000
  C      0.568000   -3.064000   -0.027000
  C      2.775000   -5.012000   -1.074000
  N      4.376000   -6.391000    0.017000
  C      1.959000   -2.869000   -0.009000
  C      2.621000   -1.622000    0.009000
  C      5.543000    4.339000   -1.130000
  C      4.070000   -1.479000   -0.094000
  C      4.104000    2.751000   -0.021000
  C      5.027000    2.729000    1.036000
  C      6.166000    3.509000    0.978000
  C      7.619000    5.153000   -0.115000
  C      4.321000   -0.148000   -0.092000
  C      3.025000    0.514000    0.015000
  C      4.387000    3.582000   -1.115000
  C      2.866000    1.916000    0.013000
  N      6.413000    4.296000   -0.095000
  H     -5.096000    5.857000   -1.761000
  H      2.274000    4.766000    0.081000
  H     -2.110000    4.784000    1.987000
  H     -3.534000    6.825000    1.959000
  H     -6.131000    7.365000    0.681000
  H     -4.667000    8.394000    0.679000
  H     -5.428000    7.923000   -0.866000
  H     -0.332000    5.282000    0.069000
  H     -3.741000    3.774000   -1.883000
  H      0.182000    1.072000    0.005000
  H     -0.183000   -1.080000   -0.021000
  H     -5.864000   -4.962000    1.895000
  H     -4.794000    2.272000    0.139000
  H     -4.800000   -2.160000   -1.994000
  H     -6.841000   -3.582000   -1.893000
  H     -8.428000   -4.536000    0.546000
  H     -7.956000   -5.337000   -0.981000
  H     -7.456000   -6.037000    0.584000
  H     -5.287000   -0.344000    0.100000
  H     -3.780000   -3.601000    1.947000
  H      3.587000   -6.868000   -1.843000
  H     -2.276000   -4.774000   -0.050000
  H      3.714000   -3.724000    1.926000
  H      5.092000   -5.795000    1.871000
  H      6.205000   -7.329000   -0.439000
  H      5.393000   -7.917000    1.042000
  H      4.759000   -8.373000   -0.564000
  H      0.329000   -5.290000   -0.008000
  H      2.146000   -4.842000   -1.940000
  H      5.808000    4.986000   -1.956000
  H      4.788000   -2.281000   -0.185000
  H      4.860000    2.114000    1.912000
  H      6.901000    3.531000    1.772000
  H      7.383000    6.109000    0.356000
  H      8.414000    4.652000    0.435000
  H      7.921000    5.310000   -1.150000
  H      5.283000    0.336000   -0.179000
  H      3.720000    3.632000   -1.967000

 Total Charge           Charge          ....    0
 Multiplicity           Mult            ....    1
 Number of Electrons    NEL             ....  358
 Basis Dimension        Dim             ....  918

ORBITAL ENERGIES
----------------

  NO   OCC          E(Eh)            E(eV)
   0   2.0000     -15.640079      -425.5882
   1   2.0000     -15.632561      -425.3836
   2   2.0000     -15.632335      -425.3775
   3   2.0000     -15.628078      -425.2616
   4   2.0000     -15.517389      -422.2496
   5   2.0000     -15.515670      -422.2029
   6   2.0000     -15.444703      -420.2717
   7   2.0000     -15.441933      -420.1964
   8   2.0000     -11.303023      -307.5709
   9   2.0000     -11.298743      -307.4544
  10   2.0000     -11.298414      -307.4455
  11   2.0000     -11.295532      -307.3671
  12   2.0000     -11.295116      -307.3557
  13   2.0000     -11.294861      -307.3488
  14   2.0000     -11.290258      -307.2235
  15   2.0000     -11.289636      -307.2066
  16   2.0000     -11.288899      -307.1866
  17   2.0000     -11.287385      -307.1453
  18   2.0000     -11.285286      -307.0882
  19   2.0000     -11.284686      -307.0719
  20   2.0000     -11.243372      -305.9477
  21   2.0000     -11.237312      -305.7828
  22   2.0000     -11.237025      -305.7750
  23   2.0000     -11.234947      -305.7184
  24   2.0000     -11.234271      -305.7001
  25   2.0000     -11.232350      -305.6478
  26   2.0000     -11.229483      -305.5698
  27   2.0000     -11.229386      -305.5671
  28   2.0000     -11.229041      -305.5577
  29   2.0000     -11.228527      -305.5438
  30   2.0000     -11.225953      -305.4737
  31   2.0000     -11.225853      -305.4710
  32   2.0000     -11.198462      -304.7257
  33   2.0000     -11.198115      -304.7162
  34   2.0000     -11.195352      -304.6410
  35   2.0000     -11.195032      -304.6323
  36   2.0000     -11.172763      -304.0263
  37   2.0000     -11.172671      -304.0238
  38   2.0000     -11.171485      -303.9916
  39   2.0000     -11.168763      -303.9175
  40   2.0000     -11.168599      -303.9130
  41   2.0000     -11.168218      -303.9027
  42   2.0000     -11.167548      -303.8844
  43   2.0000     -11.165561      -303.8304
  44   2.0000     -11.158219      -303.6306
  45   2.0000     -11.156193      -303.5754
  46   2.0000     -11.154363      -303.5256
  47   2.0000     -11.152842      -303.4843
  48   2.0000     -11.144253      -303.2506
  49   2.0000     -11.142560      -303.2045
  50   2.0000     -11.139533      -303.1221
  51   2.0000     -11.137934      -303.0786
  52   2.0000      -1.326384       -36.0927
  53   2.0000      -1.320199       -35.9244
  54   2.0000      -1.319826       -35.9143
  55   2.0000      -1.315954       -35.8089
  56   2.0000      -1.216126       -33.0925
  57   2.0000      -1.213107       -33.0103
  58   2.0000      -1.161588       -31.6084
  59   2.0000      -1.155670       -31.4474
  60   2.0000      -1.115089       -30.3431
  61   2.0000      -1.109298       -30.1855
  62   2.0000      -1.108131       -30.1538
  63   2.0000      -1.103976       -30.0407
  64   2.0000      -1.050124       -28.5753
  65   2.0000      -1.044642       -28.4262
  66   2.0000      -1.044233       -28.4150
  67   2.0000      -1.040496       -28.3133
  68   2.0000      -1.025928       -27.9169
  69   2.0000      -1.010061       -27.4852
  70   2.0000      -1.008020       -27.4296
  71   2.0000      -0.998878       -27.1809
  72   2.0000      -0.980124       -26.6705
  73   2.0000      -0.976834       -26.5810
  74   2.0000      -0.967332       -26.3224
  75   2.0000      -0.961703       -26.1693
  76   2.0000      -0.952035       -25.9062
  77   2.0000      -0.943159       -25.6647
  78   2.0000      -0.938814       -25.5464
  79   2.0000      -0.923353       -25.1257
  80   2.0000      -0.892004       -24.2727
  81   2.0000      -0.877130       -23.8679
  82   2.0000      -0.872903       -23.7529
  83   2.0000      -0.870243       -23.6805
  84   2.0000      -0.866897       -23.5895
  85   2.0000      -0.856619       -23.3098
  86   2.0000      -0.848356       -23.0849
  87   2.0000      -0.844074       -22.9684
  88   2.0000      -0.821854       -22.3638
  89   2.0000      -0.798180       -21.7196
  90   2.0000      -0.797763       -21.7082
  91   2.0000      -0.738882       -20.1060
  92   2.0000      -0.728206       -19.8155
  93   2.0000      -0.727160       -19.7870
  94   2.0000      -0.721872       -19.6431
  95   2.0000      -0.718721       -19.5574
  96   2.0000      -0.711879       -19.3712
  97   2.0000      -0.710643       -19.3376
  98   2.0000      -0.697828       -18.9889
  99   2.0000      -0.691228       -18.8093
 100   2.0000      -0.683100       -18.5881
 101   2.0000      -0.680655       -18.5216
 102   2.0000      -0.677302       -18.4303
 103   2.0000      -0.674603       -18.3569
 104   2.0000      -0.669528       -18.2188
 105   2.0000      -0.667513       -18.1640
 106   2.0000      -0.662553       -18.0290
 107   2.0000      -0.658695       -17.9240
 108   2.0000      -0.655134       -17.8271
 109   2.0000      -0.654059       -17.7979
 110   2.0000      -0.652148       -17.7458
 111   2.0000      -0.650818       -17.7096
 112   2.0000      -0.649804       -17.6821
 113   2.0000      -0.647266       -17.6130
 114   2.0000      -0.634200       -17.2575
 115   2.0000      -0.623118       -16.9559
 116   2.0000      -0.616890       -16.7864
 117   2.0000      -0.612186       -16.6584
 118   2.0000      -0.611455       -16.6385
 119   2.0000      -0.609310       -16.5802
 120   2.0000      -0.607995       -16.5444
 121   2.0000      -0.607386       -16.5278
 122   2.0000      -0.603044       -16.4097
 123   2.0000      -0.594648       -16.1812
 124   2.0000      -0.585567       -15.9341
 125   2.0000      -0.580715       -15.8021
 126   2.0000      -0.580623       -15.7996
 127   2.0000      -0.577720       -15.7205
 128   2.0000      -0.569053       -15.4847
 129   2.0000      -0.563689       -15.3388
 130   2.0000      -0.553458       -15.0604
 131   2.0000      -0.541741       -14.7415
 132   2.0000      -0.538403       -14.6507
 133   2.0000      -0.536089       -14.5877
 134   2.0000      -0.534641       -14.5483
 135   2.0000      -0.530901       -14.4465
 136   2.0000      -0.524460       -14.2713
 137   2.0000      -0.522982       -14.2311
 138   2.0000      -0.517058       -14.0699
 139   2.0000      -0.512770       -13.9532
 140   2.0000      -0.510624       -13.8948
 141   2.0000      -0.508624       -13.8404
 142   2.0000      -0.503039       -13.6884
 143   2.0000      -0.502698       -13.6791
 144   2.0000      -0.498118       -13.5545
 145   2.0000      -0.497085       -13.5264
 146   2.0000      -0.496523       -13.5111
 147   2.0000      -0.494553       -13.4575
 148   2.0000      -0.490970       -13.3600
 149   2.0000      -0.468271       -12.7423
 150   2.0000      -0.459731       -12.5099
 151   2.0000      -0.450804       -12.2670
 152   2.0000      -0.447034       -12.1644
 153   2.0000      -0.445312       -12.1175
 154   2.0000      -0.445048       -12.1104
 155   2.0000      -0.439654       -11.9636
 156   2.0000      -0.434952       -11.8356
 157   2.0000      -0.431101       -11.7309
 158   2.0000      -0.389242       -10.5918
 159   2.0000      -0.381982       -10.3943
 160   2.0000      -0.377602       -10.2751
 161   2.0000      -0.373750       -10.1702
 162   2.0000      -0.360333        -9.8052
 163   2.0000      -0.355815        -9.6822
 164   2.0000      -0.355435        -9.6719
 165   2.0000      -0.352183        -9.5834
 166   2.0000      -0.337442        -9.1823
 167   2.0000      -0.332162        -9.0386
 168   2.0000      -0.327999        -8.9253
 169   2.0000      -0.300236        -8.1698
 170   2.0000      -0.293236        -7.9793
 171   2.0000      -0.290253        -7.8982
 172   2.0000      -0.287258        -7.8167
 173   2.0000      -0.254747        -6.9320
 174   2.0000      -0.247084        -6.7235
 175   2.0000      -0.187499        -5.1021
 176   2.0000      -0.177237        -4.8229
 177   2.0000      -0.065052        -1.7702
 178   2.0000      -0.054004        -1.4695
 179   0.0000       0.031570         0.8591
 180   0.0000       0.070538         1.9194
 181   0.0000       0.092963         2.5297
 182   0.0000       0.095847         2.6081
 183   0.0000       0.133593         3.6352

MULLIKEN ATOMIC CHARGES
-----------------------
   0 C :    0.208139
   1 N :   -0.440307
   2 C :   -0.065651
   3 N :   -0.338576
   4 C :   -0.079072
   5 N :   -0.562619
   6 C :   -0.057269
   7 N :   -0.338131
   8 C :    0.205449
   9 N :   -0.563247
  10 C :    0.113954
  11 N :   -0.437173
  12 C :   -0.067201
  13 N :   -0.440309
  14 C :    0.233492
  15 N :   -0.440722
  16 C :    0.237208
  17 C :   -0.059268
  18 C :   -0.192533
  19 C :    0.225698
  20 C :    0.207450
  21 C :   -0.073667
  22 C :   -0.085431
  23 C :   -0.050234
  24 C :    0.207749
  25 C :    0.113639
  26 C :   -0.073171
  27 C :    0.224794
  28 C :   -0.051112
  29 C :   -0.186083
  30 C :    0.234561
  31 C :    0.209987
  32 C :   -0.064848
  33 C :   -0.082378
  34 C :   -0.049726
  35 C :    0.202580
  36 C :    0.114480
  37 C :   -0.066740
  38 C :    0.237848
  39 C :   -0.061973
  40 C :   -0.189946
  41 C :    0.219845
  42 C :    0.203886
  43 C :   -0.074100
  44 C :   -0.088895
  45 C :   -0.051840
  46 C :    0.202118
  47 C :    0.115670
  48 C :   -0.075564
  49 C :    0.224629
  50 C :   -0.053695
  51 C :   -0.190440
  52 H :    0.055524
  53 H :   -0.013832
  54 H :    0.047253
  55 H :    0.054624
  56 H :    0.060997
  57 H :    0.057763
  58 H :    0.056862
  59 H :   -0.014206
  60 H :    0.045446
  61 H :    0.172978
  62 H :    0.172651
  63 H :    0.057155
  64 H :   -0.021514
  65 H :    0.046449
  66 H :    0.057988
  67 H :    0.063210
  68 H :    0.058344
  69 H :    0.059322
  70 H :   -0.024052
  71 H :    0.048608
  72 H :    0.055292
  73 H :   -0.014524
  74 H :    0.045714
  75 H :    0.054274
  76 H :    0.061086
  77 H :    0.057430
  78 H :    0.056599
  79 H :   -0.013538
  80 H :    0.045916
  81 H :    0.053444
  82 H :   -0.023915
  83 H :    0.042926
  84 H :    0.052835
  85 H :    0.058666
  86 H :    0.056280
  87 H :    0.056580
  88 H :   -0.022711
  89 H :    0.044824
Sum of atomic charges:    0.0000000

LOEWDIN ATOMIC CHARGES
----------------------
   0 C :   -0.002067
   1 N :    0.140193
   2 C :   -0.100773
   3 N :    0.177436
   4 C :    0.037730
   5 N :   -0.138442
   6 C :   -0.022269
   7 N :    0.177281
   8 C :   -0.003564
   9 N :   -0.138809
  10 C :    0.029326
  11 N :    0.145429
  12 C :   -0.101369
  13 N :    0.140322
  14 C :   -0.045913
  15 N :    0.138359
  16 C :   -0.044156
  17 C :   -0.024295
  18 C :   -0.109050
  19 C :   -0.087577
  20 C :    0.000311
  21 C :   -0.104197
  22 C :    0.044572
  23 C :   -0.021159
  24 C :    0.000707
  25 C :    0.030604
  26 C :   -0.103564
  27 C :   -0.092212
  28 C :   -0.020155
  29 C :   -0.107557
  30 C :   -0.047219
  31 C :    0.000145
  32 C :   -0.098707
  33 C :    0.038160
  34 C :   -0.019914
  35 C :   -0.006244
  36 C :    0.029336
  37 C :   -0.101172
  38 C :   -0.040284
  39 C :   -0.025947
  40 C :   -0.109077
  41 C :   -0.094663
  42 C :   -0.004989
  43 C :   -0.105707
  44 C :    0.033990
  45 C :   -0.022014
  46 C :   -0.006522
  47 C :    0.029201
  48 C :   -0.106024
  49 C :   -0.091252
  50 C :   -0.023606
  51 C :   -0.109106
  52 H :    0.029942
  53 H :    0.004428
  54 H :    0.044512
  55 H :    0.030063
  56 H :    0.027449
  57 H :    0.030944
  58 H :    0.031523
  59 H :    0.004081
  60 H :    0.044183
  61 H :    0.060642
  62 H :    0.060368
  63 H :    0.031278
  64 H :   -0.000921
  65 H :    0.045102
  66 H :    0.030781
  67 H :    0.028730
  68 H :    0.032131
  69 H :    0.031588
  70 H :   -0.001971
  71 H :    0.045690
  72 H :    0.030234
  73 H :    0.003988
  74 H :    0.044550
  75 H :    0.029464
  76 H :    0.027638
  77 H :    0.031217
  78 H :    0.030865
  79 H :    0.004531
  80 H :    0.043987
  81 H :    0.028937
  82 H :   -0.002047
  83 H :    0.043488
  84 H :    0.028943
  85 H :    0.026376
  86 H :    0.030435
  87 H :    0.031096
  88 H :   -0.001532
  89 H :    0.043763

  Mayer bond orders larger than 0.100000
B(  0-C ,  1-N ) :   1.1203 B(  0-C , 17-C ) :   1.6316 B(  0-C , 52-H ) :   0.9691
B(  1-N ,  8-C ) :   1.1165 B(  1-N , 10-C ) :   0.9608 B(  2-C , 12-C ) :   1.5380
B(  2-C , 16-C ) :   1.3203 B(  2-C , 53-H ) :   0.9779 B(  3-N , 14-C ) :   1.2009
B(  3-N , 16-C ) :   1.1957 B(  3-N , 61-H ) :   0.8983 B(  4-C ,  6-C ) :   1.2670
B(  4-C , 17-C ) :   1.2697 B(  4-C , 18-C ) :   1.2601 B(  5-N , 19-C ) :   1.4164
B(  5-N , 27-C ) :   1.4078 B(  6-C ,  8-C ) :   1.6339 B(  6-C , 54-H ) :   0.9711
B(  7-N , 30-C ) :   1.1916 B(  7-N , 38-C ) :   1.2028 B(  7-N , 62-H ) :   0.8984
B(  8-C , 55-H ) :   0.9702 B(  9-N , 41-C ) :   1.4087 B(  9-N , 49-C ) :   1.4159
B( 10-C , 56-H ) :   0.9763 B( 10-C , 57-H ) :   0.9824 B( 10-C , 58-H ) :   0.9829
B( 11-N , 20-C ) :   1.1245 B( 11-N , 24-C ) :   1.1258 B( 11-N , 25-C ) :   0.9575
B( 12-C , 14-C ) :   1.3219 B( 12-C , 59-H ) :   0.9775 B( 13-N , 31-C ) :   1.1224
B( 13-N , 35-C ) :   1.1143 B( 13-N , 36-C ) :   0.9609 B( 14-C , 18-C ) :   1.1995
B( 15-N , 42-C ) :   1.1164 B( 15-N , 46-C ) :   1.1131 B( 15-N , 47-C ) :   0.9625
B( 16-C , 51-C ) :   1.2035 B( 17-C , 60-H ) :   0.9708 B( 18-C , 19-C ) :   1.2169
B( 19-C , 21-C ) :   1.2112 B( 20-C , 28-C ) :   1.6215 B( 20-C , 63-H ) :   0.9702
B( 21-C , 26-C ) :   1.6423 B( 21-C , 64-H ) :   0.9736 B( 22-C , 23-C ) :   1.2829
B( 22-C , 28-C ) :   1.2768 B( 22-C , 29-C ) :   1.2285 B( 23-C , 24-C ) :   1.6175
B( 23-C , 65-H ) :   0.9710 B( 24-C , 66-H ) :   0.9691 B( 25-C , 67-H ) :   0.9762
B( 25-C , 68-H ) :   0.9829 B( 25-C , 69-H ) :   0.9821 B( 26-C , 27-C ) :   1.2087
B( 26-C , 70-H ) :   0.9733 B( 27-C , 29-C ) :   1.2284 B( 28-C , 71-H ) :   0.9714
B( 29-C , 30-C ) :   1.2124 B( 30-C , 32-C ) :   1.3120 B( 31-C , 39-C ) :   1.6332
B( 31-C , 72-H ) :   0.9697 B( 32-C , 37-C ) :   1.5463 B( 32-C , 73-H ) :   0.9777
B( 33-C , 34-C ) :   1.2733 B( 33-C , 39-C ) :   1.2657 B( 33-C , 40-C ) :   1.2541
B( 34-C , 35-C ) :   1.6302 B( 34-C , 74-H ) :   0.9704 B( 35-C , 75-H ) :   0.9697
B( 36-C , 76-H ) :   0.9762 B( 36-C , 77-H ) :   0.9821 B( 36-C , 78-H ) :   0.9831
B( 37-C , 38-C ) :   1.3131 B( 37-C , 79-H ) :   0.9779 B( 38-C , 40-C ) :   1.2083
B( 39-C , 80-H ) :   0.9715 B( 40-C , 41-C ) :   1.2145 B( 41-C , 43-C ) :   1.2182
B( 42-C , 50-C ) :   1.6341 B( 42-C , 81-H ) :   0.9696 B( 43-C , 48-C ) :   1.6331
B( 43-C , 82-H ) :   0.9737 B( 44-C , 45-C ) :   1.2711 B( 44-C , 50-C ) :   1.2659
B( 44-C , 51-C ) :   1.2561 B( 45-C , 46-C ) :   1.6326 B( 45-C , 83-H ) :   0.9711
B( 46-C , 84-H ) :   0.9703 B( 47-C , 85-H ) :   0.9761 B( 47-C , 86-H ) :   0.9828
B( 47-C , 87-H ) :   0.9826 B( 48-C , 49-C ) :   1.2176 B( 48-C , 88-H ) :   0.9738
B( 49-C , 51-C ) :   1.2149 B( 50-C , 89-H ) :   0.9713

MP2 TOTAL ENERGY:    -2130.913652210 Eh
FINAL SINGLE POINT ENERGY     -2130.913652209683

DIPOLE MOMENT
-------------
                                X             Y             Z
Electronic contribution:     -0.53904      -0.50539      -0.20101
Nuclear contribution   :      0.00086       0.18536       0.22556
                        -----------------------------------------
Total Dipole Moment    :     -0.53818      -0.32003       0.02455
                        -----------------------------------------
Magnitude (a.u.)       :      0.62663
Magnitude (Debye)      :      1.59275

Rotational constants in cm-1:     0.001498     0.001474     0.000762
Rotational constants in MHz :    44.911916    44.192551    22.850964

                             ****ORCA TERMINATED NORMALLY****
TOTAL RUN TIME: 0 days 1 hours 31 minutes 44 seconds 37 msec
