                         Program Version 5.0.4 -  RELEASE  -
|  1> ! PAL2
|  2> ! mp2 cc-pvdz TightSCF  NoKeepInts
|  3>
|  4> %scf
|  5>   MaxCore 2000
|  6> end
|  7> %mp2
|  8>   MaxCore 2000
|  9> end
| 10> * xyz 0 1
| 11>    C       -4.94200         5.19500        -0.12800
| 12>    C        1.47400         4.04100         0.05700
| 13>    C       -2.80200         4.09300         0.04900
| 14>    C       -2.22700         5.35500         0.26500
| 15>    C       -3.02000         6.48500         0.28000
| 16>    C       -5.18400         7.62200         0.14100
| 17>    C        0.13200         4.30700         0.06100
| 18>    C       -0.56900         3.05600         0.04700
| 19>    C        1.64900         2.61800         0.02300
| 20>    C       -4.19100         4.03600        -0.14600
| 21>    N       -4.35600         6.39600         0.08200
| 22>    N        0.38800         2.06700         0.02500
| 23>    N       -2.01000         0.39500        -0.07500
| 24>    N       -0.38800        -2.07400        -0.02700
| 25>    N        2.01000        -0.40100         0.06500
| 26>    C       -1.96000         2.86100         0.02400
| 27>    C       -2.62300         1.61500        -0.01800
| 28>    C       -5.57300        -4.32900         1.06600
| 29>    C       -4.07300         1.47100         0.05600
| 30>    C       -4.10600        -2.75600        -0.02600
| 31>    C       -4.99500        -2.75700        -1.11100
| 32>    C       -6.13200        -3.54200        -1.07600
| 33>    C       -7.65100        -5.11300         0.04000
| 34>    C       -4.32400         0.14100         0.03700
| 35>    C       -3.02500        -0.52000        -0.04800
| 36>    C       -4.42200        -3.56600         1.07500
| 37>    N       -6.40700        -4.31300         0.00100
| 38>    C       -2.86700        -1.92200        -0.04000
| 39>    C       -1.65000        -2.62400        -0.02700
| 40>    C        3.56800        -6.14200        -1.04000
| 41>    C       -1.47600        -4.04900        -0.03400
| 42>    C        2.80300        -4.09900        -0.00800
| 43>    C        3.65700        -4.38400         1.06900
| 44>    C        4.42700        -5.53000         1.05900
| 45>    C        5.24500        -7.58800         0.01400
| 46>    C       -0.13400        -4.31500        -0.02200
| 47>    C        0.56800        -3.06400        -0.02700
| 48>    C        2.77500        -5.01200        -1.07400
| 49>    N        4.37600        -6.39100         0.01700
| 50>    C        1.95900        -2.86900        -0.00900
| 51>    C        2.62100        -1.62200         0.00900
| 52>    C        5.54300         4.33900        -1.13000
| 53>    C        4.07000        -1.47900        -0.09400
| 54>    C        4.10400         2.75100        -0.02100
| 55>    C        5.02700         2.72900         1.03600
| 56>    C        6.16600         3.50900         0.97800
| 57>    C        7.61900         5.15300        -0.11500
| 58>    C        4.32100        -0.14800        -0.09200
| 59>    C        3.02500         0.51400         0.01500
| 60>    C        4.38700         3.58200        -1.11500
| 61>    C        2.86600         1.91600         0.01300
| 62>    N        6.41300         4.29600        -0.09500
| 63>    H       -6.01300         5.20000        -0.28700
| 64>    H        2.27400         4.76600         0.08100
| 65>    H       -1.16200         5.46300         0.43200
| 66>    H       -2.62400         7.47700         0.45100
| 67>    H       -5.45600         7.81600         1.18100
| 68>    H       -4.60600         8.45500        -0.25800
| 69>    H       -6.08100         7.46800        -0.45800
| 70>    H       -0.33200         5.28200         0.06900
| 71>    H       -4.69200         3.09300        -0.33200
| 72>    H        0.18200         1.07200         0.00500
| 73>    H       -0.18300        -1.08000        -0.02100
| 74>    H       -5.86400        -4.96200         1.89500
| 75>    H       -4.79400         2.27200         0.13900
| 76>    H       -4.80000        -2.16000        -1.99400
| 77>    H       -6.84100        -3.58200        -1.89300
| 78>    H       -8.42800        -4.53600         0.54600
| 79>    H       -7.95600        -5.33700        -0.98100
| 80>    H       -7.45600        -6.03700         0.58400
| 81>    H       -5.28700        -0.34400         0.10000
| 82>    H       -3.78000        -3.60100         1.94700
| 83>    H        3.58700        -6.86800        -1.84300
| 84>    H       -2.27600        -4.77400        -0.05000
| 85>    H        3.71400        -3.72400         1.92600
| 86>    H        5.09200        -5.79500         1.87100
| 87>    H        6.20500        -7.32900        -0.43900
| 88>    H        5.39300        -7.91700         1.04200
| 89>    H        4.75900        -8.37300        -0.56400
| 90>    H        0.32900        -5.29000        -0.00800
| 91>    H        2.14600        -4.84200        -1.94000
| 92>    H        5.80800         4.98600        -1.95600
| 93>    H        4.78800        -2.28100        -0.18500
| 94>    H        4.86000         2.11400         1.91200
| 95>    H        6.90100         3.53100         1.77200
| 96>    H        7.38300         6.10900         0.35600
| 97>    H        8.41400         4.65200         0.43500
| 98>    H        7.92100         5.31000        -1.15000
| 99>    H        5.28300         0.33600        -0.17900
|100>    H        3.72000         3.63200        -1.96700
|101> *
|102>
|103>                          ****END OF INPUT****

CARTESIAN COORDINATES (ANGSTROEM)
---------------------------------
  C     -4.942000    5.195000   -0.128000
  C      1.474000    4.041000    0.057000
  C     -2.802000    4.093000    0.049000
  C     -2.227000    5.355000    0.265000
  C     -3.020000    6.485000    0.280000
  C     -5.184000    7.622000    0.141000
  C      0.132000    4.307000    0.061000
  C     -0.569000    3.056000    0.047000
  C      1.649000    2.618000    0.023000
  C     -4.191000    4.036000   -0.146000
  N     -4.356000    6.396000    0.082000
  N      0.388000    2.067000    0.025000
  N     -2.010000    0.395000   -0.075000
  N     -0.388000   -2.074000   -0.027000
  N      2.010000   -0.401000    0.065000
  C     -1.960000    2.861000    0.024000
  C     -2.623000    1.615000   -0.018000
  C     -5.573000   -4.329000    1.066000
  C     -4.073000    1.471000    0.056000
  C     -4.106000   -2.756000   -0.026000
  C     -4.995000   -2.757000   -1.111000
  C     -6.132000   -3.542000   -1.076000
  C     -7.651000   -5.113000    0.040000
  C     -4.324000    0.141000    0.037000
  C     -3.025000   -0.520000   -0.048000
  C     -4.422000   -3.566000    1.075000
  N     -6.407000   -4.313000    0.001000
  C     -2.867000   -1.922000   -0.040000
  C     -1.650000   -2.624000   -0.027000
  C      3.568000   -6.142000   -1.040000
  C     -1.476000   -4.049000   -0.034000
  C      2.803000   -4.099000   -0.008000
  C      3.657000   -4.384000    1.069000
  C      4.427000   -5.530000    1.059000
  C      5.245000   -7.588000    0.014000
  C     -0.134000   -4.315000   -0.022000
  C      0.568000   -3.064000   -0.027000
  C      2.775000   -5.012000   -1.074000
  N      4.376000   -6.391000    0.017000
  C      1.959000   -2.869000   -0.009000
  C      2.621000   -1.622000    0.009000
  C      5.543000    4.339000   -1.130000
  C      4.070000   -1.479000   -0.094000
  C      4.104000    2.751000   -0.021000
  C      5.027000    2.729000    1.036000
  C      6.166000    3.509000    0.978000
  C      7.619000    5.153000   -0.115000
  C      4.321000   -0.148000   -0.092000
  C      3.025000    0.514000    0.015000
  C      4.387000    3.582000   -1.115000
  C      2.866000    1.916000    0.013000
  N      6.413000    4.296000   -0.095000
  H     -6.013000    5.200000   -0.287000
  H      2.274000    4.766000    0.081000
  H     -1.162000    5.463000    0.432000
  H     -2.624000    7.477000    0.451000
  H     -5.456000    7.816000    1.181000
  H     -4.606000    8.455000   -0.258000
  H     -6.081000    7.468000   -0.458000
  H     -0.332000    5.282000    0.069000
  H     -4.692000    3.093000   -0.332000
  H      0.182000    1.072000    0.005000
  H     -0.183000   -1.080000   -0.021000
  H     -5.864000   -4.962000    1.895000
  H     -4.794000    2.272000    0.139000
  H     -4.800000   -2.160000   -1.994000
  H     -6.841000   -3.582000   -1.893000
  H     -8.428000   -4.536000    0.546000
  H     -7.956000   -5.337000   -0.981000
  H     -7.456000   -6.037000    0.584000
  H     -5.287000   -0.344000    0.100000
  H     -3.780000   -3.601000    1.947000
  H      3.587000   -6.868000   -1.843000
  H     -2.276000   -4.774000   -0.050000
  H      3.714000   -3.724000    1.926000
  H      5.092000   -5.795000    1.871000
  H      6.205000   -7.329000   -0.439000
  H      5.393000   -7.917000    1.042000
  H      4.759000   -8.373000   -0.564000
  H      0.329000   -5.290000   -0.008000
  H      2.146000   -4.842000   -1.940000
  H      5.808000    4.986000   -1.956000
  H      4.788000   -2.281000   -0.185000
  H      4.860000    2.114000    1.912000
  H      6.901000    3.531000    1.772000
  H      7.383000    6.109000    0.356000
  H      8.414000    4.652000    0.435000
  H      7.921000    5.310000   -1.150000
  H      5.283000    0.336000   -0.179000
  H      3.720000    3.632000   -1.967000

 Total Charge           Charge          ....    0
 Multiplicity           Mult            ....    1
 Number of Electrons    NEL             ....  358
 Basis Dimension        Dim             ....  918

ORBITAL ENERGIES
----------------

  NO   OCC          E(Eh)            E(eV)
   0   2.0000     -15.680398      -426.6853
   1   2.0000     -15.635155      -425.4542
   2   2.0000     -15.630945      -425.3396
   3   2.0000     -15.587353      -424.1535
   4   2.0000     -15.525458      -422.4692
   5   2.0000     -15.515404      -422.1956
   6   2.0000     -15.453633      -420.5147
   7   2.0000     -15.439955      -420.1425
   8   2.0000     -11.330040      -308.3061
   9   2.0000     -11.328722      -308.2702
  10   2.0000     -11.328296      -308.2586
  11   2.0000     -11.300044      -307.4898
  12   2.0000     -11.297820      -307.4293
  13   2.0000     -11.294003      -307.3255
  14   2.0000     -11.290500      -307.2301
  15   2.0000     -11.287569      -307.1504
  16   2.0000     -11.285746      -307.1008
  17   2.0000     -11.282614      -307.0155
  18   2.0000     -11.269339      -306.6543
  19   2.0000     -11.263776      -306.5029
  20   2.0000     -11.262787      -306.4760
  21   2.0000     -11.250254      -306.1350
  22   2.0000     -11.248573      -306.0892
  23   2.0000     -11.238884      -305.8256
  24   2.0000     -11.235775      -305.7410
  25   2.0000     -11.231993      -305.6381
  26   2.0000     -11.231333      -305.6201
  27   2.0000     -11.229080      -305.5588
  28   2.0000     -11.228806      -305.5513
  29   2.0000     -11.211685      -305.0855
  30   2.0000     -11.210202      -305.0451
  31   2.0000     -11.193312      -304.5855
  32   2.0000     -11.191716      -304.5421
  33   2.0000     -11.191460      -304.5351
  34   2.0000     -11.188124      -304.4443
  35   2.0000     -11.187945      -304.4394
  36   2.0000     -11.186716      -304.4060
  37   2.0000     -11.175303      -304.0955
  38   2.0000     -11.173011      -304.0331
  39   2.0000     -11.172648      -304.0232
  40   2.0000     -11.171009      -303.9786
  41   2.0000     -11.170002      -303.9512
  42   2.0000     -11.169170      -303.9286
  43   2.0000     -11.161712      -303.7256
  44   2.0000     -11.160617      -303.6958
  45   2.0000     -11.156913      -303.5950
  46   2.0000     -11.156240      -303.5767
  47   2.0000     -11.151857      -303.4575
  48   2.0000     -11.146194      -303.3034
  49   2.0000     -11.134840      -302.9944
  50   2.0000     -11.129823      -302.8579
  51   2.0000     -11.117145      -302.5129
  52   2.0000      -1.360885       -37.0316
  53   2.0000      -1.322228       -35.9796
  54   2.0000      -1.318860       -35.8880
  55   2.0000      -1.279532       -34.8178
  56   2.0000      -1.226668       -33.3793
  57   2.0000      -1.210144       -32.9297
  58   2.0000      -1.173280       -31.9266
  59   2.0000      -1.150917       -31.3180
  60   2.0000      -1.144046       -31.1311
  61   2.0000      -1.110987       -30.2315
  62   2.0000      -1.108418       -30.1616
  63   2.0000      -1.082537       -29.4573
  64   2.0000      -1.076690       -29.2982
  65   2.0000      -1.046359       -28.4729
  66   2.0000      -1.043543       -28.3963
  67   2.0000      -1.041445       -28.3392
  68   2.0000      -1.015187       -27.6246
  69   2.0000      -1.013338       -27.5743
  70   2.0000      -1.008853       -27.4523
  71   2.0000      -0.994074       -27.0501
  72   2.0000      -0.985331       -26.8122
  73   2.0000      -0.982122       -26.7249
  74   2.0000      -0.973454       -26.4890
  75   2.0000      -0.961882       -26.1741
  76   2.0000      -0.954526       -25.9740
  77   2.0000      -0.945869       -25.7384
  78   2.0000      -0.937469       -25.5098
  79   2.0000      -0.916723       -24.9453
  80   2.0000      -0.910984       -24.7891
  81   2.0000      -0.897655       -24.4264
  82   2.0000      -0.877250       -23.8712
  83   2.0000      -0.873166       -23.7601
  84   2.0000      -0.870132       -23.6775
  85   2.0000      -0.860331       -23.4108
  86   2.0000      -0.842032       -22.9129
  87   2.0000      -0.837900       -22.8004
  88   2.0000      -0.828223       -22.5371
  89   2.0000      -0.796467       -21.6730
  90   2.0000      -0.788795       -21.4642
  91   2.0000      -0.767852       -20.8943
  92   2.0000      -0.753362       -20.5000
  93   2.0000      -0.734177       -19.9780
  94   2.0000      -0.727592       -19.7988
  95   2.0000      -0.724849       -19.7241
  96   2.0000      -0.719297       -19.5731
  97   2.0000      -0.717497       -19.5241
  98   2.0000      -0.712645       -19.3920
  99   2.0000      -0.698691       -19.0123
 100   2.0000      -0.697707       -18.9856
 101   2.0000      -0.692567       -18.8457
 102   2.0000      -0.685643       -18.6573
 103   2.0000      -0.684616       -18.6293
 104   2.0000      -0.679276       -18.4841
 105   2.0000      -0.674327       -18.3494
 106   2.0000      -0.672571       -18.3016
 107   2.0000      -0.660453       -17.9718
 108   2.0000      -0.657961       -17.9040
 109   2.0000      -0.653585       -17.7850
 110   2.0000      -0.651428       -17.7263
 111   2.0000      -0.646588       -17.5946
 112   2.0000      -0.645651       -17.5691
 113   2.0000      -0.637995       -17.3607
 114   2.0000      -0.635629       -17.2963
 115   2.0000      -0.627788       -17.0830
 116   2.0000      -0.622608       -16.9420
 117   2.0000      -0.620296       -16.8791
 118   2.0000      -0.613551       -16.6956
 119   2.0000      -0.612963       -16.6796
 120   2.0000      -0.611951       -16.6520
 121   2.0000      -0.610761       -16.6196
 122   2.0000      -0.600770       -16.3478
 123   2.0000      -0.588753       -16.0208
 124   2.0000      -0.582364       -15.8469
 125   2.0000      -0.580800       -15.8044
 126   2.0000      -0.579952       -15.7813
 127   2.0000      -0.571490       -15.5510
 128   2.0000      -0.567694       -15.4477
 129   2.0000      -0.559773       -15.2322
 130   2.0000      -0.554905       -15.0997
 131   2.0000      -0.548209       -14.9175
 132   2.0000      -0.543064       -14.7775
 133   2.0000      -0.541121       -14.7247
 134   2.0000      -0.539200       -14.6724
 135   2.0000      -0.535520       -14.5722
 136   2.0000      -0.531362       -14.4591
 137   2.0000      -0.518250       -14.1023
 138   2.0000      -0.517675       -14.0867
 139   2.0000      -0.514014       -13.9870
 140   2.0000      -0.511859       -13.9284
 141   2.0000      -0.510515       -13.8918
 142   2.0000      -0.508764       -13.8442
 143   2.0000      -0.504928       -13.7398
 144   2.0000      -0.501530       -13.6473
 145   2.0000      -0.495444       -13.4817
 146   2.0000      -0.489241       -13.3129
 147   2.0000      -0.481396       -13.0994
 148   2.0000      -0.476615       -12.9693
 149   2.0000      -0.467822       -12.7301
 150   2.0000      -0.466164       -12.6850
 151   2.0000      -0.456411       -12.4196
 152   2.0000      -0.451251       -12.2792
 153   2.0000      -0.445268       -12.1164
 154   2.0000      -0.438459       -11.9311
 155   2.0000      -0.427530       -11.6337
 156   2.0000      -0.409327       -11.1384
 157   2.0000      -0.393853       -10.7173
 158   2.0000      -0.390429       -10.6241
 159   2.0000      -0.387851       -10.5540
 160   2.0000      -0.379495       -10.3266
 161   2.0000      -0.375888       -10.2284
 162   2.0000      -0.368988       -10.0407
 163   2.0000      -0.357432        -9.7262
 164   2.0000      -0.355266        -9.6673
 165   2.0000      -0.341660        -9.2971
 166   2.0000      -0.337780        -9.1914
 167   2.0000      -0.325135        -8.8474
 168   2.0000      -0.320442        -8.7197
 169   2.0000      -0.305950        -8.3253
 170   2.0000      -0.299191        -8.1414
 171   2.0000      -0.285397        -7.7660
 172   2.0000      -0.278355        -7.5744
 173   2.0000      -0.263257        -7.1636
 174   2.0000      -0.241704        -6.5771
 175   2.0000      -0.190075        -5.1722
 176   2.0000      -0.181265        -4.9325
 177   2.0000      -0.080224        -2.1830
 178   2.0000      -0.059765        -1.6263
 179   0.0000       0.028259         0.7690
 180   0.0000       0.065136         1.7724
 181   0.0000       0.090175         2.4538
 182   0.0000       0.105848         2.8803
 183   0.0000       0.116014         3.1569

MULLIKEN ATOMIC CHARGES
-----------------------
   0 C :    0.219023
   1 N :   -0.456998
   2 C :   -0.077519
   3 N :   -0.341622
   4 C :   -0.078854
   5 N :   -0.568275
   6 C :   -0.117488
   7 N :   -0.341053
   8 C :    0.221881
   9 N :   -0.562526
  10 C :    0.119542
  11 N :   -0.438182
  12 C :   -0.044413
  13 N :   -0.429172
  14 C :    0.208546
  15 N :   -0.441137
  16 C :    0.235041
  17 C :   -0.115830
  18 C :   -0.158231
  19 C :    0.203300
  20 C :    0.214445
  21 C :   -0.058285
  22 C :   -0.089410
  23 C :   -0.039534
  24 C :    0.193903
  25 C :    0.114441
  26 C :   -0.092494
  27 C :    0.215915
  28 C :   -0.061750
  29 C :   -0.183260
  30 C :    0.246102
  31 C :    0.231016
  32 C :   -0.061327
  33 C :   -0.059809
  34 C :   -0.050750
  35 C :    0.228492
  36 C :    0.108130
  37 C :   -0.064316
  38 C :    0.231428
  39 C :   -0.057996
  40 C :   -0.181189
  41 C :    0.225494
  42 C :    0.197089
  43 C :   -0.072691
  44 C :   -0.090088
  45 C :   -0.061749
  46 C :    0.211371
  47 C :    0.115451
  48 C :   -0.066718
  49 C :    0.238257
  50 C :   -0.046085
  51 C :   -0.195022
  52 H :    0.035002
  53 H :   -0.018069
  54 H :    0.044519
  55 H :    0.032896
  56 H :    0.049430
  57 H :    0.047283
  58 H :    0.046493
  59 H :   -0.016578
  60 H :    0.046712
  61 H :    0.171057
  62 H :    0.175693
  63 H :    0.055731
  64 H :   -0.022458
  65 H :    0.047098
  66 H :    0.055906
  67 H :    0.062865
  68 H :    0.057409
  69 H :    0.056595
  70 H :   -0.030127
  71 H :    0.045239
  72 H :    0.071683
  73 H :   -0.007876
  74 H :    0.060777
  75 H :    0.071092
  76 H :    0.075298
  77 H :    0.068245
  78 H :    0.067496
  79 H :   -0.016540
  80 H :    0.061609
  81 H :    0.054246
  82 H :   -0.025212
  83 H :    0.041550
  84 H :    0.053916
  85 H :    0.060681
  86 H :    0.055350
  87 H :    0.057133
  88 H :   -0.014359
  89 H :    0.047119
Sum of atomic charges:   -0.0000000

LOEWDIN ATOMIC CHARGES
----------------------
   0 C :   -0.022060
   1 N :    0.120673
   2 C :   -0.101399
   3 N :    0.182620
   4 C :   -0.012659
   5 N :   -0.133904
   6 C :   -0.028554
   7 N :    0.174990
   8 C :   -0.018104
   9 N :   -0.140751
  10 C :    0.023229
  11 N :    0.142541
  12 C :   -0.100397
  13 N :    0.166828
  14 C :   -0.016787
  15 N :    0.138413
  16 C :   -0.060082
  17 C :   -0.029335
  18 C :   -0.111715
  19 C :   -0.074137
  20 C :    0.005604
  21 C :   -0.110240
  22 C :    0.038378
  23 C :   -0.014359
  24 C :   -0.012226
  25 C :    0.029953
  26 C :   -0.108681
  27 C :   -0.117413
  28 C :   -0.027427
  29 C :   -0.098937
  30 C :   -0.029934
  31 C :    0.025188
  32 C :   -0.093812
  33 C :    0.082992
  34 C :   -0.014767
  35 C :    0.023300
  36 C :    0.035365
  37 C :   -0.093909
  38 C :   -0.051689
  39 C :   -0.017672
  40 C :   -0.108641
  41 C :   -0.092091
  42 C :   -0.010802
  43 C :   -0.099371
  44 C :    0.033137
  45 C :   -0.028574
  46 C :    0.001665
  47 C :    0.029419
  48 C :   -0.095017
  49 C :   -0.068866
  50 C :   -0.018606
  51 C :   -0.109441
  52 H :    0.022050
  53 H :    0.002388
  54 H :   -0.002100
  55 H :    0.021846
  56 H :    0.021916
  57 H :    0.026028
  58 H :    0.026633
  59 H :    0.004699
  60 H :    0.004736
  61 H :    0.060206
  62 H :    0.061975
  63 H :    0.030953
  64 H :    0.002992
  65 H :    0.045915
  66 H :    0.029361
  67 H :    0.028437
  68 H :    0.031708
  69 H :    0.030409
  70 H :   -0.004905
  71 H :    0.043667
  72 H :    0.037902
  73 H :    0.007197
  74 H :    0.050868
  75 H :    0.037541
  76 H :    0.034996
  77 H :    0.036303
  78 H :    0.035967
  79 H :    0.002988
  80 H :    0.050863
  81 H :    0.029016
  82 H :   -0.002909
  83 H :    0.042330
  84 H :    0.029766
  85 H :    0.027290
  86 H :    0.030090
  87 H :    0.031368
  88 H :    0.002456
  89 H :    0.045118

  Mayer bond orders larger than 0.100000
B(  0-C ,  1-N ) :   1.0924 B(  0-C , 17-C ) :   1.7229 B(  0-C , 52-H ) :   0.9608
B(  1-N ,  8-C ) :   1.0974 B(  1-N , 10-C ) :   0.9773 B(  2-C , 12-C ) :   1.4825
B(  2-C , 16-C ) :   1.3763 B(  2-C , 53-H ) :   0.9724 B(  3-N , 14-C ) :   1.2225
B(  3-N , 16-C ) :   1.1804 B(  3-N , 61-H ) :   0.8985 B(  4-C ,  6-C ) :   1.2204
B(  4-C , 17-C ) :   1.2200 B(  4-C , 18-C ) :   1.4794 B(  5-N , 19-C ) :   1.4590
B(  5-N , 27-C ) :   1.3698 B(  6-C ,  8-C ) :   1.7211 B(  6-C , 54-H ) :   0.8801
B(  7-N , 30-C ) :   1.1947 B(  7-N , 38-C ) :   1.1898 B(  7-N , 62-H ) :   0.8966
B(  8-C , 55-H ) :   0.9620 B(  9-N , 41-C ) :   1.3931 B(  9-N , 49-C ) :   1.4265
B( 10-C , 56-H ) :   0.9776 B( 10-C , 57-H ) :   0.9830 B( 10-C , 58-H ) :   0.9835
B( 11-N , 20-C ) :   1.1323 B( 11-N , 24-C ) :   1.1077 B( 11-N , 25-C ) :   0.9597
B( 12-C , 14-C ) :   1.3612 B( 12-C , 59-H ) :   0.9204 B( 13-N , 31-C ) :   1.1629
B( 13-N , 35-C ) :   1.1607 B( 13-N , 36-C ) :   0.9410 B( 14-C , 18-C ) :   1.1148
B( 15-N , 42-C ) :   1.1070 B( 15-N , 46-C ) :   1.1241 B( 15-N , 47-C ) :   0.9615
B( 16-C , 51-C ) :   1.1663 B( 17-C , 60-H ) :   0.8809 B( 18-C , 19-C ) :   1.1140
B( 19-C , 21-C ) :   1.2527 B( 20-C , 28-C ) :   1.6275 B( 20-C , 63-H ) :   0.9702
B( 21-C , 26-C ) :   1.5823 B( 21-C , 64-H ) :   0.9231 B( 22-C , 23-C ) :   1.2907
B( 22-C , 28-C ) :   1.2647 B( 22-C , 29-C ) :   1.2246 B( 23-C , 24-C ) :   1.6188
B( 23-C , 65-H ) :   0.9703 B( 24-C , 66-H ) :   0.9695 B( 25-C , 67-H ) :   0.9761
B( 25-C , 68-H ) :   0.9828 B( 25-C , 69-H ) :   0.9823 B( 26-C , 27-C ) :   1.2612
B( 26-C , 70-H ) :   0.9665 B( 27-C , 29-C ) :   1.2060 B( 28-C , 71-H ) :   0.9720
B( 29-C , 30-C ) :   1.2485 B( 30-C , 32-C ) :   1.2771 B( 31-C , 39-C ) :   1.5869
B( 31-C , 72-H ) :   0.9681 B( 32-C , 37-C ) :   1.5818 B( 32-C , 73-H ) :   0.9786
B( 33-C , 34-C ) :   1.3082 B( 33-C , 39-C ) :   1.3045 B( 33-C , 40-C ) :   1.1741
B( 34-C , 35-C ) :   1.5842 B( 34-C , 74-H ) :   0.9696 B( 35-C , 75-H ) :   0.9681
B( 36-C , 76-H ) :   0.9768 B( 36-C , 77-H ) :   0.9815 B( 36-C , 78-H ) :   0.9823
B( 37-C , 38-C ) :   1.2831 B( 37-C , 79-H ) :   0.9764 B( 38-C , 40-C ) :   1.2355
B( 39-C , 80-H ) :   0.9705 B( 40-C , 41-C ) :   1.2508 B( 41-C , 43-C ) :   1.1848
B( 42-C , 50-C ) :   1.6341 B( 42-C , 81-H ) :   0.9697 B( 43-C , 48-C ) :   1.6680
B( 43-C , 82-H ) :   0.9720 B( 44-C , 45-C ) :   1.2626 B( 44-C , 50-C ) :   1.2716
B( 44-C , 51-C ) :   1.2629 B( 45-C , 46-C ) :   1.6354 B( 45-C , 83-H ) :   0.9719
B( 46-C , 84-H ) :   0.9700 B( 47-C , 85-H ) :   0.9762 B( 47-C , 86-H ) :   0.9829
B( 47-C , 87-H ) :   0.9825 B( 48-C , 49-C ) :   1.1882 B( 48-C , 88-H ) :   0.9749
B( 49-C , 51-C ) :   1.2448 B( 50-C , 89-H ) :   0.9708

MP2 TOTAL ENERGY:    -2130.782690177 Eh
FINAL SINGLE POINT ENERGY     -2130.782690177067

DIPOLE MOMENT
-------------
                                X             Y             Z
Electronic contribution:      2.71923      -4.47688      -0.21192
Nuclear contribution   :      0.05640       0.22297       0.20846
                        -----------------------------------------
Total Dipole Moment    :      2.77563      -4.25390      -0.00345
                        -----------------------------------------
Magnitude (a.u.)       :      5.07935
Magnitude (Debye)      :     12.91069

Rotational constants in cm-1:     0.001501     0.001480     0.000760
Rotational constants in MHz :    45.009567    44.354473    22.782753

                             ****ORCA TERMINATED NORMALLY****
TOTAL RUN TIME: 0 days 1 hours 19 minutes 51 seconds 669 msec
