                         Program Version 5.0.4 -  RELEASE  -
|  1> ! PAL2
|  2> ! mp2 cc-pvdz TightSCF  NoKeepInts
|  3>
|  4> %scf
|  5>   MaxCore 2000
|  6> end
|  7> %mp2
|  8>   MaxCore 2000
|  9> end
| 10> * xyz 0 1
| 11>    C       -4.89300         5.23300        -0.34200
| 12>    C        1.47400         4.04100         0.05700
| 13>    C       -2.80200         4.09300         0.04900
| 14>    C       -2.27500         5.31800         0.48600
| 15>    C       -3.06600         6.44900         0.49800
| 16>    C       -5.18700         7.61900         0.14600
| 17>    C        0.13200         4.30700         0.06100
| 18>    C       -0.56900         3.05600         0.04700
| 19>    C        1.64900         2.61800         0.02300
| 20>    C       -4.14200         4.07300        -0.36600
| 21>    N       -4.35400         6.39800         0.08500
| 22>    N        0.38800         2.06700         0.02500
| 23>    N       -2.01000         0.39500        -0.07500
| 24>    N       -0.38800        -2.07400        -0.02700
| 25>    N        2.01000        -0.40100         0.06500
| 26>    C       -1.96000         2.86100         0.02400
| 27>    C       -2.62300         1.61500        -0.01800
| 28>    C       -5.57300        -4.32900         1.06600
| 29>    C       -4.07300         1.47100         0.05600
| 30>    C       -4.10600        -2.75600        -0.02600
| 31>    C       -4.99500        -2.75700        -1.11100
| 32>    C       -6.13200        -3.54200        -1.07600
| 33>    C       -7.65100        -5.11300         0.04000
| 34>    C       -4.32400         0.14100         0.03700
| 35>    C       -3.02500        -0.52000        -0.04800
| 36>    C       -4.42200        -3.56600         1.07500
| 37>    N       -6.40700        -4.31300         0.00100
| 38>    C       -2.86700        -1.92200        -0.04000
| 39>    C       -1.65000        -2.62400        -0.02700
| 40>    C        3.56800        -6.14200        -1.04000
| 41>    C       -1.47600        -4.04900        -0.03400
| 42>    C        2.80300        -4.09900        -0.00800
| 43>    C        3.65700        -4.38400         1.06900
| 44>    C        4.42700        -5.53000         1.05900
| 45>    C        5.24500        -7.58800         0.01400
| 46>    C       -0.13400        -4.31500        -0.02200
| 47>    C        0.56800        -3.06400        -0.02700
| 48>    C        2.77500        -5.01200        -1.07400
| 49>    N        4.37600        -6.39100         0.01700
| 50>    C        1.95900        -2.86900        -0.00900
| 51>    C        2.62100        -1.62200         0.00900
| 52>    C        5.54300         4.33900        -1.13000
| 53>    C        4.07000        -1.47900        -0.09400
| 54>    C        4.10400         2.75100        -0.02100
| 55>    C        5.02700         2.72900         1.03600
| 56>    C        6.16600         3.50900         0.97800
| 57>    C        7.61900         5.15300        -0.11500
| 58>    C        4.32100        -0.14800        -0.09200
| 59>    C        3.02500         0.51400         0.01500
| 60>    C        4.38700         3.58200        -1.11500
| 61>    C        2.86600         1.91600         0.01300
| 62>    N        6.41300         4.29600        -0.09500
| 63>    H       -5.92600         5.26700        -0.66400
| 64>    H        2.27400         4.76600         0.08100
| 65>    H       -1.25000         5.39500         0.82800
| 66>    H       -2.70700         7.41300         0.83400
| 67>    H       -5.62000         7.70500         1.14500
| 68>    H       -4.55800         8.48400        -0.06600
| 69>    H       -5.97800         7.54100        -0.60000
| 70>    H       -0.33200         5.28200         0.06900
| 71>    H       -4.60300         3.16100        -0.72800
| 72>    H        0.18200         1.07200         0.00500
| 73>    H       -0.18300        -1.08000        -0.02100
| 74>    H       -5.86400        -4.96200         1.89500
| 75>    H       -4.79400         2.27200         0.13900
| 76>    H       -4.80000        -2.16000        -1.99400
| 77>    H       -6.84100        -3.58200        -1.89300
| 78>    H       -8.42800        -4.53600         0.54600
| 79>    H       -7.95600        -5.33700        -0.98100
| 80>    H       -7.45600        -6.03700         0.58400
| 81>    H       -5.28700        -0.34400         0.10000
| 82>    H       -3.78000        -3.60100         1.94700
| 83>    H        3.58700        -6.86800        -1.84300
| 84>    H       -2.27600        -4.77400        -0.05000
| 85>    H        3.71400        -3.72400         1.92600
| 86>    H        5.09200        -5.79500         1.87100
| 87>    H        6.20500        -7.32900        -0.43900
| 88>    H        5.39300        -7.91700         1.04200
| 89>    H        4.75900        -8.37300        -0.56400
| 90>    H        0.32900        -5.29000        -0.00800
| 91>    H        2.14600        -4.84200        -1.94000
| 92>    H        5.80800         4.98600        -1.95600
| 93>    H        4.78800        -2.28100        -0.18500
| 94>    H        4.86000         2.11400         1.91200
| 95>    H        6.90100         3.53100         1.77200
| 96>    H        7.38300         6.10900         0.35600
| 97>    H        8.41400         4.65200         0.43500
| 98>    H        7.92100         5.31000        -1.15000
| 99>    H        5.28300         0.33600        -0.17900
|100>    H        3.72000         3.63200        -1.96700
|101> *
|102>
|103>                          ****END OF INPUT****

CARTESIAN COORDINATES (ANGSTROEM)
---------------------------------
  C     -4.893000    5.233000   -0.342000
  C      1.474000    4.041000    0.057000
  C     -2.802000    4.093000    0.049000
  C     -2.275000    5.318000    0.486000
  C     -3.066000    6.449000    0.498000
  C     -5.187000    7.619000    0.146000
  C      0.132000    4.307000    0.061000
  C     -0.569000    3.056000    0.047000
  C      1.649000    2.618000    0.023000
  C     -4.142000    4.073000   -0.366000
  N     -4.354000    6.398000    0.085000
  N      0.388000    2.067000    0.025000
  N     -2.010000    0.395000   -0.075000
  N     -0.388000   -2.074000   -0.027000
  N      2.010000   -0.401000    0.065000
  C     -1.960000    2.861000    0.024000
  C     -2.623000    1.615000   -0.018000
  C     -5.573000   -4.329000    1.066000
  C     -4.073000    1.471000    0.056000
  C     -4.106000   -2.756000   -0.026000
  C     -4.995000   -2.757000   -1.111000
  C     -6.132000   -3.542000   -1.076000
  C     -7.651000   -5.113000    0.040000
  C     -4.324000    0.141000    0.037000
  C     -3.025000   -0.520000   -0.048000
  C     -4.422000   -3.566000    1.075000
  N     -6.407000   -4.313000    0.001000
  C     -2.867000   -1.922000   -0.040000
  C     -1.650000   -2.624000   -0.027000
  C      3.568000   -6.142000   -1.040000
  C     -1.476000   -4.049000   -0.034000
  C      2.803000   -4.099000   -0.008000
  C      3.657000   -4.384000    1.069000
  C      4.427000   -5.530000    1.059000
  C      5.245000   -7.588000    0.014000
  C     -0.134000   -4.315000   -0.022000
  C      0.568000   -3.064000   -0.027000
  C      2.775000   -5.012000   -1.074000
  N      4.376000   -6.391000    0.017000
  C      1.959000   -2.869000   -0.009000
  C      2.621000   -1.622000    0.009000
  C      5.543000    4.339000   -1.130000
  C      4.070000   -1.479000   -0.094000
  C      4.104000    2.751000   -0.021000
  C      5.027000    2.729000    1.036000
  C      6.166000    3.509000    0.978000
  C      7.619000    5.153000   -0.115000
  C      4.321000   -0.148000   -0.092000
  C      3.025000    0.514000    0.015000
  C      4.387000    3.582000   -1.115000
  C      2.866000    1.916000    0.013000
  N      6.413000    4.296000   -0.095000
  H     -5.926000    5.267000   -0.664000
  H      2.274000    4.766000    0.081000
  H     -1.250000    5.395000    0.828000
  H     -2.707000    7.413000    0.834000
  H     -5.620000    7.705000    1.145000
  H     -4.558000    8.484000   -0.066000
  H     -5.978000    7.541000   -0.600000
  H     -0.332000    5.282000    0.069000
  H     -4.603000    3.161000   -0.728000
  H      0.182000    1.072000    0.005000
  H     -0.183000   -1.080000   -0.021000
  H     -5.864000   -4.962000    1.895000
  H     -4.794000    2.272000    0.139000
  H     -4.800000   -2.160000   -1.994000
  H     -6.841000   -3.582000   -1.893000
  H     -8.428000   -4.536000    0.546000
  H     -7.956000   -5.337000   -0.981000
  H     -7.456000   -6.037000    0.584000
  H     -5.287000   -0.344000    0.100000
  H     -3.780000   -3.601000    1.947000
  H      3.587000   -6.868000   -1.843000
  H     -2.276000   -4.774000   -0.050000
  H      3.714000   -3.724000    1.926000
  H      5.092000   -5.795000    1.871000
  H      6.205000   -7.329000   -0.439000
  H      5.393000   -7.917000    1.042000
  H      4.759000   -8.373000   -0.564000
  H      0.329000   -5.290000   -0.008000
  H      2.146000   -4.842000   -1.940000
  H      5.808000    4.986000   -1.956000
  H      4.788000   -2.281000   -0.185000
  H      4.860000    2.114000    1.912000
  H      6.901000    3.531000    1.772000
  H      7.383000    6.109000    0.356000
  H      8.414000    4.652000    0.435000
  H      7.921000    5.310000   -1.150000
  H      5.283000    0.336000   -0.179000
  H      3.720000    3.632000   -1.967000

 Total Charge           Charge          ....    0
 Multiplicity           Mult            ....    1
 Number of Electrons    NEL             ....  358
 Basis Dimension        Dim             ....  918

ORBITAL ENERGIES
----------------

  NO   OCC          E(Eh)            E(eV)
   0   2.0000     -15.678298      -426.6282
   1   2.0000     -15.636236      -425.4836
   2   2.0000     -15.629695      -425.3056
   3   2.0000     -15.587550      -424.1588
   4   2.0000     -15.525672      -422.4750
   5   2.0000     -15.515560      -422.1999
   6   2.0000     -15.453054      -420.4990
   7   2.0000     -15.441306      -420.1793
   8   2.0000     -11.328486      -308.2638
   9   2.0000     -11.327007      -308.2235
  10   2.0000     -11.326775      -308.2172
  11   2.0000     -11.300733      -307.5086
  12   2.0000     -11.297022      -307.4076
  13   2.0000     -11.294807      -307.3473
  14   2.0000     -11.289301      -307.1975
  15   2.0000     -11.288691      -307.1809
  16   2.0000     -11.284811      -307.0753
  17   2.0000     -11.280671      -306.9627
  18   2.0000     -11.270399      -306.6831
  19   2.0000     -11.262356      -306.4643
  20   2.0000     -11.261387      -306.4379
  21   2.0000     -11.252141      -306.1863
  22   2.0000     -11.250645      -306.1456
  23   2.0000     -11.239943      -305.8544
  24   2.0000     -11.234550      -305.7076
  25   2.0000     -11.232888      -305.6624
  26   2.0000     -11.232265      -305.6455
  27   2.0000     -11.228165      -305.5339
  28   2.0000     -11.227841      -305.5251
  29   2.0000     -11.211756      -305.0874
  30   2.0000     -11.210249      -305.0464
  31   2.0000     -11.195150      -304.6355
  32   2.0000     -11.190996      -304.5225
  33   2.0000     -11.189929      -304.4934
  34   2.0000     -11.188150      -304.4451
  35   2.0000     -11.186932      -304.4119
  36   2.0000     -11.185669      -304.3775
  37   2.0000     -11.182411      -304.2889
  38   2.0000     -11.182028      -304.2784
  39   2.0000     -11.174984      -304.0868
  40   2.0000     -11.173949      -304.0586
  41   2.0000     -11.169412      -303.9351
  42   2.0000     -11.169195      -303.9293
  43   2.0000     -11.160508      -303.6929
  44   2.0000     -11.160507      -303.6928
  45   2.0000     -11.158144      -303.6285
  46   2.0000     -11.155137      -303.5467
  47   2.0000     -11.155040      -303.5441
  48   2.0000     -11.146095      -303.3007
  49   2.0000     -11.135843      -303.0217
  50   2.0000     -11.131261      -302.8970
  51   2.0000     -11.119931      -302.5887
  52   2.0000      -1.359108       -36.9832
  53   2.0000      -1.323181       -36.0056
  54   2.0000      -1.317780       -35.8586
  55   2.0000      -1.281100       -34.8605
  56   2.0000      -1.226751       -33.3816
  57   2.0000      -1.209919       -32.9236
  58   2.0000      -1.172395       -31.9025
  59   2.0000      -1.151706       -31.3395
  60   2.0000      -1.142578       -31.0911
  61   2.0000      -1.111811       -30.2539
  62   2.0000      -1.107511       -30.1369
  63   2.0000      -1.080903       -29.4129
  64   2.0000      -1.077831       -29.3293
  65   2.0000      -1.047294       -28.4983
  66   2.0000      -1.042524       -28.3685
  67   2.0000      -1.040510       -28.3137
  68   2.0000      -1.015323       -27.6283
  69   2.0000      -1.011956       -27.5367
  70   2.0000      -1.008726       -27.4488
  71   2.0000      -0.994095       -27.0507
  72   2.0000      -0.985758       -26.8238
  73   2.0000      -0.981527       -26.7087
  74   2.0000      -0.972093       -26.4520
  75   2.0000      -0.961112       -26.1532
  76   2.0000      -0.953814       -25.9546
  77   2.0000      -0.945649       -25.7324
  78   2.0000      -0.935254       -25.4496
  79   2.0000      -0.917700       -24.9719
  80   2.0000      -0.909449       -24.7474
  81   2.0000      -0.895535       -24.3687
  82   2.0000      -0.875971       -23.8364
  83   2.0000      -0.873625       -23.7726
  84   2.0000      -0.868847       -23.6425
  85   2.0000      -0.857767       -23.3410
  86   2.0000      -0.839275       -22.8378
  87   2.0000      -0.836586       -22.7647
  88   2.0000      -0.825305       -22.4577
  89   2.0000      -0.797108       -21.6904
  90   2.0000      -0.789766       -21.4906
  91   2.0000      -0.753608       -20.5067
  92   2.0000      -0.748807       -20.3761
  93   2.0000      -0.733913       -19.9708
  94   2.0000      -0.725613       -19.7449
  95   2.0000      -0.723004       -19.6739
  96   2.0000      -0.717277       -19.5181
  97   2.0000      -0.714523       -19.4432
  98   2.0000      -0.708886       -19.2898
  99   2.0000      -0.698105       -18.9964
 100   2.0000      -0.696356       -18.9488
 101   2.0000      -0.685685       -18.6584
 102   2.0000      -0.683264       -18.5926
 103   2.0000      -0.681743       -18.5512
 104   2.0000      -0.679498       -18.4901
 105   2.0000      -0.673199       -18.3187
 106   2.0000      -0.671105       -18.2617
 107   2.0000      -0.660711       -17.9789
 108   2.0000      -0.655972       -17.8499
 109   2.0000      -0.654359       -17.8060
 110   2.0000      -0.650161       -17.6918
 111   2.0000      -0.645066       -17.5532
 112   2.0000      -0.644356       -17.5338
 113   2.0000      -0.638240       -17.3674
 114   2.0000      -0.636797       -17.3281
 115   2.0000      -0.627077       -17.0636
 116   2.0000      -0.621878       -16.9222
 117   2.0000      -0.619816       -16.8661
 118   2.0000      -0.614214       -16.7136
 119   2.0000      -0.613267       -16.6879
 120   2.0000      -0.610514       -16.6129
 121   2.0000      -0.609782       -16.5930
 122   2.0000      -0.599672       -16.3179
 123   2.0000      -0.586896       -15.9703
 124   2.0000      -0.582903       -15.8616
 125   2.0000      -0.580536       -15.7972
 126   2.0000      -0.579037       -15.7564
 127   2.0000      -0.572736       -15.5849
 128   2.0000      -0.569162       -15.4877
 129   2.0000      -0.559284       -15.2189
 130   2.0000      -0.551992       -15.0205
 131   2.0000      -0.547766       -14.9055
 132   2.0000      -0.543092       -14.7783
 133   2.0000      -0.542418       -14.7599
 134   2.0000      -0.539575       -14.6826
 135   2.0000      -0.534766       -14.5517
 136   2.0000      -0.529387       -14.4054
 137   2.0000      -0.519672       -14.1410
 138   2.0000      -0.518416       -14.1068
 139   2.0000      -0.514293       -13.9946
 140   2.0000      -0.511748       -13.9254
 141   2.0000      -0.510748       -13.8982
 142   2.0000      -0.510059       -13.8794
 143   2.0000      -0.504309       -13.7229
 144   2.0000      -0.500636       -13.6230
 145   2.0000      -0.495732       -13.4895
 146   2.0000      -0.492027       -13.3887
 147   2.0000      -0.482106       -13.1188
 148   2.0000      -0.477565       -12.9952
 149   2.0000      -0.467329       -12.7167
 150   2.0000      -0.466055       -12.6820
 151   2.0000      -0.456899       -12.4328
 152   2.0000      -0.450714       -12.2646
 153   2.0000      -0.445664       -12.1271
 154   2.0000      -0.440228       -11.9792
 155   2.0000      -0.427784       -11.6406
 156   2.0000      -0.414954       -11.2915
 157   2.0000      -0.408227       -11.1084
 158   2.0000      -0.406905       -11.0724
 159   2.0000      -0.387218       -10.5367
 160   2.0000      -0.386641       -10.5210
 161   2.0000      -0.377951       -10.2846
 162   2.0000      -0.371437       -10.1073
 163   2.0000      -0.358228        -9.7479
 164   2.0000      -0.354401        -9.6437
 165   2.0000      -0.341016        -9.2795
 166   2.0000      -0.337901        -9.1947
 167   2.0000      -0.326012        -8.8712
 168   2.0000      -0.321153        -8.7390
 169   2.0000      -0.305938        -8.3250
 170   2.0000      -0.299309        -8.1446
 171   2.0000      -0.285046        -7.7565
 172   2.0000      -0.279724        -7.6117
 173   2.0000      -0.262872        -7.1531
 174   2.0000      -0.242092        -6.5877
 175   2.0000      -0.190120        -5.1734
 176   2.0000      -0.180775        -4.9191
 177   2.0000      -0.078612        -2.1391
 178   2.0000      -0.059239        -1.6120
 179   0.0000       0.028179         0.7668
 180   0.0000       0.065354         1.7784
 181   0.0000       0.090676         2.4674
 182   0.0000       0.107157         2.9159
 183   0.0000       0.113284         3.0826

MULLIKEN ATOMIC CHARGES
-----------------------
   0 C :    0.211698
   1 N :   -0.456965
   2 C :   -0.074269
   3 N :   -0.339490
   4 C :   -0.058021
   5 N :   -0.565002
   6 C :   -0.123631
   7 N :   -0.340770
   8 C :    0.214123
   9 N :   -0.562575
  10 C :    0.118939
  11 N :   -0.438003
  12 C :   -0.068589
  13 N :   -0.429689
  14 C :    0.214097
  15 N :   -0.441399
  16 C :    0.231929
  17 C :   -0.120801
  18 C :   -0.155523
  19 C :    0.202945
  20 C :    0.214512
  21 C :   -0.083159
  22 C :   -0.089140
  23 C :   -0.039962
  24 C :    0.194863
  25 C :    0.114304
  26 C :   -0.085711
  27 C :    0.213145
  28 C :   -0.061234
  29 C :   -0.182140
  30 C :    0.245765
  31 C :    0.230537
  32 C :   -0.061294
  33 C :   -0.061037
  34 C :   -0.050180
  35 C :    0.226756
  36 C :    0.108420
  37 C :   -0.064304
  38 C :    0.232118
  39 C :   -0.058590
  40 C :   -0.180925
  41 C :    0.224697
  42 C :    0.196959
  43 C :   -0.072665
  44 C :   -0.090756
  45 C :   -0.061406
  46 C :    0.210342
  47 C :    0.115608
  48 C :   -0.067365
  49 C :    0.238104
  50 C :   -0.046455
  51 C :   -0.195051
  52 H :    0.037176
  53 H :   -0.017653
  54 H :    0.049118
  55 H :    0.035743
  56 H :    0.049088
  57 H :    0.047575
  58 H :    0.046575
  59 H :   -0.002038
  60 H :    0.052400
  61 H :    0.170959
  62 H :    0.175696
  63 H :    0.056117
  64 H :   -0.007080
  65 H :    0.047143
  66 H :    0.056248
  67 H :    0.063162
  68 H :    0.057597
  69 H :    0.056894
  70 H :   -0.029470
  71 H :    0.045674
  72 H :    0.071007
  73 H :   -0.007988
  74 H :    0.060152
  75 H :    0.070336
  76 H :    0.074692
  77 H :    0.067772
  78 H :    0.066969
  79 H :   -0.016129
  80 H :    0.060868
  81 H :    0.053906
  82 H :   -0.025260
  83 H :    0.041147
  84 H :    0.053436
  85 H :    0.060266
  86 H :    0.055115
  87 H :    0.056877
  88 H :   -0.014607
  89 H :    0.046760
Sum of atomic charges:    0.0000000

LOEWDIN ATOMIC CHARGES
----------------------
   0 C :   -0.023791
   1 N :    0.117266
   2 C :   -0.102659
   3 N :    0.183231
   4 C :   -0.013579
   5 N :   -0.131805
   6 C :   -0.042856
   7 N :    0.175256
   8 C :   -0.019825
   9 N :   -0.140641
  10 C :    0.023038
  11 N :    0.143061
  12 C :   -0.115112
  13 N :    0.165621
  14 C :   -0.024056
  15 N :    0.137768
  16 C :   -0.058802
  17 C :   -0.041926
  18 C :   -0.105042
  19 C :   -0.079418
  20 C :    0.005796
  21 C :   -0.122650
  22 C :    0.038775
  23 C :   -0.014582
  24 C :   -0.011276
  25 C :    0.030085
  26 C :   -0.109167
  27 C :   -0.116931
  28 C :   -0.026905
  29 C :   -0.098658
  30 C :   -0.030933
  31 C :    0.024482
  32 C :   -0.093523
  33 C :    0.080812
  34 C :   -0.014649
  35 C :    0.021465
  36 C :    0.035096
  37 C :   -0.094167
  38 C :   -0.050446
  39 C :   -0.018280
  40 C :   -0.108211
  41 C :   -0.093088
  42 C :   -0.010981
  43 C :   -0.099684
  44 C :    0.031882
  45 C :   -0.028501
  46 C :    0.000575
  47 C :    0.029270
  48 C :   -0.095764
  49 C :   -0.069459
  50 C :   -0.019023
  51 C :   -0.110083
  52 H :    0.022575
  53 H :    0.002578
  54 H :    0.030595
  55 H :    0.022742
  56 H :    0.021563
  57 H :    0.026298
  58 H :    0.026763
  59 H :    0.011261
  60 H :    0.035362
  61 H :    0.060029
  62 H :    0.061957
  63 H :    0.031117
  64 H :    0.008553
  65 H :    0.045906
  66 H :    0.029538
  67 H :    0.028587
  68 H :    0.031796
  69 H :    0.030547
  70 H :   -0.004555
  71 H :    0.043868
  72 H :    0.037600
  73 H :    0.007134
  74 H :    0.050630
  75 H :    0.037151
  76 H :    0.034675
  77 H :    0.036079
  78 H :    0.035723
  79 H :    0.003180
  80 H :    0.050511
  81 H :    0.028873
  82 H :   -0.002928
  83 H :    0.042178
  84 H :    0.029525
  85 H :    0.027081
  86 H :    0.029975
  87 H :    0.031249
  88 H :    0.002332
  89 H :    0.044944

  Mayer bond orders larger than 0.100000
B(  0-C ,  1-N ) :   1.0886 B(  0-C , 17-C ) :   1.7161 B(  0-C , 52-H ) :   0.9645
B(  1-N ,  8-C ) :   1.0928 B(  1-N , 10-C ) :   0.9785 B(  2-C , 12-C ) :   1.4945
B(  2-C , 16-C ) :   1.3660 B(  2-C , 53-H ) :   0.9746 B(  3-N , 14-C ) :   1.2196
B(  3-N , 16-C ) :   1.1868 B(  3-N , 61-H ) :   0.8992 B(  4-C ,  6-C ) :   1.2117
B(  4-C , 17-C ) :   1.2127 B(  4-C , 18-C ) :   1.4599 B(  5-N , 19-C ) :   1.4556
B(  5-N , 27-C ) :   1.3752 B(  6-C ,  8-C ) :   1.7141 B(  6-C , 54-H ) :   0.9314
B(  7-N , 30-C ) :   1.1944 B(  7-N , 38-C ) :   1.1909 B(  7-N , 62-H ) :   0.8966
B(  8-C , 55-H ) :   0.9654 B(  9-N , 41-C ) :   1.3923 B(  9-N , 49-C ) :   1.4278
B( 10-C , 56-H ) :   0.9772 B( 10-C , 57-H ) :   0.9832 B( 10-C , 58-H ) :   0.9834
B( 11-N , 20-C ) :   1.1324 B( 11-N , 24-C ) :   1.1089 B( 11-N , 25-C ) :   0.9593
B( 12-C , 14-C ) :   1.3587 B( 12-C , 59-H ) :   0.9611 B( 13-N , 31-C ) :   1.1615
B( 13-N , 35-C ) :   1.1578 B( 13-N , 36-C ) :   0.9419 B( 14-C , 18-C ) :   1.1205
B( 15-N , 42-C ) :   1.1066 B( 15-N , 46-C ) :   1.1225 B( 15-N , 47-C ) :   0.9621
B( 16-C , 51-C ) :   1.1679 B( 17-C , 60-H ) :   0.9344 B( 18-C , 19-C ) :   1.1218
B( 19-C , 21-C ) :   1.2495 B( 20-C , 28-C ) :   1.6266 B( 20-C , 63-H ) :   0.9702
B( 21-C , 26-C ) :   1.5973 B( 21-C , 64-H ) :   0.9618 B( 22-C , 23-C ) :   1.2910
B( 22-C , 28-C ) :   1.2659 B( 22-C , 29-C ) :   1.2221 B( 23-C , 24-C ) :   1.6181
B( 23-C , 65-H ) :   0.9704 B( 24-C , 66-H ) :   0.9695 B( 25-C , 67-H ) :   0.9760
B( 25-C , 68-H ) :   0.9828 B( 25-C , 69-H ) :   0.9823 B( 26-C , 27-C ) :   1.2489
B( 26-C , 70-H ) :   0.9687 B( 27-C , 29-C ) :   1.2094 B( 28-C , 71-H ) :   0.9719
B( 29-C , 30-C ) :   1.2466 B( 30-C , 32-C ) :   1.2784 B( 31-C , 39-C ) :   1.5891
B( 31-C , 72-H ) :   0.9681 B( 32-C , 37-C ) :   1.5809 B( 32-C , 73-H ) :   0.9785
B( 33-C , 34-C ) :   1.3074 B( 33-C , 39-C ) :   1.3022 B( 33-C , 40-C ) :   1.1768
B( 34-C , 35-C ) :   1.5860 B( 34-C , 74-H ) :   0.9696 B( 35-C , 75-H ) :   0.9682
B( 36-C , 76-H ) :   0.9767 B( 36-C , 77-H ) :   0.9816 B( 36-C , 78-H ) :   0.9823
B( 37-C , 38-C ) :   1.2836 B( 37-C , 79-H ) :   0.9766 B( 38-C , 40-C ) :   1.2347
B( 39-C , 80-H ) :   0.9706 B( 40-C , 41-C ) :   1.2497 B( 41-C , 43-C ) :   1.1868
B( 42-C , 50-C ) :   1.6353 B( 42-C , 81-H ) :   0.9697 B( 43-C , 48-C ) :   1.6655
B( 43-C , 82-H ) :   0.9721 B( 44-C , 45-C ) :   1.2621 B( 44-C , 50-C ) :   1.2702
B( 44-C , 51-C ) :   1.2648 B( 45-C , 46-C ) :   1.6365 B( 45-C , 83-H ) :   0.9718
B( 46-C , 84-H ) :   0.9701 B( 47-C , 85-H ) :   0.9762 B( 47-C , 86-H ) :   0.9829
B( 47-C , 87-H ) :   0.9825 B( 48-C , 49-C ) :   1.1904 B( 48-C , 88-H ) :   0.9749
B( 49-C , 51-C ) :   1.2411 B( 50-C , 89-H ) :   0.9709

MP2 TOTAL ENERGY:    -2130.854115779 Eh
FINAL SINGLE POINT ENERGY     -2130.854115778604

DIPOLE MOMENT
-------------
                                X             Y             Z
Electronic contribution:      2.50509      -4.38524      -0.22073
Nuclear contribution   :      0.04723       0.21683       0.21766
                        -----------------------------------------
Total Dipole Moment    :      2.55232      -4.16841      -0.00308
                        -----------------------------------------
Magnitude (a.u.)       :      4.88774
Magnitude (Debye)      :     12.42365

Rotational constants in cm-1:     0.001501     0.001479     0.000760
Rotational constants in MHz :    44.993599    44.338055    22.791503

                             ****ORCA TERMINATED NORMALLY****
TOTAL RUN TIME: 0 days 1 hours 16 minutes 31 seconds 606 msec
