                         Program Version 5.0.4 -  RELEASE  -
|  1> ! PAL2
|  2> ! mp2 cc-pvdz TightSCF  NoKeepInts
|  3>
|  4> %scf
|  5>   MaxCore 2000
|  6> end
|  7> %mp2
|  8>   MaxCore 2000
|  9> end
| 10> * xyz 0 1
| 11>    C       -4.06100         5.76900         1.24500
| 12>    C        1.47400         4.04100         0.05700
| 13>    C       -2.80200         4.09300         0.04900
| 14>    C       -3.15400         4.75000        -1.14000
| 15>    C       -3.93800         5.88600        -1.09900
| 16>    C       -5.18900         7.61900         0.09300
| 17>    C        0.13200         4.30700         0.06100
| 18>    C       -0.56900         3.05600         0.04700
| 19>    C        1.64900         2.61800         0.02300
| 20>    C       -3.27400         4.63400         1.25500
| 21>    N       -4.38300         6.37800         0.08100
| 22>    N        0.38800         2.06700         0.02500
| 23>    N       -2.01000         0.39500        -0.07500
| 24>    N       -0.38800        -2.07400        -0.02700
| 25>    N        2.01000        -0.40100         0.06500
| 26>    C       -1.96000         2.86100         0.02400
| 27>    C       -2.62300         1.61500        -0.01800
| 28>    C       -5.57300        -4.32900         1.06600
| 29>    C       -4.07300         1.47100         0.05600
| 30>    C       -4.10600        -2.75600        -0.02600
| 31>    C       -4.99500        -2.75700        -1.11100
| 32>    C       -6.13200        -3.54200        -1.07600
| 33>    C       -7.65100        -5.11300         0.04000
| 34>    C       -4.32400         0.14100         0.03700
| 35>    C       -3.02500        -0.52000        -0.04800
| 36>    C       -4.42200        -3.56600         1.07500
| 37>    N       -6.40700        -4.31300         0.00100
| 38>    C       -2.86700        -1.92200        -0.04000
| 39>    C       -1.65000        -2.62400        -0.02700
| 40>    C        3.56800        -6.14200        -1.04000
| 41>    C       -1.47600        -4.04900        -0.03400
| 42>    C        2.80300        -4.09900        -0.00800
| 43>    C        3.65700        -4.38400         1.06900
| 44>    C        4.42700        -5.53000         1.05900
| 45>    C        5.24500        -7.58800         0.01400
| 46>    C       -0.13400        -4.31500        -0.02200
| 47>    C        0.56800        -3.06400        -0.02700
| 48>    C        2.77500        -5.01200        -1.07400
| 49>    N        4.37600        -6.39100         0.01700
| 50>    C        1.95900        -2.86900        -0.00900
| 51>    C        2.62100        -1.62200         0.00900
| 52>    C        5.54300         4.33900        -1.13000
| 53>    C        4.07000        -1.47900        -0.09400
| 54>    C        4.10400         2.75100        -0.02100
| 55>    C        5.02700         2.72900         1.03600
| 56>    C        6.16600         3.50900         0.97800
| 57>    C        7.61900         5.15300        -0.11500
| 58>    C        4.32100        -0.14800        -0.09200
| 59>    C        3.02500         0.51400         0.01500
| 60>    C        4.38700         3.58200        -1.11500
| 61>    C        2.86600         1.91600         0.01300
| 62>    N        6.41300         4.29600        -0.09500
| 63>    H       -4.45700         6.21400         2.14900
| 64>    H        2.27400         4.76600         0.08100
| 65>    H       -2.81200         4.38700        -2.10200
| 66>    H       -4.22800         6.43100        -1.98800
| 67>    H       -4.51700         8.48000         0.10700
| 68>    H       -5.81200         7.64200        -0.80100
| 69>    H       -5.81600         7.62000         0.98500
| 70>    H       -0.33200         5.28200         0.06900
| 71>    H       -3.04900         4.16400         2.20600
| 72>    H        0.18200         1.07200         0.00500
| 73>    H       -0.18300        -1.08000        -0.02100
| 74>    H       -5.86400        -4.96200         1.89500
| 75>    H       -4.79400         2.27200         0.13900
| 76>    H       -4.80000        -2.16000        -1.99400
| 77>    H       -6.84100        -3.58200        -1.89300
| 78>    H       -8.42800        -4.53600         0.54600
| 79>    H       -7.95600        -5.33700        -0.98100
| 80>    H       -7.45600        -6.03700         0.58400
| 81>    H       -5.28700        -0.34400         0.10000
| 82>    H       -3.78000        -3.60100         1.94700
| 83>    H        3.58700        -6.86800        -1.84300
| 84>    H       -2.27600        -4.77400        -0.05000
| 85>    H        3.71400        -3.72400         1.92600
| 86>    H        5.09200        -5.79500         1.87100
| 87>    H        6.20500        -7.32900        -0.43900
| 88>    H        5.39300        -7.91700         1.04200
| 89>    H        4.75900        -8.37300        -0.56400
| 90>    H        0.32900        -5.29000        -0.00800
| 91>    H        2.14600        -4.84200        -1.94000
| 92>    H        5.80800         4.98600        -1.95600
| 93>    H        4.78800        -2.28100        -0.18500
| 94>    H        4.86000         2.11400         1.91200
| 95>    H        6.90100         3.53100         1.77200
| 96>    H        7.38300         6.10900         0.35600
| 97>    H        8.41400         4.65200         0.43500
| 98>    H        7.92100         5.31000        -1.15000
| 99>    H        5.28300         0.33600        -0.17900
|100>    H        3.72000         3.63200        -1.96700
|101> *
|102>
|103>                          ****END OF INPUT****

CARTESIAN COORDINATES (ANGSTROEM)
---------------------------------
  C     -4.061000    5.769000    1.245000
  C      1.474000    4.041000    0.057000
  C     -2.802000    4.093000    0.049000
  C     -3.154000    4.750000   -1.140000
  C     -3.938000    5.886000   -1.099000
  C     -5.189000    7.619000    0.093000
  C      0.132000    4.307000    0.061000
  C     -0.569000    3.056000    0.047000
  C      1.649000    2.618000    0.023000
  C     -3.274000    4.634000    1.255000
  N     -4.383000    6.378000    0.081000
  N      0.388000    2.067000    0.025000
  N     -2.010000    0.395000   -0.075000
  N     -0.388000   -2.074000   -0.027000
  N      2.010000   -0.401000    0.065000
  C     -1.960000    2.861000    0.024000
  C     -2.623000    1.615000   -0.018000
  C     -5.573000   -4.329000    1.066000
  C     -4.073000    1.471000    0.056000
  C     -4.106000   -2.756000   -0.026000
  C     -4.995000   -2.757000   -1.111000
  C     -6.132000   -3.542000   -1.076000
  C     -7.651000   -5.113000    0.040000
  C     -4.324000    0.141000    0.037000
  C     -3.025000   -0.520000   -0.048000
  C     -4.422000   -3.566000    1.075000
  N     -6.407000   -4.313000    0.001000
  C     -2.867000   -1.922000   -0.040000
  C     -1.650000   -2.624000   -0.027000
  C      3.568000   -6.142000   -1.040000
  C     -1.476000   -4.049000   -0.034000
  C      2.803000   -4.099000   -0.008000
  C      3.657000   -4.384000    1.069000
  C      4.427000   -5.530000    1.059000
  C      5.245000   -7.588000    0.014000
  C     -0.134000   -4.315000   -0.022000
  C      0.568000   -3.064000   -0.027000
  C      2.775000   -5.012000   -1.074000
  N      4.376000   -6.391000    0.017000
  C      1.959000   -2.869000   -0.009000
  C      2.621000   -1.622000    0.009000
  C      5.543000    4.339000   -1.130000
  C      4.070000   -1.479000   -0.094000
  C      4.104000    2.751000   -0.021000
  C      5.027000    2.729000    1.036000
  C      6.166000    3.509000    0.978000
  C      7.619000    5.153000   -0.115000
  C      4.321000   -0.148000   -0.092000
  C      3.025000    0.514000    0.015000
  C      4.387000    3.582000   -1.115000
  C      2.866000    1.916000    0.013000
  N      6.413000    4.296000   -0.095000
  H     -4.457000    6.214000    2.149000
  H      2.274000    4.766000    0.081000
  H     -2.812000    4.387000   -2.102000
  H     -4.228000    6.431000   -1.988000
  H     -4.517000    8.480000    0.107000
  H     -5.812000    7.642000   -0.801000
  H     -5.816000    7.620000    0.985000
  H     -0.332000    5.282000    0.069000
  H     -3.049000    4.164000    2.206000
  H      0.182000    1.072000    0.005000
  H     -0.183000   -1.080000   -0.021000
  H     -5.864000   -4.962000    1.895000
  H     -4.794000    2.272000    0.139000
  H     -4.800000   -2.160000   -1.994000
  H     -6.841000   -3.582000   -1.893000
  H     -8.428000   -4.536000    0.546000
  H     -7.956000   -5.337000   -0.981000
  H     -7.456000   -6.037000    0.584000
  H     -5.287000   -0.344000    0.100000
  H     -3.780000   -3.601000    1.947000
  H      3.587000   -6.868000   -1.843000
  H     -2.276000   -4.774000   -0.050000
  H      3.714000   -3.724000    1.926000
  H      5.092000   -5.795000    1.871000
  H      6.205000   -7.329000   -0.439000
  H      5.393000   -7.917000    1.042000
  H      4.759000   -8.373000   -0.564000
  H      0.329000   -5.290000   -0.008000
  H      2.146000   -4.842000   -1.940000
  H      5.808000    4.986000   -1.956000
  H      4.788000   -2.281000   -0.185000
  H      4.860000    2.114000    1.912000
  H      6.901000    3.531000    1.772000
  H      7.383000    6.109000    0.356000
  H      8.414000    4.652000    0.435000
  H      7.921000    5.310000   -1.150000
  H      5.283000    0.336000   -0.179000
  H      3.720000    3.632000   -1.967000

 Total Charge           Charge          ....    0
 Multiplicity           Mult            ....    1
 Number of Electrons    NEL             ....  358
 Basis Dimension        Dim             ....  918

ORBITAL ENERGIES
----------------

  NO   OCC          E(Eh)            E(eV)
   0   2.0000     -15.720878      -427.7869
   1   2.0000     -15.628293      -425.2675
   2   2.0000     -15.618213      -424.9932
   3   2.0000     -15.575898      -423.8417
   4   2.0000     -15.520844      -422.3436
   5   2.0000     -15.503973      -421.8845
   6   2.0000     -15.451399      -420.4539
   7   2.0000     -15.426606      -419.7793
   8   2.0000     -11.358041      -309.0680
   9   2.0000     -11.357559      -309.0549
  10   2.0000     -11.350838      -308.8720
  11   2.0000     -11.314620      -307.8865
  12   2.0000     -11.296275      -307.3873
  13   2.0000     -11.290541      -307.2312
  14   2.0000     -11.289393      -307.2000
  15   2.0000     -11.287227      -307.1411
  16   2.0000     -11.287117      -307.1381
  17   2.0000     -11.281253      -306.9785
  18   2.0000     -11.280222      -306.9504
  19   2.0000     -11.270901      -306.6968
  20   2.0000     -11.262741      -306.4748
  21   2.0000     -11.242536      -305.9250
  22   2.0000     -11.238861      -305.8250
  23   2.0000     -11.232056      -305.6398
  24   2.0000     -11.226635      -305.4923
  25   2.0000     -11.225739      -305.4679
  26   2.0000     -11.222539      -305.3808
  27   2.0000     -11.218705      -305.2765
  28   2.0000     -11.218380      -305.2676
  29   2.0000     -11.211473      -305.0797
  30   2.0000     -11.209603      -305.0288
  31   2.0000     -11.195787      -304.6529
  32   2.0000     -11.194689      -304.6230
  33   2.0000     -11.193335      -304.5861
  34   2.0000     -11.187730      -304.4336
  35   2.0000     -11.186970      -304.4129
  36   2.0000     -11.182511      -304.2916
  37   2.0000     -11.179541      -304.2108
  38   2.0000     -11.179506      -304.2098
  39   2.0000     -11.178184      -304.1739
  40   2.0000     -11.170523      -303.9654
  41   2.0000     -11.165415      -303.8264
  42   2.0000     -11.164472      -303.8007
  43   2.0000     -11.162111      -303.7365
  44   2.0000     -11.160519      -303.6932
  45   2.0000     -11.144307      -303.2520
  46   2.0000     -11.143722      -303.2361
  47   2.0000     -11.140368      -303.1448
  48   2.0000     -11.136944      -303.0516
  49   2.0000     -11.130451      -302.8750
  50   2.0000     -11.116398      -302.4926
  51   2.0000     -11.110634      -302.3357
  52   2.0000      -1.392246       -37.8849
  53   2.0000      -1.316570       -35.8257
  54   2.0000      -1.307276       -35.5728
  55   2.0000      -1.271274       -34.5931
  56   2.0000      -1.224652       -33.3245
  57   2.0000      -1.199985       -32.6532
  58   2.0000      -1.178588       -32.0710
  59   2.0000      -1.165576       -31.7169
  60   2.0000      -1.136613       -30.9288
  61   2.0000      -1.110096       -30.2073
  62   2.0000      -1.105900       -30.0931
  63   2.0000      -1.097091       -29.8534
  64   2.0000      -1.065549       -28.9951
  65   2.0000      -1.057991       -28.7894
  66   2.0000      -1.041034       -28.3280
  67   2.0000      -1.032247       -28.0889
  68   2.0000      -1.015298       -27.6277
  69   2.0000      -1.003868       -27.3166
  70   2.0000      -0.998531       -27.1714
  71   2.0000      -0.995269       -27.0826
  72   2.0000      -0.985615       -26.8200
  73   2.0000      -0.975833       -26.5538
  74   2.0000      -0.964482       -26.2449
  75   2.0000      -0.961176       -26.1549
  76   2.0000      -0.950700       -25.8699
  77   2.0000      -0.940301       -25.5869
  78   2.0000      -0.935923       -25.4678
  79   2.0000      -0.919530       -25.0217
  80   2.0000      -0.912039       -24.8178
  81   2.0000      -0.891421       -24.2568
  82   2.0000      -0.886893       -24.1336
  83   2.0000      -0.868160       -23.6238
  84   2.0000      -0.859782       -23.3959
  85   2.0000      -0.846205       -23.0264
  86   2.0000      -0.828934       -22.5564
  87   2.0000      -0.826070       -22.4785
  88   2.0000      -0.820033       -22.3142
  89   2.0000      -0.794253       -21.6127
  90   2.0000      -0.785636       -21.3782
  91   2.0000      -0.772651       -21.0249
  92   2.0000      -0.740918       -20.1614
  93   2.0000      -0.733561       -19.9612
  94   2.0000      -0.728960       -19.8360
  95   2.0000      -0.724234       -19.7074
  96   2.0000      -0.716050       -19.4847
  97   2.0000      -0.711051       -19.3487
  98   2.0000      -0.706385       -19.2217
  99   2.0000      -0.705397       -19.1948
 100   2.0000      -0.695807       -18.9339
 101   2.0000      -0.688009       -18.7217
 102   2.0000      -0.683929       -18.6106
 103   2.0000      -0.675726       -18.3875
 104   2.0000      -0.672292       -18.2940
 105   2.0000      -0.671866       -18.2824
 106   2.0000      -0.666592       -18.1389
 107   2.0000      -0.661468       -17.9994
 108   2.0000      -0.652018       -17.7423
 109   2.0000      -0.648817       -17.6552
 110   2.0000      -0.648364       -17.6429
 111   2.0000      -0.641804       -17.4644
 112   2.0000      -0.640428       -17.4269
 113   2.0000      -0.635147       -17.2832
 114   2.0000      -0.633695       -17.2437
 115   2.0000      -0.629067       -17.1178
 116   2.0000      -0.627021       -17.0621
 117   2.0000      -0.614491       -16.7212
 118   2.0000      -0.610706       -16.6181
 119   2.0000      -0.608763       -16.5653
 120   2.0000      -0.608255       -16.5514
 121   2.0000      -0.600442       -16.3389
 122   2.0000      -0.593200       -16.1418
 123   2.0000      -0.589152       -16.0316
 124   2.0000      -0.584121       -15.8947
 125   2.0000      -0.578095       -15.7308
 126   2.0000      -0.574573       -15.6349
 127   2.0000      -0.571505       -15.5514
 128   2.0000      -0.570472       -15.5233
 129   2.0000      -0.569324       -15.4921
 130   2.0000      -0.556235       -15.1359
 131   2.0000      -0.542702       -14.7677
 132   2.0000      -0.542036       -14.7496
 133   2.0000      -0.538199       -14.6451
 134   2.0000      -0.533492       -14.5171
 135   2.0000      -0.529098       -14.3975
 136   2.0000      -0.519510       -14.1366
 137   2.0000      -0.515616       -14.0306
 138   2.0000      -0.513742       -13.9796
 139   2.0000      -0.511853       -13.9282
 140   2.0000      -0.509705       -13.8698
 141   2.0000      -0.503330       -13.6963
 142   2.0000      -0.500993       -13.6327
 143   2.0000      -0.497438       -13.5360
 144   2.0000      -0.495298       -13.4777
 145   2.0000      -0.492555       -13.4031
 146   2.0000      -0.488256       -13.2861
 147   2.0000      -0.473004       -12.8711
 148   2.0000      -0.469864       -12.7857
 149   2.0000      -0.465959       -12.6794
 150   2.0000      -0.462742       -12.5918
 151   2.0000      -0.459970       -12.5164
 152   2.0000      -0.451941       -12.2979
 153   2.0000      -0.440739       -11.9931
 154   2.0000      -0.432606       -11.7718
 155   2.0000      -0.430849       -11.7240
 156   2.0000      -0.418621       -11.3912
 157   2.0000      -0.416619       -11.3368
 158   2.0000      -0.410920       -11.1817
 159   2.0000      -0.410517       -11.1707
 160   2.0000      -0.381361       -10.3774
 161   2.0000      -0.369269       -10.0483
 162   2.0000      -0.353209        -9.6113
 163   2.0000      -0.351584        -9.5671
 164   2.0000      -0.345392        -9.3986
 165   2.0000      -0.341707        -9.2983
 166   2.0000      -0.337832        -9.1929
 167   2.0000      -0.316505        -8.6125
 168   2.0000      -0.311693        -8.4816
 169   2.0000      -0.305150        -8.3036
 170   2.0000      -0.298053        -8.1104
 171   2.0000      -0.282379        -7.6839
 172   2.0000      -0.275243        -7.4897
 173   2.0000      -0.266617        -7.2550
 174   2.0000      -0.228719        -6.2238
 175   2.0000      -0.182900        -4.9770
 176   2.0000      -0.173121        -4.7109
 177   2.0000      -0.062712        -1.7065
 178   2.0000      -0.050699        -1.3796
 179   0.0000       0.036197         0.9850
 180   0.0000       0.054047         1.4707
 181   0.0000       0.072951         1.9851
 182   0.0000       0.098611         2.6833
 183   0.0000       0.102364         2.7855

MULLIKEN ATOMIC CHARGES
-----------------------
   0 C :    0.238512
   1 N :   -0.410180
   2 C :   -0.066255
   3 N :   -0.344282
   4 C :   -0.065038
   5 N :   -0.566350
   6 C :   -0.027758
   7 N :   -0.336748
   8 C :    0.236717
   9 N :   -0.566539
  10 C :    0.102296
  11 N :   -0.440209
  12 C :   -0.058141
  13 N :   -0.452074
  14 C :    0.219347
  15 N :   -0.441901
  16 C :    0.258258
  17 C :   -0.030845
  18 C :   -0.175809
  19 C :    0.231091
  20 C :    0.185659
  21 C :   -0.067731
  22 C :   -0.092359
  23 C :   -0.069401
  24 C :    0.217723
  25 C :    0.115203
  26 C :   -0.064630
  27 C :    0.250333
  28 C :   -0.038683
  29 C :   -0.198041
  30 C :    0.219304
  31 C :    0.185692
  32 C :   -0.064438
  33 C :   -0.104544
  34 C :   -0.050553
  35 C :    0.175998
  36 C :    0.121702
  37 C :   -0.071038
  38 C :    0.245177
  39 C :   -0.065727
  40 C :   -0.205954
  41 C :    0.215914
  42 C :    0.212707
  43 C :   -0.077782
  44 C :   -0.093102
  45 C :   -0.036816
  46 C :    0.181600
  47 C :    0.116973
  48 C :   -0.082649
  49 C :    0.205854
  50 C :   -0.069236
  51 C :   -0.188481
  52 H :    0.084540
  53 H :   -0.005964
  54 H :    0.069152
  55 H :    0.082987
  56 H :    0.087644
  57 H :    0.078218
  58 H :    0.076559
  59 H :   -0.030435
  60 H :    0.070164
  61 H :    0.177667
  62 H :    0.167205
  63 H :    0.051757
  64 H :   -0.035559
  65 H :    0.039548
  66 H :    0.054049
  67 H :    0.057200
  68 H :    0.055406
  69 H :    0.058612
  70 H :   -0.011992
  71 H :    0.045960
  72 H :    0.035487
  73 H :   -0.019697
  74 H :    0.027573
  75 H :    0.034135
  76 H :    0.044564
  77 H :    0.044815
  78 H :    0.044064
  79 H :   -0.011540
  80 H :    0.027285
  81 H :    0.049638
  82 H :   -0.022974
  83 H :    0.042378
  84 H :    0.048550
  85 H :    0.053454
  86 H :    0.056199
  87 H :    0.053989
  88 H :   -0.031226
  89 H :    0.037818
Sum of atomic charges:   -0.0000000

LOEWDIN ATOMIC CHARGES
----------------------
   0 C :    0.042327
   1 N :    0.198371
   2 C :   -0.098000
   3 N :    0.170436
   4 C :    0.126922
   5 N :   -0.149058
   6 C :   -0.010267
   7 N :    0.177477
   8 C :    0.041868
   9 N :   -0.138488
  10 C :    0.041208
  11 N :    0.137985
  12 C :   -0.096059
  13 N :    0.110632
  14 C :   -0.062975
  15 N :    0.133750
  16 C :   -0.013956
  17 C :   -0.010918
  18 C :   -0.122261
  19 C :   -0.089168
  20 C :   -0.021026
  21 C :   -0.098626
  22 C :    0.030659
  23 C :   -0.035641
  24 C :    0.007427
  25 C :    0.028958
  26 C :   -0.090391
  27 C :   -0.050401
  28 C :   -0.014562
  29 C :   -0.119262
  30 C :   -0.067047
  31 C :   -0.029279
  32 C :   -0.100893
  33 C :   -0.010906
  34 C :   -0.027549
  35 C :   -0.037964
  36 C :    0.022444
  37 C :   -0.111169
  38 C :   -0.027886
  39 C :   -0.035445
  40 C :   -0.114004
  41 C :   -0.093514
  42 C :    0.000909
  43 C :   -0.115233
  44 C :    0.025298
  45 C :   -0.013517
  46 C :   -0.026142
  47 C :    0.027960
  48 C :   -0.115651
  49 C :   -0.120424
  50 C :   -0.035040
  51 C :   -0.107918
  52 H :    0.043220
  53 H :    0.008226
  54 H :    0.056681
  55 H :    0.042925
  56 H :    0.041400
  57 H :    0.040671
  58 H :    0.040646
  59 H :   -0.001151
  60 H :    0.057114
  61 H :    0.062884
  62 H :    0.057386
  63 H :    0.028168
  64 H :   -0.005743
  65 H :    0.041077
  66 H :    0.029570
  67 H :    0.025852
  68 H :    0.030746
  69 H :    0.031068
  70 H :    0.003855
  71 H :    0.045202
  72 H :    0.021138
  73 H :    0.001567
  74 H :    0.036983
  75 H :    0.020124
  76 H :    0.019180
  77 H :    0.025327
  78 H :    0.025022
  79 H :    0.005672
  80 H :    0.036031
  81 H :    0.027697
  82 H :   -0.001305
  83 H :    0.044065
  84 H :    0.026342
  85 H :    0.023885
  86 H :    0.030250
  87 H :    0.029861
  88 H :   -0.005613
  89 H :    0.039990

  Mayer bond orders larger than 0.100000
B(  0-C ,  1-N ) :   1.2135 B(  0-C , 17-C ) :   1.5055 B(  0-C , 52-H ) :   0.9665
B(  1-N ,  8-C ) :   1.2107 B(  1-N , 10-C ) :   0.9230 B(  2-C , 12-C ) :   1.5835
B(  2-C , 16-C ) :   1.2696 B(  2-C , 53-H ) :   0.9794 B(  3-N , 14-C ) :   1.1738
B(  3-N , 16-C ) :   1.2022 B(  3-N , 61-H ) :   0.8950 B(  4-C ,  6-C ) :   1.3621
B(  4-C , 17-C ) :   1.3679 B(  4-C , 18-C ) :   1.0444 B(  5-N , 19-C ) :   1.3626
B(  5-N , 27-C ) :   1.4497 B(  6-C ,  8-C ) :   1.5093 B(  6-C , 54-H ) :   0.9706
B(  7-N , 30-C ) :   1.1836 B(  7-N , 38-C ) :   1.2162 B(  7-N , 62-H ) :   0.9016
B(  8-C , 55-H ) :   0.9674 B(  9-N , 41-C ) :   1.4363 B(  9-N , 49-C ) :   1.3914
B( 10-C , 56-H ) :   0.9767 B( 10-C , 57-H ) :   0.9806 B( 10-C , 58-H ) :   0.9814
B( 11-N , 20-C ) :   1.0949 B( 11-N , 24-C ) :   1.1344 B( 11-N , 25-C ) :   0.9628
B( 12-C , 14-C ) :   1.2700 B( 12-C , 59-H ) :   0.9766 B( 13-N , 31-C ) :   1.0801
B( 13-N , 35-C ) :   1.0697 B( 13-N , 36-C ) :   0.9836 B( 14-C , 18-C ) :   1.2657
B( 15-N , 42-C ) :   1.1265 B( 15-N , 46-C ) :   1.0873 B( 15-N , 47-C ) :   0.9669
B( 16-C , 51-C ) :   1.2511 B( 17-C , 60-H ) :   0.9705 B( 18-C , 19-C ) :   1.3158
B( 19-C , 21-C ) :   1.1590 B( 20-C , 28-C ) :   1.6300 B( 20-C , 63-H ) :   0.9710
B( 21-C , 26-C ) :   1.6857 B( 21-C , 64-H ) :   0.9715 B( 22-C , 23-C ) :   1.2537
B( 22-C , 28-C ) :   1.2796 B( 22-C , 29-C ) :   1.2583 B( 23-C , 24-C ) :   1.6362
B( 23-C , 65-H ) :   0.9723 B( 24-C , 66-H ) :   0.9691 B( 25-C , 67-H ) :   0.9762
B( 25-C , 68-H ) :   0.9834 B( 25-C , 69-H ) :   0.9819 B( 26-C , 27-C ) :   1.1692
B( 26-C , 70-H ) :   0.9759 B( 27-C , 29-C ) :   1.2447 B( 28-C , 71-H ) :   0.9709
B( 29-C , 30-C ) :   1.1723 B( 30-C , 32-C ) :   1.3536 B( 31-C , 39-C ) :   1.6877
B( 31-C , 72-H ) :   0.9709 B( 32-C , 37-C ) :   1.5066 B( 32-C , 73-H ) :   0.9771
B( 33-C , 34-C ) :   1.2302 B( 33-C , 39-C ) :   1.2226 B( 33-C , 40-C ) :   1.3642
B( 34-C , 35-C ) :   1.6864 B( 34-C , 74-H ) :   0.9710 B( 35-C , 75-H ) :   0.9709
B( 36-C , 76-H ) :   0.9754 B( 36-C , 77-H ) :   0.9826 B( 36-C , 78-H ) :   0.9838
B( 37-C , 38-C ) :   1.3467 B( 37-C , 79-H ) :   0.9793 B( 38-C , 40-C ) :   1.1765
B( 39-C , 80-H ) :   0.9721 B( 40-C , 41-C ) :   1.1659 B( 41-C , 43-C ) :   1.2584
B( 42-C , 50-C ) :   1.6431 B( 42-C , 81-H ) :   0.9697 B( 43-C , 48-C ) :   1.5927
B( 43-C , 82-H ) :   0.9757 B( 44-C , 45-C ) :   1.2813 B( 44-C , 50-C ) :   1.2475
B( 44-C , 51-C ) :   1.2465 B( 45-C , 46-C ) :   1.6334 B( 45-C , 83-H ) :   0.9702
B( 46-C , 84-H ) :   0.9710 B( 47-C , 85-H ) :   0.9759 B( 47-C , 86-H ) :   0.9825
B( 47-C , 87-H ) :   0.9830 B( 48-C , 49-C ) :   1.2525 B( 48-C , 88-H ) :   0.9725
B( 49-C , 51-C ) :   1.1880 B( 50-C , 89-H ) :   0.9723

MP2 TOTAL ENERGY:    -2130.868957284 Eh
FINAL SINGLE POINT ENERGY     -2130.868957284014

DIPOLE MOMENT
-------------
                                X             Y             Z
Electronic contribution:     -4.82323       5.55190      -0.06619
Nuclear contribution   :      0.05853       0.22814       0.09269
                        -----------------------------------------
Total Dipole Moment    :     -4.76470       5.78004       0.02650
                        -----------------------------------------
Magnitude (a.u.)       :      7.49079
Magnitude (Debye)      :     19.04009

Rotational constants in cm-1:     0.001498     0.001472     0.000763
Rotational constants in MHz :    44.911902    44.128823    22.867895

                             ****ORCA TERMINATED NORMALLY****
TOTAL RUN TIME: 0 days 1 hours 11 minutes 59 seconds 82 msec
