                         Program Version 5.0.4 -  RELEASE  -
|  1> ! PAL2
|  2> ! mp2 cc-pvdz TightSCF  NoKeepInts
|  3>
|  4> %scf
|  5>   MaxCore 2000
|  6> end
|  7> %mp2
|  8>   MaxCore 2000
|  9> end
| 10> * xyz 0 1
| 11>    C       -3.36200         6.28800        -0.78300
| 12>    C        1.47400         4.04100         0.05700
| 13>    C       -2.80200         4.09300         0.04900
| 14>    C       -3.85300         4.23000         0.96900
| 15>    C       -4.61900         5.37800         0.98200
| 16>    C       -5.23000         7.59000         0.13100
| 17>    C        0.13200         4.30700         0.06100
| 18>    C       -0.56900         3.05600         0.04700
| 19>    C        1.64900         2.61800         0.02300
| 20>    C       -2.57200         5.15600        -0.83800
| 21>    N       -4.36700         6.38800         0.11700
| 22>    N        0.38800         2.06700         0.02500
| 23>    N       -2.01000         0.39500        -0.07500
| 24>    N       -0.38800        -2.07400        -0.02700
| 25>    N        2.01000        -0.40100         0.06500
| 26>    C       -1.96000         2.86100         0.02400
| 27>    C       -2.62300         1.61500        -0.01800
| 28>    C       -5.57300        -4.32900         1.06600
| 29>    C       -4.07300         1.47100         0.05600
| 30>    C       -4.10600        -2.75600        -0.02600
| 31>    C       -4.99500        -2.75700        -1.11100
| 32>    C       -6.13200        -3.54200        -1.07600
| 33>    C       -7.65100        -5.11300         0.04000
| 34>    C       -4.32400         0.14100         0.03700
| 35>    C       -3.02500        -0.52000        -0.04800
| 36>    C       -4.42200        -3.56600         1.07500
| 37>    N       -6.40700        -4.31300         0.00100
| 38>    C       -2.86700        -1.92200        -0.04000
| 39>    C       -1.65000        -2.62400        -0.02700
| 40>    C        3.56800        -6.14200        -1.04000
| 41>    C       -1.47600        -4.04900        -0.03400
| 42>    C        2.80300        -4.09900        -0.00800
| 43>    C        3.65700        -4.38400         1.06900
| 44>    C        4.42700        -5.53000         1.05900
| 45>    C        5.24500        -7.58800         0.01400
| 46>    C       -0.13400        -4.31500        -0.02200
| 47>    C        0.56800        -3.06400        -0.02700
| 48>    C        2.77500        -5.01200        -1.07400
| 49>    N        4.37600        -6.39100         0.01700
| 50>    C        1.95900        -2.86900        -0.00900
| 51>    C        2.62100        -1.62200         0.00900
| 52>    C        5.54300         4.33900        -1.13000
| 53>    C        4.07000        -1.47900        -0.09400
| 54>    C        4.10400         2.75100        -0.02100
| 55>    C        5.02700         2.72900         1.03600
| 56>    C        6.16600         3.50900         0.97800
| 57>    C        7.61900         5.15300        -0.11500
| 58>    C        4.32100        -0.14800        -0.09200
| 59>    C        3.02500         0.51400         0.01500
| 60>    C        4.38700         3.58200        -1.11500
| 61>    C        2.86600         1.91600         0.01300
| 62>    N        6.41300         4.29600        -0.09500
| 63>    H       -3.21300         7.13700        -1.43800
| 64>    H        2.27400         4.76600         0.08100
| 65>    H       -4.08600         3.44000         1.67300
| 66>    H       -5.44400         5.52500         1.66600
| 67>    H       -6.10300         7.40800        -0.49900
| 68>    H       -5.54100         7.78700         1.15600
| 69>    H       -4.66000         8.43500        -0.25500
| 70>    H       -0.33200         5.28200         0.06900
| 71>    H       -1.76700         5.11700        -1.56200
| 72>    H        0.18200         1.07200         0.00500
| 73>    H       -0.18300        -1.08000        -0.02100
| 74>    H       -5.86400        -4.96200         1.89500
| 75>    H       -4.79400         2.27200         0.13900
| 76>    H       -4.80000        -2.16000        -1.99400
| 77>    H       -6.84100        -3.58200        -1.89300
| 78>    H       -8.42800        -4.53600         0.54600
| 79>    H       -7.95600        -5.33700        -0.98100
| 80>    H       -7.45600        -6.03700         0.58400
| 81>    H       -5.28700        -0.34400         0.10000
| 82>    H       -3.78000        -3.60100         1.94700
| 83>    H        3.58700        -6.86800        -1.84300
| 84>    H       -2.27600        -4.77400        -0.05000
| 85>    H        3.71400        -3.72400         1.92600
| 86>    H        5.09200        -5.79500         1.87100
| 87>    H        6.20500        -7.32900        -0.43900
| 88>    H        5.39300        -7.91700         1.04200
| 89>    H        4.75900        -8.37300        -0.56400
| 90>    H        0.32900        -5.29000        -0.00800
| 91>    H        2.14600        -4.84200        -1.94000
| 92>    H        5.80800         4.98600        -1.95600
| 93>    H        4.78800        -2.28100        -0.18500
| 94>    H        4.86000         2.11400         1.91200
| 95>    H        6.90100         3.53100         1.77200
| 96>    H        7.38300         6.10900         0.35600
| 97>    H        8.41400         4.65200         0.43500
| 98>    H        7.92100         5.31000        -1.15000
| 99>    H        5.28300         0.33600        -0.17900
|100>    H        3.72000         3.63200        -1.96700
|101> *
|102>
|103>                          ****END OF INPUT****

CARTESIAN COORDINATES (ANGSTROEM)
---------------------------------
  C     -3.362000    6.288000   -0.783000
  C      1.474000    4.041000    0.057000
  C     -2.802000    4.093000    0.049000
  C     -3.853000    4.230000    0.969000
  C     -4.619000    5.378000    0.982000
  C     -5.230000    7.590000    0.131000
  C      0.132000    4.307000    0.061000
  C     -0.569000    3.056000    0.047000
  C      1.649000    2.618000    0.023000
  C     -2.572000    5.156000   -0.838000
  N     -4.367000    6.388000    0.117000
  N      0.388000    2.067000    0.025000
  N     -2.010000    0.395000   -0.075000
  N     -0.388000   -2.074000   -0.027000
  N      2.010000   -0.401000    0.065000
  C     -1.960000    2.861000    0.024000
  C     -2.623000    1.615000   -0.018000
  C     -5.573000   -4.329000    1.066000
  C     -4.073000    1.471000    0.056000
  C     -4.106000   -2.756000   -0.026000
  C     -4.995000   -2.757000   -1.111000
  C     -6.132000   -3.542000   -1.076000
  C     -7.651000   -5.113000    0.040000
  C     -4.324000    0.141000    0.037000
  C     -3.025000   -0.520000   -0.048000
  C     -4.422000   -3.566000    1.075000
  N     -6.407000   -4.313000    0.001000
  C     -2.867000   -1.922000   -0.040000
  C     -1.650000   -2.624000   -0.027000
  C      3.568000   -6.142000   -1.040000
  C     -1.476000   -4.049000   -0.034000
  C      2.803000   -4.099000   -0.008000
  C      3.657000   -4.384000    1.069000
  C      4.427000   -5.530000    1.059000
  C      5.245000   -7.588000    0.014000
  C     -0.134000   -4.315000   -0.022000
  C      0.568000   -3.064000   -0.027000
  C      2.775000   -5.012000   -1.074000
  N      4.376000   -6.391000    0.017000
  C      1.959000   -2.869000   -0.009000
  C      2.621000   -1.622000    0.009000
  C      5.543000    4.339000   -1.130000
  C      4.070000   -1.479000   -0.094000
  C      4.104000    2.751000   -0.021000
  C      5.027000    2.729000    1.036000
  C      6.166000    3.509000    0.978000
  C      7.619000    5.153000   -0.115000
  C      4.321000   -0.148000   -0.092000
  C      3.025000    0.514000    0.015000
  C      4.387000    3.582000   -1.115000
  C      2.866000    1.916000    0.013000
  N      6.413000    4.296000   -0.095000
  H     -3.213000    7.137000   -1.438000
  H      2.274000    4.766000    0.081000
  H     -4.086000    3.440000    1.673000
  H     -5.444000    5.525000    1.666000
  H     -6.103000    7.408000   -0.499000
  H     -5.541000    7.787000    1.156000
  H     -4.660000    8.435000   -0.255000
  H     -0.332000    5.282000    0.069000
  H     -1.767000    5.117000   -1.562000
  H      0.182000    1.072000    0.005000
  H     -0.183000   -1.080000   -0.021000
  H     -5.864000   -4.962000    1.895000
  H     -4.794000    2.272000    0.139000
  H     -4.800000   -2.160000   -1.994000
  H     -6.841000   -3.582000   -1.893000
  H     -8.428000   -4.536000    0.546000
  H     -7.956000   -5.337000   -0.981000
  H     -7.456000   -6.037000    0.584000
  H     -5.287000   -0.344000    0.100000
  H     -3.780000   -3.601000    1.947000
  H      3.587000   -6.868000   -1.843000
  H     -2.276000   -4.774000   -0.050000
  H      3.714000   -3.724000    1.926000
  H      5.092000   -5.795000    1.871000
  H      6.205000   -7.329000   -0.439000
  H      5.393000   -7.917000    1.042000
  H      4.759000   -8.373000   -0.564000
  H      0.329000   -5.290000   -0.008000
  H      2.146000   -4.842000   -1.940000
  H      5.808000    4.986000   -1.956000
  H      4.788000   -2.281000   -0.185000
  H      4.860000    2.114000    1.912000
  H      6.901000    3.531000    1.772000
  H      7.383000    6.109000    0.356000
  H      8.414000    4.652000    0.435000
  H      7.921000    5.310000   -1.150000
  H      5.283000    0.336000   -0.179000
  H      3.720000    3.632000   -1.967000

 Total Charge           Charge          ....    0
 Multiplicity           Mult            ....    1
 Number of Electrons    NEL             ....  358
 Basis Dimension        Dim             ....  918

ORBITAL ENERGIES
----------------

  NO   OCC          E(Eh)            E(eV)
   0   2.0000     -15.652489      -425.9259
   1   2.0000     -15.637146      -425.5084
   2   2.0000     -15.630091      -425.3164
   3   2.0000     -15.610161      -424.7741
   4   2.0000     -15.521217      -422.3538
   5   2.0000     -15.516400      -422.2227
   6   2.0000     -15.447578      -420.3500
   7   2.0000     -15.443155      -420.2296
   8   2.0000     -11.311017      -307.7884
   9   2.0000     -11.306943      -307.6776
  10   2.0000     -11.304942      -307.6231
  11   2.0000     -11.301242      -307.5224
  12   2.0000     -11.297024      -307.4077
  13   2.0000     -11.294024      -307.3260
  14   2.0000     -11.290888      -307.2407
  15   2.0000     -11.287926      -307.1601
  16   2.0000     -11.286215      -307.1135
  17   2.0000     -11.285222      -307.0865
  18   2.0000     -11.272511      -306.7406
  19   2.0000     -11.270992      -306.6993
  20   2.0000     -11.256279      -306.2989
  21   2.0000     -11.243999      -305.9648
  22   2.0000     -11.243098      -305.9403
  23   2.0000     -11.240540      -305.8706
  24   2.0000     -11.234636      -305.7100
  25   2.0000     -11.233195      -305.6708
  26   2.0000     -11.232407      -305.6493
  27   2.0000     -11.228099      -305.5321
  28   2.0000     -11.227955      -305.5282
  29   2.0000     -11.218545      -305.2721
  30   2.0000     -11.213149      -305.1253
  31   2.0000     -11.212230      -305.1003
  32   2.0000     -11.203788      -304.8706
  33   2.0000     -11.203192      -304.8543
  34   2.0000     -11.192833      -304.5725
  35   2.0000     -11.192217      -304.5557
  36   2.0000     -11.178740      -304.1890
  37   2.0000     -11.177382      -304.1520
  38   2.0000     -11.177024      -304.1423
  39   2.0000     -11.172013      -304.0059
  40   2.0000     -11.168600      -303.9131
  41   2.0000     -11.167084      -303.8718
  42   2.0000     -11.165701      -303.8342
  43   2.0000     -11.164256      -303.7948
  44   2.0000     -11.163649      -303.7783
  45   2.0000     -11.161946      -303.7320
  46   2.0000     -11.151382      -303.4445
  47   2.0000     -11.149794      -303.4013
  48   2.0000     -11.147930      -303.3506
  49   2.0000     -11.146993      -303.3251
  50   2.0000     -11.138976      -303.1069
  51   2.0000     -11.134376      -302.9818
  52   2.0000      -1.337108       -36.3846
  53   2.0000      -1.323898       -36.0251
  54   2.0000      -1.317913       -35.8622
  55   2.0000      -1.301539       -35.4167
  56   2.0000      -1.220463       -33.2105
  57   2.0000      -1.212159       -32.9845
  58   2.0000      -1.164972       -31.7005
  59   2.0000      -1.155976       -31.4557
  60   2.0000      -1.123940       -30.5840
  61   2.0000      -1.112201       -30.2645
  62   2.0000      -1.107173       -30.1277
  63   2.0000      -1.094121       -29.7725
  64   2.0000      -1.060411       -28.8553
  65   2.0000      -1.047852       -28.5135
  66   2.0000      -1.042554       -28.3693
  67   2.0000      -1.029523       -28.0147
  68   2.0000      -1.028241       -27.9798
  69   2.0000      -1.011713       -27.5301
  70   2.0000      -1.009733       -27.4762
  71   2.0000      -0.995376       -27.0856
  72   2.0000      -0.984768       -26.7969
  73   2.0000      -0.974925       -26.5291
  74   2.0000      -0.972144       -26.4534
  75   2.0000      -0.959551       -26.1107
  76   2.0000      -0.951444       -25.8901
  77   2.0000      -0.946695       -25.7609
  78   2.0000      -0.938445       -25.5364
  79   2.0000      -0.922915       -25.1138
  80   2.0000      -0.895526       -24.3685
  81   2.0000      -0.885348       -24.0915
  82   2.0000      -0.875045       -23.8112
  83   2.0000      -0.869901       -23.6712
  84   2.0000      -0.862490       -23.4695
  85   2.0000      -0.856131       -23.2965
  86   2.0000      -0.848866       -23.0988
  87   2.0000      -0.840969       -22.8839
  88   2.0000      -0.822117       -22.3709
  89   2.0000      -0.798728       -21.7345
  90   2.0000      -0.796967       -21.6866
  91   2.0000      -0.741073       -20.1656
  92   2.0000      -0.733906       -19.9706
  93   2.0000      -0.730036       -19.8653
  94   2.0000      -0.721555       -19.6345
  95   2.0000      -0.720629       -19.6093
  96   2.0000      -0.712876       -19.3983
  97   2.0000      -0.707206       -19.2441
  98   2.0000      -0.700375       -19.0582
  99   2.0000      -0.694201       -18.8902
 100   2.0000      -0.689278       -18.7562
 101   2.0000      -0.681341       -18.5402
 102   2.0000      -0.678788       -18.4708
 103   2.0000      -0.674420       -18.3519
 104   2.0000      -0.670492       -18.2450
 105   2.0000      -0.666534       -18.1373
 106   2.0000      -0.664376       -18.0786
 107   2.0000      -0.660154       -17.9637
 108   2.0000      -0.657123       -17.8812
 109   2.0000      -0.655870       -17.8471
 110   2.0000      -0.652340       -17.7511
 111   2.0000      -0.649156       -17.6644
 112   2.0000      -0.645986       -17.5782
 113   2.0000      -0.638638       -17.3782
 114   2.0000      -0.635173       -17.2839
 115   2.0000      -0.626219       -17.0403
 116   2.0000      -0.624337       -16.9891
 117   2.0000      -0.614807       -16.7298
 118   2.0000      -0.613090       -16.6830
 119   2.0000      -0.609914       -16.5966
 120   2.0000      -0.609609       -16.5883
 121   2.0000      -0.603228       -16.4147
 122   2.0000      -0.595259       -16.1978
 123   2.0000      -0.593867       -16.1599
 124   2.0000      -0.591141       -16.0858
 125   2.0000      -0.583579       -15.8800
 126   2.0000      -0.579376       -15.7656
 127   2.0000      -0.574309       -15.6278
 128   2.0000      -0.566930       -15.4270
 129   2.0000      -0.559592       -15.2273
 130   2.0000      -0.553826       -15.0704
 131   2.0000      -0.548213       -14.9176
 132   2.0000      -0.540888       -14.7183
 133   2.0000      -0.536506       -14.5991
 134   2.0000      -0.534675       -14.5493
 135   2.0000      -0.529147       -14.3988
 136   2.0000      -0.526386       -14.3237
 137   2.0000      -0.523048       -14.2328
 138   2.0000      -0.520221       -14.1559
 139   2.0000      -0.516166       -14.0456
 140   2.0000      -0.510872       -13.9015
 141   2.0000      -0.506982       -13.7957
 142   2.0000      -0.506112       -13.7720
 143   2.0000      -0.501201       -13.6384
 144   2.0000      -0.500841       -13.6286
 145   2.0000      -0.498334       -13.5603
 146   2.0000      -0.494806       -13.4644
 147   2.0000      -0.490960       -13.3597
 148   2.0000      -0.489484       -13.3195
 149   2.0000      -0.469465       -12.7748
 150   2.0000      -0.461909       -12.5692
 151   2.0000      -0.453749       -12.3471
 152   2.0000      -0.447885       -12.1876
 153   2.0000      -0.446964       -12.1625
 154   2.0000      -0.446418       -12.1477
 155   2.0000      -0.439911       -11.9706
 156   2.0000      -0.434909       -11.8345
 157   2.0000      -0.430006       -11.7011
 158   2.0000      -0.395082       -10.7507
 159   2.0000      -0.385747       -10.4967
 160   2.0000      -0.378069       -10.2878
 161   2.0000      -0.371522       -10.1096
 162   2.0000      -0.369234       -10.0474
 163   2.0000      -0.358516        -9.7557
 164   2.0000      -0.354181        -9.6378
 165   2.0000      -0.340378        -9.2621
 166   2.0000      -0.337163        -9.1747
 167   2.0000      -0.334970        -9.1150
 168   2.0000      -0.328630        -8.9425
 169   2.0000      -0.300284        -8.1711
 170   2.0000      -0.298262        -8.1161
 171   2.0000      -0.288269        -7.8442
 172   2.0000      -0.286559        -7.7977
 173   2.0000      -0.257640        -7.0107
 174   2.0000      -0.247337        -6.7304
 175   2.0000      -0.188839        -5.1386
 176   2.0000      -0.178892        -4.8679
 177   2.0000      -0.069132        -1.8812
 178   2.0000      -0.055647        -1.5142
 179   0.0000       0.030029         0.8171
 180   0.0000       0.069802         1.8994
 181   0.0000       0.092615         2.5202
 182   0.0000       0.100529         2.7355
 183   0.0000       0.124765         3.3950

MULLIKEN ATOMIC CHARGES
-----------------------
   0 C :    0.206519
   1 N :   -0.448773
   2 C :   -0.062884
   3 N :   -0.336277
   4 C :   -0.054619
   5 N :   -0.562916
   6 C :   -0.086978
   7 N :   -0.338732
   8 C :    0.205720
   9 N :   -0.562867
  10 C :    0.117154
  11 N :   -0.437729
  12 C :   -0.078217
  13 N :   -0.435863
  14 C :    0.244662
  15 N :   -0.440815
  16 C :    0.229926
  17 C :   -0.091852
  18 C :   -0.215473
  19 C :    0.239664
  20 C :    0.210355
  21 C :   -0.091978
  22 C :   -0.088847
  23 C :   -0.044838
  24 C :    0.200660
  25 C :    0.114125
  26 C :   -0.072540
  27 C :    0.217600
  28 C :   -0.056336
  29 C :   -0.182768
  30 C :    0.239786
  31 C :    0.218362
  32 C :   -0.064118
  33 C :   -0.073234
  34 C :   -0.050580
  35 C :    0.213670
  36 C :    0.111830
  37 C :   -0.065911
  38 C :    0.234578
  39 C :   -0.059802
  40 C :   -0.186257
  41 C :    0.223255
  42 C :    0.200846
  43 C :   -0.072909
  44 C :   -0.089209
  45 C :   -0.056047
  46 C :    0.206774
  47 C :    0.115484
  48 C :   -0.071281
  49 C :    0.231313
  50 C :   -0.050294
  51 C :   -0.189519
  52 H :    0.047441
  53 H :   -0.014932
  54 H :    0.050903
  55 H :    0.046546
  56 H :    0.054455
  57 H :    0.052705
  58 H :    0.051703
  59 H :   -0.005799
  60 H :    0.045852
  61 H :    0.172150
  62 H :    0.173833
  63 H :    0.056123
  64 H :   -0.013068
  65 H :    0.047452
  66 H :    0.057035
  67 H :    0.062611
  68 H :    0.057917
  69 H :    0.057883
  70 H :   -0.026270
  71 H :    0.046543
  72 H :    0.062242
  73 H :   -0.011738
  74 H :    0.052013
  75 H :    0.061425
  76 H :    0.066983
  77 H :    0.061963
  78 H :    0.061225
  79 H :   -0.014969
  80 H :    0.052639
  81 H :    0.053709
  82 H :   -0.023840
  83 H :    0.042802
  84 H :    0.053736
  85 H :    0.059883
  86 H :    0.056070
  87 H :    0.056832
  88 H :   -0.018679
  89 H :    0.044803
Sum of atomic charges:   -0.0000000

LOEWDIN ATOMIC CHARGES
----------------------
   0 C :   -0.012752
   1 N :    0.126179
   2 C :   -0.100512
   3 N :    0.181071
   4 C :    0.016158
   5 N :   -0.135745
   6 C :   -0.029129
   7 N :    0.177035
   8 C :   -0.013707
   9 N :   -0.139748
  10 C :    0.026620
  11 N :    0.143717
  12 C :   -0.105338
  13 N :    0.151209
  14 C :   -0.038057
  15 N :    0.138708
  16 C :   -0.052466
  17 C :   -0.033315
  18 C :   -0.105136
  19 C :   -0.085015
  20 C :    0.002346
  21 C :   -0.110633
  22 C :    0.040153
  23 C :   -0.017586
  24 C :   -0.005890
  25 C :    0.030207
  26 C :   -0.104018
  27 C :   -0.104096
  28 C :   -0.023819
  29 C :   -0.104492
  30 C :   -0.039220
  31 C :    0.010314
  32 C :   -0.097746
  33 C :    0.056499
  34 C :   -0.017990
  35 C :    0.006388
  36 C :    0.031847
  37 C :   -0.098569
  38 C :   -0.046033
  39 C :   -0.022122
  40 C :   -0.108623
  41 C :   -0.092255
  42 C :   -0.007630
  43 C :   -0.102233
  44 C :    0.033694
  45 C :   -0.024591
  46 C :   -0.002282
  47 C :    0.029390
  48 C :   -0.100186
  49 C :   -0.081456
  50 C :   -0.021601
  51 C :   -0.108204
  52 H :    0.026618
  53 H :    0.003886
  54 H :    0.043128
  55 H :    0.026577
  56 H :    0.024149
  57 H :    0.028589
  58 H :    0.029090
  59 H :    0.006340
  60 H :    0.040941
  61 H :    0.060359
  62 H :    0.061016
  63 H :    0.030950
  64 H :    0.001320
  65 H :    0.045745
  66 H :    0.030098
  67 H :    0.028379
  68 H :    0.031934
  69 H :    0.030952
  70 H :   -0.002877
  71 H :    0.044502
  72 H :    0.033457
  73 H :    0.005314
  74 H :    0.047151
  75 H :    0.032889
  76 H :    0.030686
  77 H :    0.033344
  78 H :    0.033024
  79 H :    0.003781
  80 H :    0.046943
  81 H :    0.028926
  82 H :   -0.002126
  83 H :    0.043187
  84 H :    0.029510
  85 H :    0.026928
  86 H :    0.030381
  87 H :    0.031221
  88 H :    0.000385
  89 H :    0.043964

  Mayer bond orders larger than 0.100000
B(  0-C ,  1-N ) :   1.1030 B(  0-C , 17-C ) :   1.6667 B(  0-C , 52-H ) :   0.9692
B(  1-N ,  8-C ) :   1.0987 B(  1-N , 10-C ) :   0.9697 B(  2-C , 12-C ) :   1.5251
B(  2-C , 16-C ) :   1.3377 B(  2-C , 53-H ) :   0.9770 B(  3-N , 14-C ) :   1.2108
B(  3-N , 16-C ) :   1.1938 B(  3-N , 61-H ) :   0.8987 B(  4-C ,  6-C ) :   1.2360
B(  4-C , 17-C ) :   1.2392 B(  4-C , 18-C ) :   1.3487 B(  5-N , 19-C ) :   1.4353
B(  5-N , 27-C ) :   1.3924 B(  6-C ,  8-C ) :   1.6709 B(  6-C , 54-H ) :   0.9680
B(  7-N , 30-C ) :   1.1950 B(  7-N , 38-C ) :   1.1971 B(  7-N , 62-H ) :   0.8977
B(  8-C , 55-H ) :   0.9693 B(  9-N , 41-C ) :   1.4026 B(  9-N , 49-C ) :   1.4193
B( 10-C , 56-H ) :   0.9766 B( 10-C , 57-H ) :   0.9820 B( 10-C , 58-H ) :   0.9840
B( 11-N , 20-C ) :   1.1277 B( 11-N , 24-C ) :   1.1162 B( 11-N , 25-C ) :   0.9589
B( 12-C , 14-C ) :   1.3391 B( 12-C , 59-H ) :   0.9751 B( 13-N , 31-C ) :   1.1381
B( 13-N , 35-C ) :   1.1333 B( 13-N , 36-C ) :   0.9526 B( 14-C , 18-C ) :   1.1656
B( 15-N , 42-C ) :   1.1124 B( 15-N , 46-C ) :   1.1183 B( 15-N , 47-C ) :   0.9618
B( 16-C , 51-C ) :   1.1868 B( 17-C , 60-H ) :   0.9692 B( 18-C , 19-C ) :   1.1776
B( 19-C , 21-C ) :   1.2238 B( 20-C , 28-C ) :   1.6251 B( 20-C , 63-H ) :   0.9703
B( 21-C , 26-C ) :   1.6322 B( 21-C , 64-H ) :   0.9701 B( 22-C , 23-C ) :   1.2868
B( 22-C , 28-C ) :   1.2703 B( 22-C , 29-C ) :   1.2252 B( 23-C , 24-C ) :   1.6184
B( 23-C , 65-H ) :   0.9707 B( 24-C , 66-H ) :   0.9693 B( 25-C , 67-H ) :   0.9761
B( 25-C , 68-H ) :   0.9829 B( 25-C , 69-H ) :   0.9822 B( 26-C , 27-C ) :   1.2216
B( 26-C , 70-H ) :   0.9725 B( 27-C , 29-C ) :   1.2260 B( 28-C , 71-H ) :   0.9716
B( 29-C , 30-C ) :   1.2218 B( 30-C , 32-C ) :   1.3014 B( 31-C , 39-C ) :   1.6142
B( 31-C , 72-H ) :   0.9691 B( 32-C , 37-C ) :   1.5570 B( 32-C , 73-H ) :   0.9781
B( 33-C , 34-C ) :   1.2876 B( 33-C , 39-C ) :   1.2819 B( 33-C , 40-C ) :   1.2206
B( 34-C , 35-C ) :   1.6112 B( 34-C , 74-H ) :   0.9702 B( 35-C , 75-H ) :   0.9691
B( 36-C , 76-H ) :   0.9765 B( 36-C , 77-H ) :   0.9819 B( 36-C , 78-H ) :   0.9828
B( 37-C , 38-C ) :   1.3041 B( 37-C , 79-H ) :   0.9773 B( 38-C , 40-C ) :   1.2164
B( 39-C , 80-H ) :   0.9711 B( 40-C , 41-C ) :   1.2321 B( 41-C , 43-C ) :   1.2015
B( 42-C , 50-C ) :   1.6331 B( 42-C , 81-H ) :   0.9696 B( 43-C , 48-C ) :   1.6505
B( 43-C , 82-H ) :   0.9731 B( 44-C , 45-C ) :   1.2680 B( 44-C , 50-C ) :   1.2693
B( 44-C , 51-C ) :   1.2568 B( 45-C , 46-C ) :   1.6334 B( 45-C , 83-H ) :   0.9714
B( 46-C , 84-H ) :   0.9701 B( 47-C , 85-H ) :   0.9761 B( 47-C , 86-H ) :   0.9828
B( 47-C , 87-H ) :   0.9825 B( 48-C , 49-C ) :   1.2029 B( 48-C , 88-H ) :   0.9743
B( 49-C , 51-C ) :   1.2295 B( 50-C , 89-H ) :   0.9712

MP2 TOTAL ENERGY:    -2130.912527038 Eh
FINAL SINGLE POINT ENERGY     -2130.912527038458

DIPOLE MOMENT
-------------
                                X             Y             Z
Electronic contribution:      1.02185      -2.13640      -0.13186
Nuclear contribution   :     -0.04942       0.15216       0.16255
                        -----------------------------------------
Total Dipole Moment    :      0.97243      -1.98424       0.03069
                        -----------------------------------------
Magnitude (a.u.)       :      2.20993
Magnitude (Debye)      :      5.61719

Rotational constants in cm-1:     0.001500     0.001475     0.000762
Rotational constants in MHz :    44.970343    44.215430    22.830116

                             ****ORCA TERMINATED NORMALLY****
TOTAL RUN TIME: 0 days 1 hours 31 minutes 54 seconds 440 msec
