                         Program Version 5.0.4 -  RELEASE  -
|  1> ! PAL2
|  2> ! mp2 cc-pvdz TightSCF  NoKeepInts
|  3>
|  4> %scf
|  5>   MaxCore 2000
|  6> end
|  7> %mp2
|  8>   MaxCore 2000
|  9> end
| 10> * xyz 0 1
| 11>    C       -4.16100         5.74800        -1.06400
| 12>    C        1.47400         4.04100         0.05700
| 13>    C       -2.80200         4.09300         0.04900
| 14>    C       -3.02300         4.79100         1.24600
| 15>    C       -3.80100         5.93200         1.25000
| 16>    C       -5.21300         7.60100         0.15100
| 17>    C        0.13200         4.30700         0.06100
| 18>    C       -0.56900         3.05600         0.04700
| 19>    C        1.64900         2.61800         0.02300
| 20>    C       -3.39600         4.59900        -1.11800
| 21>    N       -4.35400         6.39700         0.10600
| 22>    N        0.38800         2.06700         0.02500
| 23>    N       -2.01000         0.39500        -0.07500
| 24>    N       -0.38800        -2.07400        -0.02700
| 25>    N        2.01000        -0.40100         0.06500
| 26>    C       -1.96000         2.86100         0.02400
| 27>    C       -2.62300         1.61500        -0.01800
| 28>    C       -5.57300        -4.32900         1.06600
| 29>    C       -4.07300         1.47100         0.05600
| 30>    C       -4.10600        -2.75600        -0.02600
| 31>    C       -4.99500        -2.75700        -1.11100
| 32>    C       -6.13200        -3.54200        -1.07600
| 33>    C       -7.65100        -5.11300         0.04000
| 34>    C       -4.32400         0.14100         0.03700
| 35>    C       -3.02500        -0.52000        -0.04800
| 36>    C       -4.42200        -3.56600         1.07500
| 37>    N       -6.40700        -4.31300         0.00100
| 38>    C       -2.86700        -1.92200        -0.04000
| 39>    C       -1.65000        -2.62400        -0.02700
| 40>    C        3.56800        -6.14200        -1.04000
| 41>    C       -1.47600        -4.04900        -0.03400
| 42>    C        2.80300        -4.09900        -0.00800
| 43>    C        3.65700        -4.38400         1.06900
| 44>    C        4.42700        -5.53000         1.05900
| 45>    C        5.24500        -7.58800         0.01400
| 46>    C       -0.13400        -4.31500        -0.02200
| 47>    C        0.56800        -3.06400        -0.02700
| 48>    C        2.77500        -5.01200        -1.07400
| 49>    N        4.37600        -6.39100         0.01700
| 50>    C        1.95900        -2.86900        -0.00900
| 51>    C        2.62100        -1.62200         0.00900
| 52>    C        5.54300         4.33900        -1.13000
| 53>    C        4.07000        -1.47900        -0.09400
| 54>    C        4.10400         2.75100        -0.02100
| 55>    C        5.02700         2.72900         1.03600
| 56>    C        6.16600         3.50900         0.97800
| 57>    C        7.61900         5.15300        -0.11500
| 58>    C        4.32100        -0.14800        -0.09200
| 59>    C        3.02500         0.51400         0.01500
| 60>    C        4.38700         3.58200        -1.11500
| 61>    C        2.86600         1.91600         0.01300
| 62>    N        6.41300         4.29600        -0.09500
| 63>    H       -4.62800         6.18000        -1.94000
| 64>    H        2.27400         4.76600         0.08100
| 65>    H       -2.60000         4.44500         2.18100
| 66>    H       -4.00600         6.49800         2.14900
| 67>    H       -6.23400         7.30100         0.39900
| 68>    H       -4.82700         8.28000         0.91000
| 69>    H       -5.19200         8.08300        -0.82700
| 70>    H       -0.33200         5.28200         0.06900
| 71>    H       -3.25100         4.11300        -2.07600
| 72>    H        0.18200         1.07200         0.00500
| 73>    H       -0.18300        -1.08000        -0.02100
| 74>    H       -5.86400        -4.96200         1.89500
| 75>    H       -4.79400         2.27200         0.13900
| 76>    H       -4.80000        -2.16000        -1.99400
| 77>    H       -6.84100        -3.58200        -1.89300
| 78>    H       -8.42800        -4.53600         0.54600
| 79>    H       -7.95600        -5.33700        -0.98100
| 80>    H       -7.45600        -6.03700         0.58400
| 81>    H       -5.28700        -0.34400         0.10000
| 82>    H       -3.78000        -3.60100         1.94700
| 83>    H        3.58700        -6.86800        -1.84300
| 84>    H       -2.27600        -4.77400        -0.05000
| 85>    H        3.71400        -3.72400         1.92600
| 86>    H        5.09200        -5.79500         1.87100
| 87>    H        6.20500        -7.32900        -0.43900
| 88>    H        5.39300        -7.91700         1.04200
| 89>    H        4.75900        -8.37300        -0.56400
| 90>    H        0.32900        -5.29000        -0.00800
| 91>    H        2.14600        -4.84200        -1.94000
| 92>    H        5.80800         4.98600        -1.95600
| 93>    H        4.78800        -2.28100        -0.18500
| 94>    H        4.86000         2.11400         1.91200
| 95>    H        6.90100         3.53100         1.77200
| 96>    H        7.38300         6.10900         0.35600
| 97>    H        8.41400         4.65200         0.43500
| 98>    H        7.92100         5.31000        -1.15000
| 99>    H        5.28300         0.33600        -0.17900
|100>    H        3.72000         3.63200        -1.96700
|101> *
|102>
|103>                          ****END OF INPUT****

CARTESIAN COORDINATES (ANGSTROEM)
---------------------------------
  C     -4.161000    5.748000   -1.064000
  C      1.474000    4.041000    0.057000
  C     -2.802000    4.093000    0.049000
  C     -3.023000    4.791000    1.246000
  C     -3.801000    5.932000    1.250000
  C     -5.213000    7.601000    0.151000
  C      0.132000    4.307000    0.061000
  C     -0.569000    3.056000    0.047000
  C      1.649000    2.618000    0.023000
  C     -3.396000    4.599000   -1.118000
  N     -4.354000    6.397000    0.106000
  N      0.388000    2.067000    0.025000
  N     -2.010000    0.395000   -0.075000
  N     -0.388000   -2.074000   -0.027000
  N      2.010000   -0.401000    0.065000
  C     -1.960000    2.861000    0.024000
  C     -2.623000    1.615000   -0.018000
  C     -5.573000   -4.329000    1.066000
  C     -4.073000    1.471000    0.056000
  C     -4.106000   -2.756000   -0.026000
  C     -4.995000   -2.757000   -1.111000
  C     -6.132000   -3.542000   -1.076000
  C     -7.651000   -5.113000    0.040000
  C     -4.324000    0.141000    0.037000
  C     -3.025000   -0.520000   -0.048000
  C     -4.422000   -3.566000    1.075000
  N     -6.407000   -4.313000    0.001000
  C     -2.867000   -1.922000   -0.040000
  C     -1.650000   -2.624000   -0.027000
  C      3.568000   -6.142000   -1.040000
  C     -1.476000   -4.049000   -0.034000
  C      2.803000   -4.099000   -0.008000
  C      3.657000   -4.384000    1.069000
  C      4.427000   -5.530000    1.059000
  C      5.245000   -7.588000    0.014000
  C     -0.134000   -4.315000   -0.022000
  C      0.568000   -3.064000   -0.027000
  C      2.775000   -5.012000   -1.074000
  N      4.376000   -6.391000    0.017000
  C      1.959000   -2.869000   -0.009000
  C      2.621000   -1.622000    0.009000
  C      5.543000    4.339000   -1.130000
  C      4.070000   -1.479000   -0.094000
  C      4.104000    2.751000   -0.021000
  C      5.027000    2.729000    1.036000
  C      6.166000    3.509000    0.978000
  C      7.619000    5.153000   -0.115000
  C      4.321000   -0.148000   -0.092000
  C      3.025000    0.514000    0.015000
  C      4.387000    3.582000   -1.115000
  C      2.866000    1.916000    0.013000
  N      6.413000    4.296000   -0.095000
  H     -4.628000    6.180000   -1.940000
  H      2.274000    4.766000    0.081000
  H     -2.600000    4.445000    2.181000
  H     -4.006000    6.498000    2.149000
  H     -6.234000    7.301000    0.399000
  H     -4.827000    8.280000    0.910000
  H     -5.192000    8.083000   -0.827000
  H     -0.332000    5.282000    0.069000
  H     -3.251000    4.113000   -2.076000
  H      0.182000    1.072000    0.005000
  H     -0.183000   -1.080000   -0.021000
  H     -5.864000   -4.962000    1.895000
  H     -4.794000    2.272000    0.139000
  H     -4.800000   -2.160000   -1.994000
  H     -6.841000   -3.582000   -1.893000
  H     -8.428000   -4.536000    0.546000
  H     -7.956000   -5.337000   -0.981000
  H     -7.456000   -6.037000    0.584000
  H     -5.287000   -0.344000    0.100000
  H     -3.780000   -3.601000    1.947000
  H      3.587000   -6.868000   -1.843000
  H     -2.276000   -4.774000   -0.050000
  H      3.714000   -3.724000    1.926000
  H      5.092000   -5.795000    1.871000
  H      6.205000   -7.329000   -0.439000
  H      5.393000   -7.917000    1.042000
  H      4.759000   -8.373000   -0.564000
  H      0.329000   -5.290000   -0.008000
  H      2.146000   -4.842000   -1.940000
  H      5.808000    4.986000   -1.956000
  H      4.788000   -2.281000   -0.185000
  H      4.860000    2.114000    1.912000
  H      6.901000    3.531000    1.772000
  H      7.383000    6.109000    0.356000
  H      8.414000    4.652000    0.435000
  H      7.921000    5.310000   -1.150000
  H      5.283000    0.336000   -0.179000
  H      3.720000    3.632000   -1.967000

 Total Charge           Charge          ....    0
 Multiplicity           Mult            ....    1
 Number of Electrons    NEL             ....  358
 Basis Dimension        Dim             ....  918

ORBITAL ENERGIES
----------------

  NO   OCC          E(Eh)            E(eV)
   0   2.0000     -15.694767      -427.0763
   1   2.0000     -15.634005      -425.4229
   2   2.0000     -15.621304      -425.0773
   3   2.0000     -15.590132      -424.2291
   4   2.0000     -15.518686      -422.2849
   5   2.0000     -15.507698      -421.9859
   6   2.0000     -15.449606      -420.4051
   7   2.0000     -15.430260      -419.8787
   8   2.0000     -11.338700      -308.5417
   9   2.0000     -11.337279      -308.5030
  10   2.0000     -11.335698      -308.4600
  11   2.0000     -11.299603      -307.4778
  12   2.0000     -11.294009      -307.3256
  13   2.0000     -11.291312      -307.2522
  14   2.0000     -11.291229      -307.2500
  15   2.0000     -11.286175      -307.1124
  16   2.0000     -11.282569      -307.0143
  17   2.0000     -11.275004      -306.8084
  18   2.0000     -11.271783      -306.7208
  19   2.0000     -11.271156      -306.7038
  20   2.0000     -11.271086      -306.7018
  21   2.0000     -11.254701      -306.2560
  22   2.0000     -11.250991      -306.1550
  23   2.0000     -11.237501      -305.7880
  24   2.0000     -11.230586      -305.5998
  25   2.0000     -11.229722      -305.5763
  26   2.0000     -11.225532      -305.4622
  27   2.0000     -11.220714      -305.3311
  28   2.0000     -11.220501      -305.3254
  29   2.0000     -11.205732      -304.9235
  30   2.0000     -11.205183      -304.9085
  31   2.0000     -11.198453      -304.7254
  32   2.0000     -11.197669      -304.7041
  33   2.0000     -11.196027      -304.6594
  34   2.0000     -11.188860      -304.4644
  35   2.0000     -11.187943      -304.4394
  36   2.0000     -11.187133      -304.4174
  37   2.0000     -11.184952      -304.3580
  38   2.0000     -11.184762      -304.3529
  39   2.0000     -11.170953      -303.9771
  40   2.0000     -11.167351      -303.8791
  41   2.0000     -11.163033      -303.7616
  42   2.0000     -11.161152      -303.7104
  43   2.0000     -11.161127      -303.7097
  44   2.0000     -11.157108      -303.6004
  45   2.0000     -11.150034      -303.4079
  46   2.0000     -11.149377      -303.3900
  47   2.0000     -11.145760      -303.2915
  48   2.0000     -11.144959      -303.2698
  49   2.0000     -11.137641      -303.0706
  50   2.0000     -11.121533      -302.6323
  51   2.0000     -11.117494      -302.5224
  52   2.0000      -1.371629       -37.3239
  53   2.0000      -1.321347       -35.9557
  54   2.0000      -1.309929       -35.6450
  55   2.0000      -1.283532       -34.9267
  56   2.0000      -1.220764       -33.2187
  57   2.0000      -1.204245       -32.7692
  58   2.0000      -1.172402       -31.9027
  59   2.0000      -1.150386       -31.3036
  60   2.0000      -1.141224       -31.0543
  61   2.0000      -1.109815       -30.1996
  62   2.0000      -1.099405       -29.9163
  63   2.0000      -1.091306       -29.6960
  64   2.0000      -1.076221       -29.2855
  65   2.0000      -1.045449       -28.4481
  66   2.0000      -1.044517       -28.4227
  67   2.0000      -1.034693       -28.1554
  68   2.0000      -1.014075       -27.5944
  69   2.0000      -1.010139       -27.4873
  70   2.0000      -1.004761       -27.3409
  71   2.0000      -0.989399       -26.9229
  72   2.0000      -0.984285       -26.7838
  73   2.0000      -0.979303       -26.6482
  74   2.0000      -0.966787       -26.3076
  75   2.0000      -0.960596       -26.1391
  76   2.0000      -0.951833       -25.9007
  77   2.0000      -0.943023       -25.6610
  78   2.0000      -0.923729       -25.1360
  79   2.0000      -0.917679       -24.9713
  80   2.0000      -0.916387       -24.9362
  81   2.0000      -0.888899       -24.1882
  82   2.0000      -0.878449       -23.9038
  83   2.0000      -0.871588       -23.7171
  84   2.0000      -0.862007       -23.4564
  85   2.0000      -0.850081       -23.1319
  86   2.0000      -0.837508       -22.7898
  87   2.0000      -0.829357       -22.5680
  88   2.0000      -0.822027       -22.3685
  89   2.0000      -0.795509       -21.6469
  90   2.0000      -0.789656       -21.4876
  91   2.0000      -0.759277       -20.6610
  92   2.0000      -0.733684       -19.9646
  93   2.0000      -0.727420       -19.7941
  94   2.0000      -0.722789       -19.6681
  95   2.0000      -0.721289       -19.6273
  96   2.0000      -0.716410       -19.4945
  97   2.0000      -0.707668       -19.2566
  98   2.0000      -0.700481       -19.0610
  99   2.0000      -0.696309       -18.9475
 100   2.0000      -0.692567       -18.8457
 101   2.0000      -0.691958       -18.8291
 102   2.0000      -0.683510       -18.5993
 103   2.0000      -0.676273       -18.4023
 104   2.0000      -0.672012       -18.2864
 105   2.0000      -0.669798       -18.2261
 106   2.0000      -0.665033       -18.0965
 107   2.0000      -0.654759       -17.8169
 108   2.0000      -0.654522       -17.8104
 109   2.0000      -0.652046       -17.7431
 110   2.0000      -0.649349       -17.6697
 111   2.0000      -0.644195       -17.5294
 112   2.0000      -0.642636       -17.4870
 113   2.0000      -0.638375       -17.3711
 114   2.0000      -0.632978       -17.2242
 115   2.0000      -0.624322       -16.9887
 116   2.0000      -0.623166       -16.9572
 117   2.0000      -0.619645       -16.8614
 118   2.0000      -0.614582       -16.7236
 119   2.0000      -0.612455       -16.6657
 120   2.0000      -0.609396       -16.5825
 121   2.0000      -0.602692       -16.4001
 122   2.0000      -0.592163       -16.1136
 123   2.0000      -0.586669       -15.9641
 124   2.0000      -0.581300       -15.8180
 125   2.0000      -0.579887       -15.7795
 126   2.0000      -0.577788       -15.7224
 127   2.0000      -0.576098       -15.6764
 128   2.0000      -0.572488       -15.5782
 129   2.0000      -0.557943       -15.1824
 130   2.0000      -0.554604       -15.0915
 131   2.0000      -0.551649       -15.0111
 132   2.0000      -0.543945       -14.8015
 133   2.0000      -0.538876       -14.6636
 134   2.0000      -0.534806       -14.5528
 135   2.0000      -0.530502       -14.4357
 136   2.0000      -0.519035       -14.1237
 137   2.0000      -0.516618       -14.0579
 138   2.0000      -0.514580       -14.0024
 139   2.0000      -0.513213       -13.9652
 140   2.0000      -0.509793       -13.8722
 141   2.0000      -0.505529       -13.7561
 142   2.0000      -0.501589       -13.6489
 143   2.0000      -0.500545       -13.6205
 144   2.0000      -0.495304       -13.4779
 145   2.0000      -0.493816       -13.4374
 146   2.0000      -0.492361       -13.3978
 147   2.0000      -0.479017       -13.0347
 148   2.0000      -0.478148       -13.0111
 149   2.0000      -0.464240       -12.6326
 150   2.0000      -0.462801       -12.5935
 151   2.0000      -0.458375       -12.4730
 152   2.0000      -0.450957       -12.2712
 153   2.0000      -0.442016       -12.0279
 154   2.0000      -0.436477       -11.8771
 155   2.0000      -0.434786       -11.8311
 156   2.0000      -0.423290       -11.5183
 157   2.0000      -0.416445       -11.3320
 158   2.0000      -0.407107       -11.0779
 159   2.0000      -0.394975       -10.7478
 160   2.0000      -0.383450       -10.4342
 161   2.0000      -0.371015       -10.0958
 162   2.0000      -0.356760        -9.7079
 163   2.0000      -0.356208        -9.6929
 164   2.0000      -0.347414        -9.4536
 165   2.0000      -0.339549        -9.2396
 166   2.0000      -0.338654        -9.2152
 167   2.0000      -0.326326        -8.8798
 168   2.0000      -0.315677        -8.5900
 169   2.0000      -0.300434        -8.1752
 170   2.0000      -0.298770        -8.1299
 171   2.0000      -0.284037        -7.7290
 172   2.0000      -0.279856        -7.6153
 173   2.0000      -0.263825        -7.1790
 174   2.0000      -0.233465        -6.3529
 175   2.0000      -0.184285        -5.0146
 176   2.0000      -0.174187        -4.7399
 177   2.0000      -0.062247        -1.6938
 178   2.0000      -0.051359        -1.3976
 179   0.0000       0.034437         0.9371
 180   0.0000       0.059847         1.6285
 181   0.0000       0.087459         2.3799
 182   0.0000       0.097648         2.6571
 183   0.0000       0.103570         2.8183

MULLIKEN ATOMIC CHARGES
-----------------------
   0 C :    0.229499
   1 N :   -0.419244
   2 C :   -0.067459
   3 N :   -0.342818
   4 C :   -0.078550
   5 N :   -0.564747
   6 C :   -0.027397
   7 N :   -0.337129
   8 C :    0.225309
   9 N :   -0.565578
  10 C :    0.105768
  11 N :   -0.438831
  12 C :   -0.059081
  13 N :   -0.449178
  14 C :    0.221226
  15 N :   -0.441440
  16 C :    0.253261
  17 C :   -0.034625
  18 C :   -0.176469
  19 C :    0.226970
  20 C :    0.192621
  21 C :   -0.066357
  22 C :   -0.088786
  23 C :   -0.064206
  24 C :    0.216833
  25 C :    0.114418
  26 C :   -0.068247
  27 C :    0.243135
  28 C :   -0.041475
  29 C :   -0.194235
  30 C :    0.223037
  31 C :    0.191954
  32 C :   -0.064590
  33 C :   -0.099348
  34 C :   -0.049896
  35 C :    0.182080
  36 C :    0.119910
  37 C :   -0.069800
  38 C :    0.243907
  39 C :   -0.065152
  40 C :   -0.201467
  41 C :    0.216117
  42 C :    0.210620
  43 C :   -0.076827
  44 C :   -0.091027
  45 C :   -0.040800
  46 C :    0.187785
  47 C :    0.116526
  48 C :   -0.081676
  49 C :    0.210722
  50 C :   -0.064597
  51 C :   -0.190053
  52 H :    0.076070
  53 H :   -0.008712
  54 H :    0.062595
  55 H :    0.074968
  56 H :    0.079583
  57 H :    0.072110
  58 H :    0.070775
  59 H :   -0.026403
  60 H :    0.061292
  61 H :    0.176168
  62 H :    0.168870
  63 H :    0.054167
  64 H :   -0.032583
  65 H :    0.042260
  66 H :    0.056074
  67 H :    0.059699
  68 H :    0.056753
  69 H :    0.059425
  70 H :   -0.015923
  71 H :    0.047663
  72 H :    0.040534
  73 H :   -0.018671
  74 H :    0.032228
  75 H :    0.039225
  76 H :    0.048742
  77 H :    0.047985
  78 H :    0.047166
  79 H :   -0.011755
  80 H :    0.031965
  81 H :    0.050946
  82 H :   -0.023429
  83 H :    0.042741
  84 H :    0.049922
  85 H :    0.055067
  86 H :    0.056345
  87 H :    0.054868
  88 H :   -0.029578
  89 H :    0.040242
Sum of atomic charges:   -0.0000000

LOEWDIN ATOMIC CHARGES
----------------------
   0 C :    0.030357
   1 N :    0.180518
   2 C :   -0.100068
   3 N :    0.172158
   4 C :    0.098354
   5 N :   -0.145743
   6 C :   -0.009732
   7 N :    0.177419
   8 C :    0.027809
   9 N :   -0.138452
  10 C :    0.037652
  11 N :    0.141492
  12 C :   -0.096875
  13 N :    0.118039
  14 C :   -0.060205
  15 N :    0.135412
  16 C :   -0.021665
  17 C :   -0.013274
  18 C :   -0.117717
  19 C :   -0.089438
  20 C :   -0.013897
  21 C :   -0.099469
  22 C :    0.037477
  23 C :   -0.031403
  24 C :    0.007644
  25 C :    0.029742
  26 C :   -0.095131
  27 C :   -0.062119
  28 C :   -0.015350
  29 C :   -0.115649
  30 C :   -0.062681
  31 C :   -0.021704
  32 C :   -0.100031
  33 C :    0.001217
  34 C :   -0.025324
  35 C :   -0.030470
  36 C :    0.024167
  37 C :   -0.108348
  38 C :   -0.030189
  39 C :   -0.033255
  40 C :   -0.112544
  41 C :   -0.094941
  42 C :   -0.000242
  43 C :   -0.112879
  44 C :    0.029097
  45 C :   -0.015670
  46 C :   -0.020115
  47 C :    0.028377
  48 C :   -0.114278
  49 C :   -0.112858
  50 C :   -0.031503
  51 C :   -0.109259
  52 H :    0.039296
  53 H :    0.006877
  54 H :    0.053565
  55 H :    0.039219
  56 H :    0.037241
  57 H :    0.037594
  58 H :    0.038020
  59 H :    0.000263
  60 H :    0.052900
  61 H :    0.062145
  62 H :    0.058301
  63 H :    0.029447
  64 H :   -0.004380
  65 H :    0.042534
  66 H :    0.030370
  67 H :    0.027076
  68 H :    0.031377
  69 H :    0.031504
  70 H :    0.001942
  71 H :    0.045793
  72 H :    0.023443
  73 H :    0.002047
  74 H :    0.038936
  75 H :    0.022443
  76 H :    0.021308
  77 H :    0.026804
  78 H :    0.026467
  79 H :    0.005521
  80 H :    0.037994
  81 H :    0.028159
  82 H :   -0.001592
  83 H :    0.044021
  84 H :    0.027158
  85 H :    0.024667
  86 H :    0.030359
  87 H :    0.030279
  88 H :   -0.004813
  89 H :    0.041262

  Mayer bond orders larger than 0.100000
B(  0-C ,  1-N ) :   1.1837 B(  0-C , 17-C ) :   1.5456 B(  0-C , 52-H ) :   0.9674
B(  1-N ,  8-C ) :   1.1769 B(  1-N , 10-C ) :   0.9346 B(  2-C , 12-C ) :   1.5689
B(  2-C , 16-C ) :   1.2845 B(  2-C , 53-H ) :   0.9790 B(  3-N , 14-C ) :   1.1793
B(  3-N , 16-C ) :   1.2023 B(  3-N , 61-H ) :   0.8961 B(  4-C ,  6-C ) :   1.3362
B(  4-C , 17-C ) :   1.3383 B(  4-C , 18-C ) :   1.0966 B(  5-N , 19-C ) :   1.3754
B(  5-N , 27-C ) :   1.4403 B(  6-C ,  8-C ) :   1.5490 B(  6-C , 54-H ) :   0.9709
B(  7-N , 30-C ) :   1.1849 B(  7-N , 38-C ) :   1.2135 B(  7-N , 62-H ) :   0.9007
B(  8-C , 55-H ) :   0.9685 B(  9-N , 41-C ) :   1.4281 B(  9-N , 49-C ) :   1.3993
B( 10-C , 56-H ) :   0.9764 B( 10-C , 57-H ) :   0.9812 B( 10-C , 58-H ) :   0.9819
B( 11-N , 20-C ) :   1.1047 B( 11-N , 24-C ) :   1.1350 B( 11-N , 25-C ) :   0.9603
B( 12-C , 14-C ) :   1.2854 B( 12-C , 59-H ) :   0.9775 B( 13-N , 31-C ) :   1.0906
B( 13-N , 35-C ) :   1.0798 B( 13-N , 36-C ) :   0.9779 B( 14-C , 18-C ) :   1.2503
B( 15-N , 42-C ) :   1.1243 B( 15-N , 46-C ) :   1.0951 B( 15-N , 47-C ) :   0.9654
B( 16-C , 51-C ) :   1.2364 B( 17-C , 60-H ) :   0.9712 B( 18-C , 19-C ) :   1.2915
B( 19-C , 21-C ) :   1.1745 B( 20-C , 28-C ) :   1.6252 B( 20-C , 63-H ) :   0.9707
B( 21-C , 26-C ) :   1.6724 B( 21-C , 64-H ) :   0.9727 B( 22-C , 23-C ) :   1.2629
B( 22-C , 28-C ) :   1.2812 B( 22-C , 29-C ) :   1.2480 B( 23-C , 24-C ) :   1.6289
B( 23-C , 65-H ) :   0.9719 B( 24-C , 66-H ) :   0.9690 B( 25-C , 67-H ) :   0.9763
B( 25-C , 68-H ) :   0.9833 B( 25-C , 69-H ) :   0.9819 B( 26-C , 27-C ) :   1.1804
B( 26-C , 70-H ) :   0.9751 B( 27-C , 29-C ) :   1.2380 B( 28-C , 71-H ) :   0.9710
B( 29-C , 30-C ) :   1.1856 B( 30-C , 32-C ) :   1.3409 B( 31-C , 39-C ) :   1.6737
B( 31-C , 72-H ) :   0.9707 B( 32-C , 37-C ) :   1.5186 B( 32-C , 73-H ) :   0.9772
B( 33-C , 34-C ) :   1.2415 B( 33-C , 39-C ) :   1.2332 B( 33-C , 40-C ) :   1.3342
B( 34-C , 35-C ) :   1.6717 B( 34-C , 74-H ) :   0.9709 B( 35-C , 75-H ) :   0.9707
B( 36-C , 76-H ) :   0.9757 B( 36-C , 77-H ) :   0.9825 B( 36-C , 78-H ) :   0.9837
B( 37-C , 38-C ) :   1.3364 B( 37-C , 79-H ) :   0.9790 B( 38-C , 40-C ) :   1.1861
B( 39-C , 80-H ) :   0.9721 B( 40-C , 41-C ) :   1.1777 B( 41-C , 43-C ) :   1.2495
B( 42-C , 50-C ) :   1.6401 B( 42-C , 81-H ) :   0.9696 B( 43-C , 48-C ) :   1.6015
B( 43-C , 82-H ) :   0.9752 B( 44-C , 45-C ) :   1.2787 B( 44-C , 50-C ) :   1.2531
B( 44-C , 51-C ) :   1.2512 B( 45-C , 46-C ) :   1.6328 B( 45-C , 83-H ) :   0.9704
B( 46-C , 84-H ) :   0.9708 B( 47-C , 85-H ) :   0.9760 B( 47-C , 86-H ) :   0.9826
B( 47-C , 87-H ) :   0.9829 B( 48-C , 49-C ) :   1.2448 B( 48-C , 88-H ) :   0.9728
B( 49-C , 51-C ) :   1.1935 B( 50-C , 89-H ) :   0.9720

MP2 TOTAL ENERGY:    -2130.886031323 Eh
FINAL SINGLE POINT ENERGY     -2130.886031323463

DIPOLE MOMENT
-------------
                                X             Y             Z
Electronic contribution:     -3.68945       3.87246      -0.16767
Nuclear contribution   :     -0.01817       0.17240       0.21675
                        -----------------------------------------
Total Dipole Moment    :     -3.70762       4.04486       0.04908
                        -----------------------------------------
Magnitude (a.u.)       :      5.48724
Magnitude (Debye)      :     13.94746

Rotational constants in cm-1:     0.001498     0.001473     0.000763
Rotational constants in MHz :    44.899561    44.148443    22.866318

                             ****ORCA TERMINATED NORMALLY****
TOTAL RUN TIME: 0 days 1 hours 40 minutes 31 seconds 311 msec
