                         Program Version 5.0.4 -  RELEASE  -
|  1> ! PAL2
|  2> ! mp2 cc-pvdz TightSCF  NoKeepInts
|  3>
|  4> %scf
|  5>   MaxCore 2000
|  6> end
|  7> %mp2
|  8>   MaxCore 2000
|  9> end
| 10> * xyz 0 1
| 11>    C       -4.87600         5.22600         0.53500
| 12>    C        1.47400         4.04100         0.05700
| 13>    C       -2.80200         4.09300         0.04900
| 14>    C       -2.30200         5.31800        -0.42100
| 15>    C       -3.09700         6.44600        -0.39500
| 16>    C       -5.17800         7.62600         0.12400
| 17>    C        0.13200         4.30700         0.06100
| 18>    C       -0.56900         3.05600         0.04700
| 19>    C        1.64900         2.61800         0.02300
| 20>    C       -4.11800         4.07200         0.53500
| 21>    N       -4.36500         6.39000         0.07500
| 22>    N        0.38800         2.06700         0.02500
| 23>    N       -2.01000         0.39500        -0.07500
| 24>    N       -0.38800        -2.07400        -0.02700
| 25>    N        2.01000        -0.40100         0.06500
| 26>    C       -1.96000         2.86100         0.02400
| 27>    C       -2.62300         1.61500        -0.01800
| 28>    C       -5.57300        -4.32900         1.06600
| 29>    C       -4.07300         1.47100         0.05600
| 30>    C       -4.10600        -2.75600        -0.02600
| 31>    C       -4.99500        -2.75700        -1.11100
| 32>    C       -6.13200        -3.54200        -1.07600
| 33>    C       -7.65100        -5.11300         0.04000
| 34>    C       -4.32400         0.14100         0.03700
| 35>    C       -3.02500        -0.52000        -0.04800
| 36>    C       -4.42200        -3.56600         1.07500
| 37>    N       -6.40700        -4.31300         0.00100
| 38>    C       -2.86700        -1.92200        -0.04000
| 39>    C       -1.65000        -2.62400        -0.02700
| 40>    C        3.56800        -6.14200        -1.04000
| 41>    C       -1.47600        -4.04900        -0.03400
| 42>    C        2.80300        -4.09900        -0.00800
| 43>    C        3.65700        -4.38400         1.06900
| 44>    C        4.42700        -5.53000         1.05900
| 45>    C        5.24500        -7.58800         0.01400
| 46>    C       -0.13400        -4.31500        -0.02200
| 47>    C        0.56800        -3.06400        -0.02700
| 48>    C        2.77500        -5.01200        -1.07400
| 49>    N        4.37600        -6.39100         0.01700
| 50>    C        1.95900        -2.86900        -0.00900
| 51>    C        2.62100        -1.62200         0.00900
| 52>    C        5.54300         4.33900        -1.13000
| 53>    C        4.07000        -1.47900        -0.09400
| 54>    C        4.10400         2.75100        -0.02100
| 55>    C        5.02700         2.72900         1.03600
| 56>    C        6.16600         3.50900         0.97800
| 57>    C        7.61900         5.15300        -0.11500
| 58>    C        4.32100        -0.14800        -0.09200
| 59>    C        3.02500         0.51400         0.01500
| 60>    C        4.38700         3.58200        -1.11500
| 61>    C        2.86600         1.91600         0.01300
| 62>    N        6.41300         4.29600        -0.09500
| 63>    H       -5.90000         5.25400         0.88900
| 64>    H        2.27400         4.76600         0.08100
| 65>    H       -1.29100         5.40000        -0.79900
| 66>    H       -2.75300         7.41400        -0.73800
| 67>    H       -4.96600         8.15400         1.05700
| 68>    H       -4.91600         8.25200        -0.72900
| 69>    H       -6.23200         7.35400         0.07900
| 70>    H       -0.33200         5.28200         0.06900
| 71>    H       -4.56600         3.15400         0.89900
| 72>    H        0.18200         1.07200         0.00500
| 73>    H       -0.18300        -1.08000        -0.02100
| 74>    H       -5.86400        -4.96200         1.89500
| 75>    H       -4.79400         2.27200         0.13900
| 76>    H       -4.80000        -2.16000        -1.99400
| 77>    H       -6.84100        -3.58200        -1.89300
| 78>    H       -8.42800        -4.53600         0.54600
| 79>    H       -7.95600        -5.33700        -0.98100
| 80>    H       -7.45600        -6.03700         0.58400
| 81>    H       -5.28700        -0.34400         0.10000
| 82>    H       -3.78000        -3.60100         1.94700
| 83>    H        3.58700        -6.86800        -1.84300
| 84>    H       -2.27600        -4.77400        -0.05000
| 85>    H        3.71400        -3.72400         1.92600
| 86>    H        5.09200        -5.79500         1.87100
| 87>    H        6.20500        -7.32900        -0.43900
| 88>    H        5.39300        -7.91700         1.04200
| 89>    H        4.75900        -8.37300        -0.56400
| 90>    H        0.32900        -5.29000        -0.00800
| 91>    H        2.14600        -4.84200        -1.94000
| 92>    H        5.80800         4.98600        -1.95600
| 93>    H        4.78800        -2.28100        -0.18500
| 94>    H        4.86000         2.11400         1.91200
| 95>    H        6.90100         3.53100         1.77200
| 96>    H        7.38300         6.10900         0.35600
| 97>    H        8.41400         4.65200         0.43500
| 98>    H        7.92100         5.31000        -1.15000
| 99>    H        5.28300         0.33600        -0.17900
|100>    H        3.72000         3.63200        -1.96700
|101> *
|102>
|103>                          ****END OF INPUT****

CARTESIAN COORDINATES (ANGSTROEM)
---------------------------------
  C     -4.876000    5.226000    0.535000
  C      1.474000    4.041000    0.057000
  C     -2.802000    4.093000    0.049000
  C     -2.302000    5.318000   -0.421000
  C     -3.097000    6.446000   -0.395000
  C     -5.178000    7.626000    0.124000
  C      0.132000    4.307000    0.061000
  C     -0.569000    3.056000    0.047000
  C      1.649000    2.618000    0.023000
  C     -4.118000    4.072000    0.535000
  N     -4.365000    6.390000    0.075000
  N      0.388000    2.067000    0.025000
  N     -2.010000    0.395000   -0.075000
  N     -0.388000   -2.074000   -0.027000
  N      2.010000   -0.401000    0.065000
  C     -1.960000    2.861000    0.024000
  C     -2.623000    1.615000   -0.018000
  C     -5.573000   -4.329000    1.066000
  C     -4.073000    1.471000    0.056000
  C     -4.106000   -2.756000   -0.026000
  C     -4.995000   -2.757000   -1.111000
  C     -6.132000   -3.542000   -1.076000
  C     -7.651000   -5.113000    0.040000
  C     -4.324000    0.141000    0.037000
  C     -3.025000   -0.520000   -0.048000
  C     -4.422000   -3.566000    1.075000
  N     -6.407000   -4.313000    0.001000
  C     -2.867000   -1.922000   -0.040000
  C     -1.650000   -2.624000   -0.027000
  C      3.568000   -6.142000   -1.040000
  C     -1.476000   -4.049000   -0.034000
  C      2.803000   -4.099000   -0.008000
  C      3.657000   -4.384000    1.069000
  C      4.427000   -5.530000    1.059000
  C      5.245000   -7.588000    0.014000
  C     -0.134000   -4.315000   -0.022000
  C      0.568000   -3.064000   -0.027000
  C      2.775000   -5.012000   -1.074000
  N      4.376000   -6.391000    0.017000
  C      1.959000   -2.869000   -0.009000
  C      2.621000   -1.622000    0.009000
  C      5.543000    4.339000   -1.130000
  C      4.070000   -1.479000   -0.094000
  C      4.104000    2.751000   -0.021000
  C      5.027000    2.729000    1.036000
  C      6.166000    3.509000    0.978000
  C      7.619000    5.153000   -0.115000
  C      4.321000   -0.148000   -0.092000
  C      3.025000    0.514000    0.015000
  C      4.387000    3.582000   -1.115000
  C      2.866000    1.916000    0.013000
  N      6.413000    4.296000   -0.095000
  H     -5.900000    5.254000    0.889000
  H      2.274000    4.766000    0.081000
  H     -1.291000    5.400000   -0.799000
  H     -2.753000    7.414000   -0.738000
  H     -4.966000    8.154000    1.057000
  H     -4.916000    8.252000   -0.729000
  H     -6.232000    7.354000    0.079000
  H     -0.332000    5.282000    0.069000
  H     -4.566000    3.154000    0.899000
  H      0.182000    1.072000    0.005000
  H     -0.183000   -1.080000   -0.021000
  H     -5.864000   -4.962000    1.895000
  H     -4.794000    2.272000    0.139000
  H     -4.800000   -2.160000   -1.994000
  H     -6.841000   -3.582000   -1.893000
  H     -8.428000   -4.536000    0.546000
  H     -7.956000   -5.337000   -0.981000
  H     -7.456000   -6.037000    0.584000
  H     -5.287000   -0.344000    0.100000
  H     -3.780000   -3.601000    1.947000
  H      3.587000   -6.868000   -1.843000
  H     -2.276000   -4.774000   -0.050000
  H      3.714000   -3.724000    1.926000
  H      5.092000   -5.795000    1.871000
  H      6.205000   -7.329000   -0.439000
  H      5.393000   -7.917000    1.042000
  H      4.759000   -8.373000   -0.564000
  H      0.329000   -5.290000   -0.008000
  H      2.146000   -4.842000   -1.940000
  H      5.808000    4.986000   -1.956000
  H      4.788000   -2.281000   -0.185000
  H      4.860000    2.114000    1.912000
  H      6.901000    3.531000    1.772000
  H      7.383000    6.109000    0.356000
  H      8.414000    4.652000    0.435000
  H      7.921000    5.310000   -1.150000
  H      5.283000    0.336000   -0.179000
  H      3.720000    3.632000   -1.967000

 Total Charge           Charge          ....    0
 Multiplicity           Mult            ....    1
 Number of Electrons    NEL             ....  358
 Basis Dimension        Dim             ....  918

ORBITAL ENERGIES
----------------

  NO   OCC          E(Eh)            E(eV)
   0   2.0000     -15.676391      -426.5763
   1   2.0000     -15.634231      -425.4291
   2   2.0000     -15.631292      -425.3491
   3   2.0000     -15.589792      -424.2198
   4   2.0000     -15.524895      -422.4539
   5   2.0000     -15.516011      -422.2121
   6   2.0000     -15.453157      -420.5018
   7   2.0000     -15.440576      -420.1594
   8   2.0000     -11.326683      -308.2147
   9   2.0000     -11.325833      -308.1916
  10   2.0000     -11.325419      -308.1803
  11   2.0000     -11.299484      -307.4746
  12   2.0000     -11.298016      -307.4346
  13   2.0000     -11.293060      -307.2998
  14   2.0000     -11.290528      -307.2309
  15   2.0000     -11.286932      -307.1330
  16   2.0000     -11.286314      -307.1162
  17   2.0000     -11.278865      -306.9135
  18   2.0000     -11.271994      -306.7265
  19   2.0000     -11.261007      -306.4276
  20   2.0000     -11.260031      -306.4010
  21   2.0000     -11.253769      -306.2306
  22   2.0000     -11.253143      -306.2136
  23   2.0000     -11.237929      -305.7996
  24   2.0000     -11.236082      -305.7493
  25   2.0000     -11.231368      -305.6211
  26   2.0000     -11.230566      -305.5992
  27   2.0000     -11.229360      -305.5664
  28   2.0000     -11.229244      -305.5633
  29   2.0000     -11.210374      -305.0498
  30   2.0000     -11.209060      -305.0140
  31   2.0000     -11.197574      -304.7015
  32   2.0000     -11.190531      -304.5098
  33   2.0000     -11.190097      -304.4980
  34   2.0000     -11.188825      -304.4634
  35   2.0000     -11.187516      -304.4278
  36   2.0000     -11.187095      -304.4163
  37   2.0000     -11.185851      -304.3825
  38   2.0000     -11.183748      -304.3253
  39   2.0000     -11.173568      -304.0482
  40   2.0000     -11.172356      -304.0153
  41   2.0000     -11.170433      -303.9629
  42   2.0000     -11.167792      -303.8911
  43   2.0000     -11.160576      -303.6947
  44   2.0000     -11.160436      -303.6909
  45   2.0000     -11.157861      -303.6208
  46   2.0000     -11.155756      -303.5636
  47   2.0000     -11.155471      -303.5558
  48   2.0000     -11.147572      -303.3408
  49   2.0000     -11.137677      -303.0716
  50   2.0000     -11.130887      -302.8868
  51   2.0000     -11.119680      -302.5819
  52   2.0000      -1.357492       -36.9392
  53   2.0000      -1.321441       -35.9582
  54   2.0000      -1.319153       -35.8960
  55   2.0000      -1.283322       -34.9210
  56   2.0000      -1.225697       -33.3529
  57   2.0000      -1.210477       -32.9388
  58   2.0000      -1.172438       -31.9037
  59   2.0000      -1.151310       -31.3287
  60   2.0000      -1.141249       -31.0550
  61   2.0000      -1.110394       -30.2154
  62   2.0000      -1.108598       -30.1665
  63   2.0000      -1.079418       -29.3724
  64   2.0000      -1.079399       -29.3720
  65   2.0000      -1.045609       -28.4525
  66   2.0000      -1.043854       -28.4047
  67   2.0000      -1.039518       -28.2867
  68   2.0000      -1.014682       -27.6109
  69   2.0000      -1.013367       -27.5751
  70   2.0000      -1.009457       -27.4687
  71   2.0000      -0.993068       -27.0228
  72   2.0000      -0.986405       -26.8414
  73   2.0000      -0.980662       -26.6852
  74   2.0000      -0.972448       -26.4617
  75   2.0000      -0.961345       -26.1595
  76   2.0000      -0.953799       -25.9542
  77   2.0000      -0.946079       -25.7441
  78   2.0000      -0.935336       -25.4518
  79   2.0000      -0.918428       -24.9917
  80   2.0000      -0.908094       -24.7105
  81   2.0000      -0.894861       -24.3504
  82   2.0000      -0.875196       -23.8153
  83   2.0000      -0.872104       -23.7312
  84   2.0000      -0.869588       -23.6627
  85   2.0000      -0.857678       -23.3386
  86   2.0000      -0.841481       -22.8979
  87   2.0000      -0.835782       -22.7428
  88   2.0000      -0.825112       -22.4524
  89   2.0000      -0.797407       -21.6985
  90   2.0000      -0.790650       -21.5147
  91   2.0000      -0.752356       -20.4727
  92   2.0000      -0.747143       -20.3308
  93   2.0000      -0.733136       -19.9496
  94   2.0000      -0.725106       -19.7311
  95   2.0000      -0.722295       -19.6546
  96   2.0000      -0.716829       -19.5059
  97   2.0000      -0.713444       -19.4138
  98   2.0000      -0.708931       -19.2910
  99   2.0000      -0.697320       -18.9750
 100   2.0000      -0.696329       -18.9481
 101   2.0000      -0.686228       -18.6732
 102   2.0000      -0.682593       -18.5743
 103   2.0000      -0.682052       -18.5596
 104   2.0000      -0.678466       -18.4620
 105   2.0000      -0.673737       -18.3333
 106   2.0000      -0.670693       -18.2505
 107   2.0000      -0.660446       -17.9716
 108   2.0000      -0.656959       -17.8768
 109   2.0000      -0.653202       -17.7745
 110   2.0000      -0.651216       -17.7205
 111   2.0000      -0.644042       -17.5253
 112   2.0000      -0.643624       -17.5139
 113   2.0000      -0.638730       -17.3807
 114   2.0000      -0.637527       -17.3480
 115   2.0000      -0.627898       -17.0860
 116   2.0000      -0.623206       -16.9583
 117   2.0000      -0.620497       -16.8846
 118   2.0000      -0.612886       -16.6775
 119   2.0000      -0.612445       -16.6655
 120   2.0000      -0.611089       -16.6286
 121   2.0000      -0.609173       -16.5764
 122   2.0000      -0.600548       -16.3417
 123   2.0000      -0.586840       -15.9687
 124   2.0000      -0.581823       -15.8322
 125   2.0000      -0.580459       -15.7951
 126   2.0000      -0.579717       -15.7749
 127   2.0000      -0.572683       -15.5835
 128   2.0000      -0.568481       -15.4691
 129   2.0000      -0.559428       -15.2228
 130   2.0000      -0.551977       -15.0201
 131   2.0000      -0.547493       -14.8980
 132   2.0000      -0.542175       -14.7533
 133   2.0000      -0.541804       -14.7432
 134   2.0000      -0.538458       -14.6522
 135   2.0000      -0.535731       -14.5780
 136   2.0000      -0.529547       -14.4097
 137   2.0000      -0.521625       -14.1941
 138   2.0000      -0.516935       -14.0665
 139   2.0000      -0.514311       -13.9951
 140   2.0000      -0.512077       -13.9343
 141   2.0000      -0.510929       -13.9031
 142   2.0000      -0.509240       -13.8571
 143   2.0000      -0.503936       -13.7128
 144   2.0000      -0.502228       -13.6663
 145   2.0000      -0.496733       -13.5168
 146   2.0000      -0.491456       -13.3732
 147   2.0000      -0.482905       -13.1405
 148   2.0000      -0.478875       -13.0309
 149   2.0000      -0.466844       -12.7035
 150   2.0000      -0.466401       -12.6914
 151   2.0000      -0.457101       -12.4383
 152   2.0000      -0.450951       -12.2710
 153   2.0000      -0.444940       -12.1074
 154   2.0000      -0.440506       -11.9868
 155   2.0000      -0.428226       -11.6526
 156   2.0000      -0.422403       -11.4942
 157   2.0000      -0.408210       -11.1080
 158   2.0000      -0.402067       -10.9408
 159   2.0000      -0.388474       -10.5709
 160   2.0000      -0.385440       -10.4884
 161   2.0000      -0.378380       -10.2962
 162   2.0000      -0.370192       -10.0734
 163   2.0000      -0.356805        -9.7092
 164   2.0000      -0.355514        -9.6740
 165   2.0000      -0.341141        -9.2829
 166   2.0000      -0.337607        -9.1867
 167   2.0000      -0.325421        -8.8552
 168   2.0000      -0.323208        -8.7949
 169   2.0000      -0.304698        -8.2912
 170   2.0000      -0.299582        -8.1520
 171   2.0000      -0.285652        -7.7730
 172   2.0000      -0.280652        -7.6369
 173   2.0000      -0.263226        -7.1627
 174   2.0000      -0.242029        -6.5860
 175   2.0000      -0.189946        -5.1687
 176   2.0000      -0.180489        -4.9113
 177   2.0000      -0.077292        -2.1032
 178   2.0000      -0.058901        -1.6028
 179   0.0000       0.028383         0.7723
 180   0.0000       0.065858         1.7921
 181   0.0000       0.090852         2.4722
 182   0.0000       0.108426         2.9504
 183   0.0000       0.112073         3.0497

MULLIKEN ATOMIC CHARGES
-----------------------
   0 C :    0.209655
   1 N :   -0.455740
   2 C :   -0.069028
   3 N :   -0.338549
   4 C :   -0.050093
   5 N :   -0.565686
   6 C :   -0.116970
   7 N :   -0.340474
   8 C :    0.209239
   9 N :   -0.562288
  10 C :    0.118785
  11 N :   -0.438385
  12 C :   -0.076799
  13 N :   -0.430189
  14 C :    0.228807
  15 N :   -0.441049
  16 C :    0.228991
  17 C :   -0.114311
  18 C :   -0.189976
  19 C :    0.222116
  20 C :    0.213199
  21 C :   -0.085683
  22 C :   -0.091049
  23 C :   -0.039949
  24 C :    0.194276
  25 C :    0.114573
  26 C :   -0.085264
  27 C :    0.213657
  28 C :   -0.061252
  29 C :   -0.180637
  30 C :    0.245512
  31 C :    0.228934
  32 C :   -0.061929
  33 C :   -0.061822
  34 C :   -0.050977
  35 C :    0.226571
  36 C :    0.108663
  37 C :   -0.064437
  38 C :    0.231630
  39 C :   -0.057995
  40 C :   -0.181785
  41 C :    0.225589
  42 C :    0.197623
  43 C :   -0.072384
  44 C :   -0.089554
  45 C :   -0.060849
  46 C :    0.210987
  47 C :    0.115400
  48 C :   -0.067358
  49 C :    0.238236
  50 C :   -0.046885
  51 C :   -0.192405
  52 H :    0.038699
  53 H :   -0.017080
  54 H :    0.047651
  55 H :    0.037097
  56 H :    0.049673
  57 H :    0.047514
  58 H :    0.047979
  59 H :   -0.000332
  60 H :    0.050639
  61 H :    0.171230
  62 H :    0.175348
  63 H :    0.055265
  64 H :   -0.012136
  65 H :    0.047346
  66 H :    0.055799
  67 H :    0.062365
  68 H :    0.057291
  69 H :    0.056450
  70 H :   -0.030003
  71 H :    0.044805
  72 H :    0.070343
  73 H :   -0.008257
  74 H :    0.059502
  75 H :    0.069736
  76 H :    0.074070
  77 H :    0.067342
  78 H :    0.066630
  79 H :   -0.016379
  80 H :    0.060378
  81 H :    0.054144
  82 H :   -0.024769
  83 H :    0.041993
  84 H :    0.054118
  85 H :    0.060775
  86 H :    0.055569
  87 H :    0.057097
  88 H :   -0.014786
  89 H :    0.046200
Sum of atomic charges:   -0.0000000

LOEWDIN ATOMIC CHARGES
----------------------
   0 C :   -0.021154
   1 N :    0.118215
   2 C :   -0.101625
   3 N :    0.183311
   4 C :   -0.009947
   5 N :   -0.133325
   6 C :   -0.042095
   7 N :    0.175488
   8 C :   -0.021742
   9 N :   -0.140481
  10 C :    0.023828
  11 N :    0.142009
  12 C :   -0.116607
  13 N :    0.164522
  14 C :   -0.024621
  15 N :    0.138642
  16 C :   -0.059339
  17 C :   -0.038988
  18 C :   -0.105424
  19 C :   -0.079247
  20 C :    0.004354
  21 C :   -0.121513
  22 C :    0.036911
  23 C :   -0.014714
  24 C :   -0.012025
  25 C :    0.029827
  26 C :   -0.108363
  27 C :   -0.115721
  28 C :   -0.027344
  29 C :   -0.100119
  30 C :   -0.030656
  31 C :    0.022832
  32 C :   -0.094625
  33 C :    0.078968
  34 C :   -0.015370
  35 C :    0.021064
  36 C :    0.034856
  37 C :   -0.094533
  38 C :   -0.051426
  39 C :   -0.018126
  40 C :   -0.108343
  41 C :   -0.091549
  42 C :   -0.010267
  43 C :   -0.099516
  44 C :    0.033239
  45 C :   -0.027773
  46 C :    0.001386
  47 C :    0.029472
  48 C :   -0.095349
  49 C :   -0.070542
  50 C :   -0.019231
  51 C :   -0.108762
  52 H :    0.023600
  53 H :    0.002871
  54 H :    0.035011
  55 H :    0.023009
  56 H :    0.021942
  57 H :    0.026232
  58 H :    0.027260
  59 H :    0.011408
  60 H :    0.033438
  61 H :    0.060108
  62 H :    0.061788
  63 H :    0.030705
  64 H :    0.004642
  65 H :    0.045966
  66 H :    0.029332
  67 H :    0.028197
  68 H :    0.031652
  69 H :    0.030328
  70 H :   -0.004634
  71 H :    0.043488
  72 H :    0.037259
  73 H :    0.007004
  74 H :    0.050307
  75 H :    0.036894
  76 H :    0.034359
  77 H :    0.035877
  78 H :    0.035558
  79 H :    0.003066
  80 H :    0.050333
  81 H :    0.028990
  82 H :   -0.002682
  83 H :    0.042570
  84 H :    0.029836
  85 H :    0.027333
  86 H :    0.030190
  87 H :    0.031351
  88 H :    0.002242
  89 H :    0.044709

  Mayer bond orders larger than 0.100000
B(  0-C ,  1-N ) :   1.0917 B(  0-C , 17-C ) :   1.7100 B(  0-C , 52-H ) :   0.9655
B(  1-N ,  8-C ) :   1.0920 B(  1-N , 10-C ) :   0.9771 B(  2-C , 12-C ) :   1.5011
B(  2-C , 16-C ) :   1.3612 B(  2-C , 53-H ) :   0.9744 B(  3-N , 14-C ) :   1.2196
B(  3-N , 16-C ) :   1.1870 B(  3-N , 61-H ) :   0.8990 B(  4-C ,  6-C ) :   1.2131
B(  4-C , 17-C ) :   1.2121 B(  4-C , 18-C ) :   1.4489 B(  5-N , 19-C ) :   1.4540
B(  5-N , 27-C ) :   1.3765 B(  6-C ,  8-C ) :   1.7073 B(  6-C , 54-H ) :   0.9441
B(  7-N , 30-C ) :   1.1957 B(  7-N , 38-C ) :   1.1905 B(  7-N , 62-H ) :   0.8968
B(  8-C , 55-H ) :   0.9664 B(  9-N , 41-C ) :   1.3946 B(  9-N , 49-C ) :   1.4251
B( 10-C , 56-H ) :   0.9773 B( 10-C , 57-H ) :   0.9822 B( 10-C , 58-H ) :   0.9843
B( 11-N , 20-C ) :   1.1307 B( 11-N , 24-C ) :   1.1076 B( 11-N , 25-C ) :   0.9601
B( 12-C , 14-C ) :   1.3567 B( 12-C , 59-H ) :   0.9668 B( 13-N , 31-C ) :   1.1588
B( 13-N , 35-C ) :   1.1568 B( 13-N , 36-C ) :   0.9427 B( 14-C , 18-C ) :   1.1265
B( 15-N , 42-C ) :   1.1080 B( 15-N , 46-C ) :   1.1233 B( 15-N , 47-C ) :   0.9614
B( 16-C , 51-C ) :   1.1702 B( 17-C , 60-H ) :   0.9362 B( 18-C , 19-C ) :   1.1292
B( 19-C , 21-C ) :   1.2482 B( 20-C , 28-C ) :   1.6284 B( 20-C , 63-H ) :   0.9703
B( 21-C , 26-C ) :   1.5976 B( 21-C , 64-H ) :   0.9566 B( 22-C , 23-C ) :   1.2891
B( 22-C , 28-C ) :   1.2643 B( 22-C , 29-C ) :   1.2244 B( 23-C , 24-C ) :   1.6201
B( 23-C , 65-H ) :   0.9703 B( 24-C , 66-H ) :   0.9695 B( 25-C , 67-H ) :   0.9760
B( 25-C , 68-H ) :   0.9828 B( 25-C , 69-H ) :   0.9823 B( 26-C , 27-C ) :   1.2485
B( 26-C , 70-H ) :   0.9698 B( 27-C , 29-C ) :   1.2103 B( 28-C , 71-H ) :   0.9720
B( 29-C , 30-C ) :   1.2433 B( 30-C , 32-C ) :   1.2817 B( 31-C , 39-C ) :   1.5909
B( 31-C , 72-H ) :   0.9682 B( 32-C , 37-C ) :   1.5771 B( 32-C , 73-H ) :   0.9786
B( 33-C , 34-C ) :   1.3050 B( 33-C , 39-C ) :   1.3014 B( 33-C , 40-C ) :   1.1811
B( 34-C , 35-C ) :   1.5883 B( 34-C , 74-H ) :   0.9697 B( 35-C , 75-H ) :   0.9682
B( 36-C , 76-H ) :   0.9767 B( 36-C , 77-H ) :   0.9816 B( 36-C , 78-H ) :   0.9824
B( 37-C , 38-C ) :   1.2870 B( 37-C , 79-H ) :   0.9766 B( 38-C , 40-C ) :   1.2319
B( 39-C , 80-H ) :   0.9706 B( 40-C , 41-C ) :   1.2488 B( 41-C , 43-C ) :   1.1863
B( 42-C , 50-C ) :   1.6334 B( 42-C , 81-H ) :   0.9697 B( 43-C , 48-C ) :   1.6664
B( 43-C , 82-H ) :   0.9722 B( 44-C , 45-C ) :   1.2638 B( 44-C , 50-C ) :   1.2718
B( 44-C , 51-C ) :   1.2608 B( 45-C , 46-C ) :   1.6348 B( 45-C , 83-H ) :   0.9718
B( 46-C , 84-H ) :   0.9700 B( 47-C , 85-H ) :   0.9762 B( 47-C , 86-H ) :   0.9829
B( 47-C , 87-H ) :   0.9825 B( 48-C , 49-C ) :   1.1897 B( 48-C , 88-H ) :   0.9748
B( 49-C , 51-C ) :   1.2420 B( 50-C , 89-H ) :   0.9709

MP2 TOTAL ENERGY:    -2130.857212614 Eh
FINAL SINGLE POINT ENERGY     -2130.857212614159

DIPOLE MOMENT
-------------
                                X             Y             Z
Electronic contribution:      2.50375      -4.11944      -0.17425
Nuclear contribution   :      0.07625       0.23937       0.17221
                        -----------------------------------------
Total Dipole Moment    :      2.58000      -3.88007      -0.00204
                        -----------------------------------------
Magnitude (a.u.)       :      4.65954
Magnitude (Debye)      :     11.84362

Rotational constants in cm-1:     0.001501     0.001479     0.000760
Rotational constants in MHz :    44.991641    44.330950    22.793848

                             ****ORCA TERMINATED NORMALLY****
TOTAL RUN TIME: 0 days 1 hours 21 minutes 34 seconds 997 msec
