                         Program Version 5.0.4 -  RELEASE  -
|  1> ! PAL2
|  2> ! mp2 cc-pvdz TightSCF  NoKeepInts
|  3>
|  4> %scf
|  5>   MaxCore 2000
|  6> end
|  7> %mp2
|  8>   MaxCore 2000
|  9> end
| 10> * xyz 0 1
| 11>    C       -4.71300         5.36300        -0.69900
| 12>    C        1.47400         4.04100         0.05700
| 13>    C       -2.80200         4.09300         0.04900
| 14>    C       -2.45700         5.18600         0.85900
| 15>    C       -3.24500         6.32000         0.86600
| 16>    C       -5.19600         7.61300         0.15100
| 17>    C        0.13200         4.30700         0.06100
| 18>    C       -0.56900         3.05600         0.04700
| 19>    C        1.64900         2.61800         0.02300
| 20>    C       -3.96000         4.20600        -0.73600
| 21>    N       -4.35200         6.39900         0.09200
| 22>    N        0.38800         2.06700         0.02500
| 23>    N       -2.01000         0.39500        -0.07500
| 24>    N       -0.38800        -2.07400        -0.02700
| 25>    N        2.01000        -0.40100         0.06500
| 26>    C       -1.96000         2.86100         0.02400
| 27>    C       -2.62300         1.61500        -0.01800
| 28>    C       -5.57300        -4.32900         1.06600
| 29>    C       -4.07300         1.47100         0.05600
| 30>    C       -4.10600        -2.75600        -0.02600
| 31>    C       -4.99500        -2.75700        -1.11100
| 32>    C       -6.13200        -3.54200        -1.07600
| 33>    C       -7.65100        -5.11300         0.04000
| 34>    C       -4.32400         0.14100         0.03700
| 35>    C       -3.02500        -0.52000        -0.04800
| 36>    C       -4.42200        -3.56600         1.07500
| 37>    N       -6.40700        -4.31300         0.00100
| 38>    C       -2.86700        -1.92200        -0.04000
| 39>    C       -1.65000        -2.62400        -0.02700
| 40>    C        3.56800        -6.14200        -1.04000
| 41>    C       -1.47600        -4.04900        -0.03400
| 42>    C        2.80300        -4.09900        -0.00800
| 43>    C        3.65700        -4.38400         1.06900
| 44>    C        4.42700        -5.53000         1.05900
| 45>    C        5.24500        -7.58800         0.01400
| 46>    C       -0.13400        -4.31500        -0.02200
| 47>    C        0.56800        -3.06400        -0.02700
| 48>    C        2.77500        -5.01200        -1.07400
| 49>    N        4.37600        -6.39100         0.01700
| 50>    C        1.95900        -2.86900        -0.00900
| 51>    C        2.62100        -1.62200         0.00900
| 52>    C        5.54300         4.33900        -1.13000
| 53>    C        4.07000        -1.47900        -0.09400
| 54>    C        4.10400         2.75100        -0.02100
| 55>    C        5.02700         2.72900         1.03600
| 56>    C        6.16600         3.50900         0.97800
| 57>    C        7.61900         5.15300        -0.11500
| 58>    C        4.32100        -0.14800        -0.09200
| 59>    C        3.02500         0.51400         0.01500
| 60>    C        4.38700         3.58200        -1.11500
| 61>    C        2.86600         1.91600         0.01300
| 62>    N        6.41300         4.29600        -0.09500
| 63>    H       -5.60600         5.49900        -1.29700
| 64>    H        2.27400         4.76600         0.08100
| 65>    H       -1.58000         5.15600         1.49500
| 66>    H       -3.02400         7.18300         1.48000
| 67>    H       -5.90600         7.51300         0.97500
| 68>    H       -4.55400         8.47900         0.31200
| 69>    H       -5.73000         7.71500        -0.79300
| 70>    H       -0.33200         5.28200         0.06900
| 71>    H       -4.27100         3.40200        -1.39300
| 72>    H        0.18200         1.07200         0.00500
| 73>    H       -0.18300        -1.08000        -0.02100
| 74>    H       -5.86400        -4.96200         1.89500
| 75>    H       -4.79400         2.27200         0.13900
| 76>    H       -4.80000        -2.16000        -1.99400
| 77>    H       -6.84100        -3.58200        -1.89300
| 78>    H       -8.42800        -4.53600         0.54600
| 79>    H       -7.95600        -5.33700        -0.98100
| 80>    H       -7.45600        -6.03700         0.58400
| 81>    H       -5.28700        -0.34400         0.10000
| 82>    H       -3.78000        -3.60100         1.94700
| 83>    H        3.58700        -6.86800        -1.84300
| 84>    H       -2.27600        -4.77400        -0.05000
| 85>    H        3.71400        -3.72400         1.92600
| 86>    H        5.09200        -5.79500         1.87100
| 87>    H        6.20500        -7.32900        -0.43900
| 88>    H        5.39300        -7.91700         1.04200
| 89>    H        4.75900        -8.37300        -0.56400
| 90>    H        0.32900        -5.29000        -0.00800
| 91>    H        2.14600        -4.84200        -1.94000
| 92>    H        5.80800         4.98600        -1.95600
| 93>    H        4.78800        -2.28100        -0.18500
| 94>    H        4.86000         2.11400         1.91200
| 95>    H        6.90100         3.53100         1.77200
| 96>    H        7.38300         6.10900         0.35600
| 97>    H        8.41400         4.65200         0.43500
| 98>    H        7.92100         5.31000        -1.15000
| 99>    H        5.28300         0.33600        -0.17900
|100>    H        3.72000         3.63200        -1.96700
|101> *
|102>
|103>                          ****END OF INPUT****

CARTESIAN COORDINATES (ANGSTROEM)
---------------------------------
  C     -4.713000    5.363000   -0.699000
  C      1.474000    4.041000    0.057000
  C     -2.802000    4.093000    0.049000
  C     -2.457000    5.186000    0.859000
  C     -3.245000    6.320000    0.866000
  C     -5.196000    7.613000    0.151000
  C      0.132000    4.307000    0.061000
  C     -0.569000    3.056000    0.047000
  C      1.649000    2.618000    0.023000
  C     -3.960000    4.206000   -0.736000
  N     -4.352000    6.399000    0.092000
  N      0.388000    2.067000    0.025000
  N     -2.010000    0.395000   -0.075000
  N     -0.388000   -2.074000   -0.027000
  N      2.010000   -0.401000    0.065000
  C     -1.960000    2.861000    0.024000
  C     -2.623000    1.615000   -0.018000
  C     -5.573000   -4.329000    1.066000
  C     -4.073000    1.471000    0.056000
  C     -4.106000   -2.756000   -0.026000
  C     -4.995000   -2.757000   -1.111000
  C     -6.132000   -3.542000   -1.076000
  C     -7.651000   -5.113000    0.040000
  C     -4.324000    0.141000    0.037000
  C     -3.025000   -0.520000   -0.048000
  C     -4.422000   -3.566000    1.075000
  N     -6.407000   -4.313000    0.001000
  C     -2.867000   -1.922000   -0.040000
  C     -1.650000   -2.624000   -0.027000
  C      3.568000   -6.142000   -1.040000
  C     -1.476000   -4.049000   -0.034000
  C      2.803000   -4.099000   -0.008000
  C      3.657000   -4.384000    1.069000
  C      4.427000   -5.530000    1.059000
  C      5.245000   -7.588000    0.014000
  C     -0.134000   -4.315000   -0.022000
  C      0.568000   -3.064000   -0.027000
  C      2.775000   -5.012000   -1.074000
  N      4.376000   -6.391000    0.017000
  C      1.959000   -2.869000   -0.009000
  C      2.621000   -1.622000    0.009000
  C      5.543000    4.339000   -1.130000
  C      4.070000   -1.479000   -0.094000
  C      4.104000    2.751000   -0.021000
  C      5.027000    2.729000    1.036000
  C      6.166000    3.509000    0.978000
  C      7.619000    5.153000   -0.115000
  C      4.321000   -0.148000   -0.092000
  C      3.025000    0.514000    0.015000
  C      4.387000    3.582000   -1.115000
  C      2.866000    1.916000    0.013000
  N      6.413000    4.296000   -0.095000
  H     -5.606000    5.499000   -1.297000
  H      2.274000    4.766000    0.081000
  H     -1.580000    5.156000    1.495000
  H     -3.024000    7.183000    1.480000
  H     -5.906000    7.513000    0.975000
  H     -4.554000    8.479000    0.312000
  H     -5.730000    7.715000   -0.793000
  H     -0.332000    5.282000    0.069000
  H     -4.271000    3.402000   -1.393000
  H      0.182000    1.072000    0.005000
  H     -0.183000   -1.080000   -0.021000
  H     -5.864000   -4.962000    1.895000
  H     -4.794000    2.272000    0.139000
  H     -4.800000   -2.160000   -1.994000
  H     -6.841000   -3.582000   -1.893000
  H     -8.428000   -4.536000    0.546000
  H     -7.956000   -5.337000   -0.981000
  H     -7.456000   -6.037000    0.584000
  H     -5.287000   -0.344000    0.100000
  H     -3.780000   -3.601000    1.947000
  H      3.587000   -6.868000   -1.843000
  H     -2.276000   -4.774000   -0.050000
  H      3.714000   -3.724000    1.926000
  H      5.092000   -5.795000    1.871000
  H      6.205000   -7.329000   -0.439000
  H      5.393000   -7.917000    1.042000
  H      4.759000   -8.373000   -0.564000
  H      0.329000   -5.290000   -0.008000
  H      2.146000   -4.842000   -1.940000
  H      5.808000    4.986000   -1.956000
  H      4.788000   -2.281000   -0.185000
  H      4.860000    2.114000    1.912000
  H      6.901000    3.531000    1.772000
  H      7.383000    6.109000    0.356000
  H      8.414000    4.652000    0.435000
  H      7.921000    5.310000   -1.150000
  H      5.283000    0.336000   -0.179000
  H      3.720000    3.632000   -1.967000

 Total Charge           Charge          ....    0
 Multiplicity           Mult            ....    1
 Number of Electrons    NEL             ....  358
 Basis Dimension        Dim             ....  918

ORBITAL ENERGIES
----------------

  NO   OCC          E(Eh)            E(eV)
   0   2.0000     -15.664994      -426.2662
   1   2.0000     -15.638387      -425.5421
   2   2.0000     -15.628442      -425.2715
   3   2.0000     -15.596597      -424.4050
   4   2.0000     -15.523973      -422.4288
   5   2.0000     -15.515873      -422.2084
   6   2.0000     -15.449997      -420.4158
   7   2.0000     -15.443415      -420.2367
   8   2.0000     -11.318780      -307.9997
   9   2.0000     -11.317624      -307.9682
  10   2.0000     -11.315305      -307.9051
  11   2.0000     -11.302045      -307.5443
  12   2.0000     -11.296105      -307.3826
  13   2.0000     -11.295827      -307.3751
  14   2.0000     -11.291367      -307.2537
  15   2.0000     -11.287431      -307.1466
  16   2.0000     -11.284222      -307.0593
  17   2.0000     -11.277077      -306.8649
  18   2.0000     -11.268133      -306.6215
  19   2.0000     -11.260989      -306.4271
  20   2.0000     -11.260638      -306.4175
  21   2.0000     -11.252959      -306.2086
  22   2.0000     -11.252038      -306.1835
  23   2.0000     -11.241955      -305.9092
  24   2.0000     -11.234373      -305.7028
  25   2.0000     -11.233800      -305.6872
  26   2.0000     -11.233164      -305.6699
  27   2.0000     -11.227038      -305.5032
  28   2.0000     -11.226779      -305.4962
  29   2.0000     -11.208566      -305.0006
  30   2.0000     -11.207306      -304.9663
  31   2.0000     -11.206717      -304.9503
  32   2.0000     -11.201798      -304.8164
  33   2.0000     -11.201149      -304.7988
  34   2.0000     -11.190259      -304.5024
  35   2.0000     -11.189842      -304.4911
  36   2.0000     -11.184802      -304.3539
  37   2.0000     -11.181319      -304.2592
  38   2.0000     -11.180564      -304.2386
  39   2.0000     -11.174399      -304.0709
  40   2.0000     -11.170144      -303.9551
  41   2.0000     -11.168059      -303.8983
  42   2.0000     -11.166720      -303.8619
  43   2.0000     -11.163808      -303.7827
  44   2.0000     -11.162741      -303.7536
  45   2.0000     -11.160650      -303.6967
  46   2.0000     -11.154290      -303.5237
  47   2.0000     -11.150014      -303.4073
  48   2.0000     -11.148714      -303.3719
  49   2.0000     -11.143589      -303.2325
  50   2.0000     -11.136098      -303.0286
  51   2.0000     -11.129976      -302.8620
  52   2.0000      -1.347779       -36.6749
  53   2.0000      -1.325019       -36.0556
  54   2.0000      -1.316599       -35.8265
  55   2.0000      -1.290333       -35.1117
  56   2.0000      -1.224187       -33.3118
  57   2.0000      -1.210683       -32.9444
  58   2.0000      -1.168005       -31.7830
  59   2.0000      -1.154531       -31.4164
  60   2.0000      -1.132983       -30.8300
  61   2.0000      -1.113345       -30.2957
  62   2.0000      -1.106273       -30.1032
  63   2.0000      -1.085249       -29.5311
  64   2.0000      -1.070368       -29.1262
  65   2.0000      -1.049015       -28.5452
  66   2.0000      -1.041352       -28.3366
  67   2.0000      -1.034391       -28.1472
  68   2.0000      -1.017924       -27.6991
  69   2.0000      -1.014219       -27.5983
  70   2.0000      -1.009386       -27.4668
  71   2.0000      -0.992676       -27.0121
  72   2.0000      -0.987557       -26.8728
  73   2.0000      -0.977301       -26.5937
  74   2.0000      -0.972567       -26.4649
  75   2.0000      -0.959181       -26.1007
  76   2.0000      -0.951017       -25.8785
  77   2.0000      -0.947479       -25.7822
  78   2.0000      -0.936244       -25.4765
  79   2.0000      -0.921005       -25.0618
  80   2.0000      -0.900758       -24.5109
  81   2.0000      -0.891062       -24.2470
  82   2.0000      -0.876055       -23.8387
  83   2.0000      -0.870195       -23.6792
  84   2.0000      -0.865617       -23.5546
  85   2.0000      -0.855042       -23.2669
  86   2.0000      -0.843124       -22.9426
  87   2.0000      -0.838199       -22.8085
  88   2.0000      -0.822410       -22.3789
  89   2.0000      -0.798628       -21.7318
  90   2.0000      -0.794106       -21.6087
  91   2.0000      -0.745543       -20.2873
  92   2.0000      -0.737747       -20.0751
  93   2.0000      -0.732221       -19.9247
  94   2.0000      -0.723557       -19.6890
  95   2.0000      -0.719771       -19.5860
  96   2.0000      -0.713962       -19.4279
  97   2.0000      -0.706349       -19.2207
  98   2.0000      -0.702558       -19.1176
  99   2.0000      -0.696333       -18.9482
 100   2.0000      -0.694421       -18.8962
 101   2.0000      -0.681993       -18.5580
 102   2.0000      -0.679397       -18.4873
 103   2.0000      -0.674609       -18.3570
 104   2.0000      -0.674570       -18.3560
 105   2.0000      -0.670816       -18.2538
 106   2.0000      -0.665184       -18.1006
 107   2.0000      -0.662765       -18.0348
 108   2.0000      -0.656418       -17.8620
 109   2.0000      -0.653550       -17.7840
 110   2.0000      -0.649403       -17.6711
 111   2.0000      -0.645433       -17.5631
 112   2.0000      -0.642587       -17.4857
 113   2.0000      -0.636772       -17.3274
 114   2.0000      -0.635340       -17.2885
 115   2.0000      -0.628782       -17.1100
 116   2.0000      -0.623936       -16.9782
 117   2.0000      -0.615876       -16.7588
 118   2.0000      -0.614569       -16.7233
 119   2.0000      -0.612423       -16.6649
 120   2.0000      -0.608713       -16.5639
 121   2.0000      -0.602259       -16.3883
 122   2.0000      -0.600375       -16.3370
 123   2.0000      -0.588086       -16.0026
 124   2.0000      -0.586084       -15.9481
 125   2.0000      -0.583891       -15.8885
 126   2.0000      -0.578529       -15.7426
 127   2.0000      -0.577547       -15.7158
 128   2.0000      -0.563370       -15.3301
 129   2.0000      -0.558402       -15.1949
 130   2.0000      -0.553517       -15.0620
 131   2.0000      -0.548902       -14.9364
 132   2.0000      -0.542641       -14.7660
 133   2.0000      -0.539112       -14.6700
 134   2.0000      -0.535894       -14.5824
 135   2.0000      -0.534041       -14.5320
 136   2.0000      -0.524949       -14.2846
 137   2.0000      -0.524168       -14.2633
 138   2.0000      -0.517933       -14.0937
 139   2.0000      -0.514664       -14.0047
 140   2.0000      -0.510798       -13.8995
 141   2.0000      -0.509927       -13.8758
 142   2.0000      -0.509283       -13.8583
 143   2.0000      -0.502614       -13.6768
 144   2.0000      -0.500647       -13.6233
 145   2.0000      -0.497019       -13.5246
 146   2.0000      -0.494156       -13.4467
 147   2.0000      -0.485904       -13.2221
 148   2.0000      -0.483284       -13.1508
 149   2.0000      -0.468595       -12.7511
 150   2.0000      -0.464199       -12.6315
 151   2.0000      -0.456284       -12.4161
 152   2.0000      -0.448674       -12.2090
 153   2.0000      -0.446679       -12.1548
 154   2.0000      -0.445034       -12.1100
 155   2.0000      -0.440329       -11.9820
 156   2.0000      -0.431920       -11.7532
 157   2.0000      -0.427643       -11.6368
 158   2.0000      -0.401034       -10.9127
 159   2.0000      -0.385687       -10.4951
 160   2.0000      -0.379118       -10.3163
 161   2.0000      -0.377523       -10.2729
 162   2.0000      -0.370776       -10.0893
 163   2.0000      -0.359601        -9.7852
 164   2.0000      -0.353277        -9.6132
 165   2.0000      -0.337806        -9.1922
 166   2.0000      -0.337298        -9.1783
 167   2.0000      -0.330855        -9.0030
 168   2.0000      -0.328115        -8.9285
 169   2.0000      -0.302814        -8.2400
 170   2.0000      -0.299716        -8.1557
 171   2.0000      -0.286842        -7.8054
 172   2.0000      -0.284123        -7.7314
 173   2.0000      -0.259860        -7.0711
 174   2.0000      -0.245325        -6.6756
 175   2.0000      -0.189525        -5.1572
 176   2.0000      -0.179742        -4.8910
 177   2.0000      -0.072559        -1.9744
 178   2.0000      -0.057318        -1.5597
 179   0.0000       0.028989         0.7888
 180   0.0000       0.067681         1.8417
 181   0.0000       0.092165         2.5079
 182   0.0000       0.105747         2.8775
 183   0.0000       0.116054         3.1580

MULLIKEN ATOMIC CHARGES
-----------------------
   0 C :    0.204893
   1 N :   -0.452843
   2 C :   -0.064150
   3 N :   -0.335980
   4 C :   -0.054286
   5 N :   -0.560768
   6 C :   -0.108634
   7 N :   -0.339778
   8 C :    0.205535
   9 N :   -0.562725
  10 C :    0.118420
  11 N :   -0.437550
  12 C :   -0.080706
  13 N :   -0.432908
  14 C :    0.229391
  15 N :   -0.441412
  16 C :    0.229839
  17 C :   -0.104869
  18 C :   -0.178874
  19 C :    0.216109
  20 C :    0.213225
  21 C :   -0.090288
  22 C :   -0.088133
  23 C :   -0.042522
  24 C :    0.198653
  25 C :    0.113991
  26 C :   -0.074322
  27 C :    0.213520
  28 C :   -0.058411
  29 C :   -0.180989
  30 C :    0.242447
  31 C :    0.224908
  32 C :   -0.062249
  33 C :   -0.067531
  34 C :   -0.049576
  35 C :    0.219196
  36 C :    0.110190
  37 C :   -0.065054
  38 C :    0.234179
  39 C :   -0.059870
  40 C :   -0.183040
  41 C :    0.222917
  42 C :    0.198269
  43 C :   -0.073067
  44 C :   -0.090930
  45 C :   -0.059032
  46 C :    0.207860
  47 C :    0.115736
  48 C :   -0.069840
  49 C :    0.234399
  50 C :   -0.048385
  51 C :   -0.192471
  52 H :    0.042839
  53 H :   -0.015909
  54 H :    0.050214
  55 H :    0.041490
  56 H :    0.050904
  57 H :    0.049541
  58 H :    0.048678
  59 H :   -0.000575
  60 H :    0.048894
  61 H :    0.171323
  62 H :    0.174911
  63 H :    0.056833
  64 H :   -0.007433
  65 H :    0.047017
  66 H :    0.057047
  67 H :    0.063514
  68 H :    0.058013
  69 H :    0.057801
  70 H :   -0.027374
  71 H :    0.046878
  72 H :    0.066536
  73 H :   -0.009780
  74 H :    0.056023
  75 H :    0.065711
  76 H :    0.070761
  77 H :    0.064780
  78 H :    0.063929
  79 H :   -0.015149
  80 H :    0.056523
  81 H :    0.053533
  82 H :   -0.024911
  83 H :    0.041305
  84 H :    0.052984
  85 H :    0.059576
  86 H :    0.055234
  87 H :    0.056637
  88 H :   -0.016785
  89 H :    0.046005
Sum of atomic charges:   -0.0000000

LOEWDIN ATOMIC CHARGES
----------------------
   0 C :   -0.020421
   1 N :    0.118327
   2 C :   -0.101350
   3 N :    0.182526
   4 C :    0.000486
   5 N :   -0.131630
   6 C :   -0.037188
   7 N :    0.176133
   8 C :   -0.019456
   9 N :   -0.139986
  10 C :    0.024746
  11 N :    0.144271
  12 C :   -0.107212
  13 N :    0.158147
  14 C :   -0.035874
  15 N :    0.137462
  16 C :   -0.055670
  17 C :   -0.036198
  18 C :   -0.101431
  19 C :   -0.085644
  20 C :    0.005023
  21 C :   -0.111500
  22 C :    0.040734
  23 C :   -0.016169
  24 C :   -0.007683
  25 C :    0.030365
  26 C :   -0.106781
  27 C :   -0.111225
  28 C :   -0.024806
  29 C :   -0.100513
  30 C :   -0.035974
  31 C :    0.017754
  32 C :   -0.094764
  33 C :    0.068166
  34 C :   -0.015845
  35 C :    0.012975
  36 C :    0.033414
  37 C :   -0.096317
  38 C :   -0.046865
  39 C :   -0.020649
  40 C :   -0.108097
  41 C :   -0.094215
  42 C :   -0.009936
  43 C :   -0.101520
  44 C :    0.031249
  45 C :   -0.026939
  46 C :   -0.001709
  47 C :    0.029153
  48 C :   -0.098826
  49 C :   -0.075595
  50 C :   -0.020349
  51 C :   -0.109617
  52 H :    0.024698
  53 H :    0.003430
  54 H :    0.041041
  55 H :    0.024627
  56 H :    0.022405
  57 H :    0.027158
  58 H :    0.027647
  59 H :    0.008685
  60 H :    0.041166
  61 H :    0.060050
  62 H :    0.061551
  63 H :    0.031369
  64 H :    0.003901
  65 H :    0.045730
  66 H :    0.030018
  67 H :    0.028790
  68 H :    0.031986
  69 H :    0.030948
  70 H :   -0.003529
  71 H :    0.044528
  72 H :    0.035507
  73 H :    0.006259
  74 H :    0.048908
  75 H :    0.034903
  76 H :    0.032631
  77 H :    0.034669
  78 H :    0.034299
  79 H :    0.003666
  80 H :    0.048590
  81 H :    0.028765
  82 H :   -0.002699
  83 H :    0.042381
  84 H :    0.029238
  85 H :    0.026756
  86 H :    0.030007
  87 H :    0.031133
  88 H :    0.001292
  89 H :    0.044517

  Mayer bond orders larger than 0.100000
B(  0-C ,  1-N ) :   1.0913 B(  0-C , 17-C ) :   1.6940 B(  0-C , 52-H ) :   0.9680
B(  1-N ,  8-C ) :   1.0921 B(  1-N , 10-C ) :   0.9753 B(  2-C , 12-C ) :   1.5177
B(  2-C , 16-C ) :   1.3461 B(  2-C , 53-H ) :   0.9766 B(  3-N , 14-C ) :   1.2156
B(  3-N , 16-C ) :   1.1929 B(  3-N , 61-H ) :   0.8993 B(  4-C ,  6-C ) :   1.2189
B(  4-C , 17-C ) :   1.2187 B(  4-C , 18-C ) :   1.3973 B(  5-N , 19-C ) :   1.4460
B(  5-N , 27-C ) :   1.3852 B(  6-C ,  8-C ) :   1.6928 B(  6-C , 54-H ) :   0.9653
B(  7-N , 30-C ) :   1.1936 B(  7-N , 38-C ) :   1.1949 B(  7-N , 62-H ) :   0.8971
B(  8-C , 55-H ) :   0.9690 B(  9-N , 41-C ) :   1.3958 B(  9-N , 49-C ) :   1.4258
B( 10-C , 56-H ) :   0.9766 B( 10-C , 57-H ) :   0.9831 B( 10-C , 58-H ) :   0.9834
B( 11-N , 20-C ) :   1.1311 B( 11-N , 24-C ) :   1.1140 B( 11-N , 25-C ) :   0.9584
B( 12-C , 14-C ) :   1.3482 B( 12-C , 59-H ) :   0.9749 B( 13-N , 31-C ) :   1.1501
B( 13-N , 35-C ) :   1.1439 B( 13-N , 36-C ) :   0.9474 B( 14-C , 18-C ) :   1.1468
B( 15-N , 42-C ) :   1.1083 B( 15-N , 46-C ) :   1.1193 B( 15-N , 47-C ) :   0.9625
B( 16-C , 51-C ) :   1.1791 B( 17-C , 60-H ) :   0.9651 B( 18-C , 19-C ) :   1.1535
B( 19-C , 21-C ) :   1.2350 B( 20-C , 28-C ) :   1.6244 B( 20-C , 63-H ) :   0.9701
B( 21-C , 26-C ) :   1.6239 B( 21-C , 64-H ) :   0.9711 B( 22-C , 23-C ) :   1.2901
B( 22-C , 28-C ) :   1.2696 B( 22-C , 29-C ) :   1.2204 B( 23-C , 24-C ) :   1.6166
B( 23-C , 65-H ) :   0.9706 B( 24-C , 66-H ) :   0.9694 B( 25-C , 67-H ) :   0.9761
B( 25-C , 68-H ) :   0.9828 B( 25-C , 69-H ) :   0.9822 B( 26-C , 27-C ) :   1.2295
B( 26-C , 70-H ) :   0.9715 B( 27-C , 29-C ) :   1.2189 B( 28-C , 71-H ) :   0.9717
B( 29-C , 30-C ) :   1.2353 B( 30-C , 32-C ) :   1.2886 B( 31-C , 39-C ) :   1.6022
B( 31-C , 72-H ) :   0.9686 B( 32-C , 37-C ) :   1.5706 B( 32-C , 73-H ) :   0.9783
B( 33-C , 34-C ) :   1.2980 B( 33-C , 39-C ) :   1.2911 B( 33-C , 40-C ) :   1.1982
B( 34-C , 35-C ) :   1.5987 B( 34-C , 74-H ) :   0.9699 B( 35-C , 75-H ) :   0.9687
B( 36-C , 76-H ) :   0.9766 B( 36-C , 77-H ) :   0.9817 B( 36-C , 78-H ) :   0.9826
B( 37-C , 38-C ) :   1.2920 B( 37-C , 79-H ) :   0.9770 B( 38-C , 40-C ) :   1.2269
B( 39-C , 80-H ) :   0.9709 B( 40-C , 41-C ) :   1.2400 B( 41-C , 43-C ) :   1.1962
B( 42-C , 50-C ) :   1.6357 B( 42-C , 81-H ) :   0.9697 B( 43-C , 48-C ) :   1.6555
B( 43-C , 82-H ) :   0.9726 B( 44-C , 45-C ) :   1.2636 B( 44-C , 50-C ) :   1.2686
B( 44-C , 51-C ) :   1.2638 B( 45-C , 46-C ) :   1.6365 B( 45-C , 83-H ) :   0.9717
B( 46-C , 84-H ) :   0.9702 B( 47-C , 85-H ) :   0.9762 B( 47-C , 86-H ) :   0.9829
B( 47-C , 87-H ) :   0.9825 B( 48-C , 49-C ) :   1.1990 B( 48-C , 88-H ) :   0.9746
B( 49-C , 51-C ) :   1.2311 B( 50-C , 89-H ) :   0.9710

MP2 TOTAL ENERGY:    -2130.910718726 Eh
FINAL SINGLE POINT ENERGY     -2130.910718725848

DIPOLE MOMENT
-------------
                                X             Y             Z
Electronic contribution:      1.60138      -3.38393      -0.22244
Nuclear contribution   :      0.02515       0.20181       0.22710
                        -----------------------------------------
Total Dipole Moment    :      1.62652      -3.18212       0.00466
                        -----------------------------------------
Magnitude (a.u.)       :      3.57373
Magnitude (Debye)      :      9.08369

Rotational constants in cm-1:     0.001499     0.001477     0.000761
Rotational constants in MHz :    44.950123    44.274194    22.819204

                             ****ORCA TERMINATED NORMALLY****
TOTAL RUN TIME: 0 days 1 hours 26 minutes 49 seconds 274 msec
