                         Program Version 5.0.4 -  RELEASE  -
|  1> ! PAL2
|  2> ! mp2 cc-pvdz TightSCF  NoKeepInts
|  3>
|  4> %scf
|  5>   MaxCore 2000
|  6> end
|  7> %mp2
|  8>   MaxCore 2000
|  9> end
| 10> * xyz 0 1
| 11>    C       -3.67200         6.08100        -1.00700
| 12>    C        1.47400         4.04100         0.05700
| 13>    C       -2.80200         4.09300         0.04900
| 14>    C       -3.53000         4.44600         1.19600
| 15>    C       -4.29900         5.59200         1.20400
| 16>    C       -5.22500         7.59400         0.14100
| 17>    C        0.13200         4.30700         0.06100
| 18>    C       -0.56900         3.05600         0.04700
| 19>    C        1.64900         2.61800         0.02300
| 20>    C       -2.89300         4.94200        -1.06500
| 21>    N       -4.36000         6.39300         0.11400
| 22>    N        0.38800         2.06700         0.02500
| 23>    N       -2.01000         0.39500        -0.07500
| 24>    N       -0.38800        -2.07400        -0.02700
| 25>    N        2.01000        -0.40100         0.06500
| 26>    C       -1.96000         2.86100         0.02400
| 27>    C       -2.62300         1.61500        -0.01800
| 28>    C       -5.57300        -4.32900         1.06600
| 29>    C       -4.07300         1.47100         0.05600
| 30>    C       -4.10600        -2.75600        -0.02600
| 31>    C       -4.99500        -2.75700        -1.11100
| 32>    C       -6.13200        -3.54200        -1.07600
| 33>    C       -7.65100        -5.11300         0.04000
| 34>    C       -4.32400         0.14100         0.03700
| 35>    C       -3.02500        -0.52000        -0.04800
| 36>    C       -4.42200        -3.56600         1.07500
| 37>    N       -6.40700        -4.31300         0.00100
| 38>    C       -2.86700        -1.92200        -0.04000
| 39>    C       -1.65000        -2.62400        -0.02700
| 40>    C        3.56800        -6.14200        -1.04000
| 41>    C       -1.47600        -4.04900        -0.03400
| 42>    C        2.80300        -4.09900        -0.00800
| 43>    C        3.65700        -4.38400         1.06900
| 44>    C        4.42700        -5.53000         1.05900
| 45>    C        5.24500        -7.58800         0.01400
| 46>    C       -0.13400        -4.31500        -0.02200
| 47>    C        0.56800        -3.06400        -0.02700
| 48>    C        2.77500        -5.01200        -1.07400
| 49>    N        4.37600        -6.39100         0.01700
| 50>    C        1.95900        -2.86900        -0.00900
| 51>    C        2.62100        -1.62200         0.00900
| 52>    C        5.54300         4.33900        -1.13000
| 53>    C        4.07000        -1.47900        -0.09400
| 54>    C        4.10400         2.75100        -0.02100
| 55>    C        5.02700         2.72900         1.03600
| 56>    C        6.16600         3.50900         0.97800
| 57>    C        7.61900         5.15300        -0.11500
| 58>    C        4.32100        -0.14800        -0.09200
| 59>    C        3.02500         0.51400         0.01500
| 60>    C        4.38700         3.58200        -1.11500
| 61>    C        2.86600         1.91600         0.01300
| 62>    N        6.41300         4.29600        -0.09500
| 63>    H       -3.76100         6.77000        -1.83800
| 64>    H        2.27400         4.76600         0.08100
| 65>    H       -3.50800         3.82600         2.08400
| 66>    H       -4.88400         5.90000         2.06100
| 67>    H       -6.24000         7.30700        -0.14200
| 68>    H       -5.21800         8.00800         1.14900
| 69>    H       -4.83100         8.32400        -0.56500
| 70>    H       -0.33200         5.28200         0.06900
| 71>    H       -2.34300         4.73100        -1.97600
| 72>    H        0.18200         1.07200         0.00500
| 73>    H       -0.18300        -1.08000        -0.02100
| 74>    H       -5.86400        -4.96200         1.89500
| 75>    H       -4.79400         2.27200         0.13900
| 76>    H       -4.80000        -2.16000        -1.99400
| 77>    H       -6.84100        -3.58200        -1.89300
| 78>    H       -8.42800        -4.53600         0.54600
| 79>    H       -7.95600        -5.33700        -0.98100
| 80>    H       -7.45600        -6.03700         0.58400
| 81>    H       -5.28700        -0.34400         0.10000
| 82>    H       -3.78000        -3.60100         1.94700
| 83>    H        3.58700        -6.86800        -1.84300
| 84>    H       -2.27600        -4.77400        -0.05000
| 85>    H        3.71400        -3.72400         1.92600
| 86>    H        5.09200        -5.79500         1.87100
| 87>    H        6.20500        -7.32900        -0.43900
| 88>    H        5.39300        -7.91700         1.04200
| 89>    H        4.75900        -8.37300        -0.56400
| 90>    H        0.32900        -5.29000        -0.00800
| 91>    H        2.14600        -4.84200        -1.94000
| 92>    H        5.80800         4.98600        -1.95600
| 93>    H        4.78800        -2.28100        -0.18500
| 94>    H        4.86000         2.11400         1.91200
| 95>    H        6.90100         3.53100         1.77200
| 96>    H        7.38300         6.10900         0.35600
| 97>    H        8.41400         4.65200         0.43500
| 98>    H        7.92100         5.31000        -1.15000
| 99>    H        5.28300         0.33600        -0.17900
|100>    H        3.72000         3.63200        -1.96700
|101> *
|102>
|103>                          ****END OF INPUT****

CARTESIAN COORDINATES (ANGSTROEM)
---------------------------------
  C     -3.672000    6.081000   -1.007000
  C      1.474000    4.041000    0.057000
  C     -2.802000    4.093000    0.049000
  C     -3.530000    4.446000    1.196000
  C     -4.299000    5.592000    1.204000
  C     -5.225000    7.594000    0.141000
  C      0.132000    4.307000    0.061000
  C     -0.569000    3.056000    0.047000
  C      1.649000    2.618000    0.023000
  C     -2.893000    4.942000   -1.065000
  N     -4.360000    6.393000    0.114000
  N      0.388000    2.067000    0.025000
  N     -2.010000    0.395000   -0.075000
  N     -0.388000   -2.074000   -0.027000
  N      2.010000   -0.401000    0.065000
  C     -1.960000    2.861000    0.024000
  C     -2.623000    1.615000   -0.018000
  C     -5.573000   -4.329000    1.066000
  C     -4.073000    1.471000    0.056000
  C     -4.106000   -2.756000   -0.026000
  C     -4.995000   -2.757000   -1.111000
  C     -6.132000   -3.542000   -1.076000
  C     -7.651000   -5.113000    0.040000
  C     -4.324000    0.141000    0.037000
  C     -3.025000   -0.520000   -0.048000
  C     -4.422000   -3.566000    1.075000
  N     -6.407000   -4.313000    0.001000
  C     -2.867000   -1.922000   -0.040000
  C     -1.650000   -2.624000   -0.027000
  C      3.568000   -6.142000   -1.040000
  C     -1.476000   -4.049000   -0.034000
  C      2.803000   -4.099000   -0.008000
  C      3.657000   -4.384000    1.069000
  C      4.427000   -5.530000    1.059000
  C      5.245000   -7.588000    0.014000
  C     -0.134000   -4.315000   -0.022000
  C      0.568000   -3.064000   -0.027000
  C      2.775000   -5.012000   -1.074000
  N      4.376000   -6.391000    0.017000
  C      1.959000   -2.869000   -0.009000
  C      2.621000   -1.622000    0.009000
  C      5.543000    4.339000   -1.130000
  C      4.070000   -1.479000   -0.094000
  C      4.104000    2.751000   -0.021000
  C      5.027000    2.729000    1.036000
  C      6.166000    3.509000    0.978000
  C      7.619000    5.153000   -0.115000
  C      4.321000   -0.148000   -0.092000
  C      3.025000    0.514000    0.015000
  C      4.387000    3.582000   -1.115000
  C      2.866000    1.916000    0.013000
  N      6.413000    4.296000   -0.095000
  H     -3.761000    6.770000   -1.838000
  H      2.274000    4.766000    0.081000
  H     -3.508000    3.826000    2.084000
  H     -4.884000    5.900000    2.061000
  H     -6.240000    7.307000   -0.142000
  H     -5.218000    8.008000    1.149000
  H     -4.831000    8.324000   -0.565000
  H     -0.332000    5.282000    0.069000
  H     -2.343000    4.731000   -1.976000
  H      0.182000    1.072000    0.005000
  H     -0.183000   -1.080000   -0.021000
  H     -5.864000   -4.962000    1.895000
  H     -4.794000    2.272000    0.139000
  H     -4.800000   -2.160000   -1.994000
  H     -6.841000   -3.582000   -1.893000
  H     -8.428000   -4.536000    0.546000
  H     -7.956000   -5.337000   -0.981000
  H     -7.456000   -6.037000    0.584000
  H     -5.287000   -0.344000    0.100000
  H     -3.780000   -3.601000    1.947000
  H      3.587000   -6.868000   -1.843000
  H     -2.276000   -4.774000   -0.050000
  H      3.714000   -3.724000    1.926000
  H      5.092000   -5.795000    1.871000
  H      6.205000   -7.329000   -0.439000
  H      5.393000   -7.917000    1.042000
  H      4.759000   -8.373000   -0.564000
  H      0.329000   -5.290000   -0.008000
  H      2.146000   -4.842000   -1.940000
  H      5.808000    4.986000   -1.956000
  H      4.788000   -2.281000   -0.185000
  H      4.860000    2.114000    1.912000
  H      6.901000    3.531000    1.772000
  H      7.383000    6.109000    0.356000
  H      8.414000    4.652000    0.435000
  H      7.921000    5.310000   -1.150000
  H      5.283000    0.336000   -0.179000
  H      3.720000    3.632000   -1.967000

 Total Charge           Charge          ....    0
 Multiplicity           Mult            ....    1
 Number of Electrons    NEL             ....  358
 Basis Dimension        Dim             ....  918

ORBITAL ENERGIES
----------------

  NO   OCC          E(Eh)            E(eV)
   0   2.0000     -15.670214      -426.4082
   1   2.0000     -15.636128      -425.4807
   2   2.0000     -15.625892      -425.2021
   3   2.0000     -15.604705      -424.6256
   4   2.0000     -15.518484      -422.2794
   5   2.0000     -15.510927      -422.0738
   6   2.0000     -15.447157      -420.3385
   7   2.0000     -15.435153      -420.0119
   8   2.0000     -11.321293      -308.0681
   9   2.0000     -11.320042      -308.0340
  10   2.0000     -11.318439      -307.9904
  11   2.0000     -11.300741      -307.5088
  12   2.0000     -11.294111      -307.3284
  13   2.0000     -11.294107      -307.3283
  14   2.0000     -11.289390      -307.1999
  15   2.0000     -11.285463      -307.0931
  16   2.0000     -11.281058      -306.9732
  17   2.0000     -11.280271      -306.9518
  18   2.0000     -11.270338      -306.6815
  19   2.0000     -11.266731      -306.5833
  20   2.0000     -11.263966      -306.5081
  21   2.0000     -11.255553      -306.2792
  22   2.0000     -11.255098      -306.2668
  23   2.0000     -11.239452      -305.8410
  24   2.0000     -11.231860      -305.6344
  25   2.0000     -11.230997      -305.6110
  26   2.0000     -11.230072      -305.5858
  27   2.0000     -11.224355      -305.4302
  28   2.0000     -11.224105      -305.4234
  29   2.0000     -11.210772      -305.0606
  30   2.0000     -11.209000      -305.0124
  31   2.0000     -11.208186      -304.9902
  32   2.0000     -11.202380      -304.8323
  33   2.0000     -11.201966      -304.8210
  34   2.0000     -11.188957      -304.4670
  35   2.0000     -11.188575      -304.4566
  36   2.0000     -11.182338      -304.2869
  37   2.0000     -11.181784      -304.2718
  38   2.0000     -11.180553      -304.2383
  39   2.0000     -11.167471      -303.8823
  40   2.0000     -11.164851      -303.8110
  41   2.0000     -11.164496      -303.8014
  42   2.0000     -11.158898      -303.6490
  43   2.0000     -11.157880      -303.6213
  44   2.0000     -11.157742      -303.6176
  45   2.0000     -11.155438      -303.5549
  46   2.0000     -11.153151      -303.4927
  47   2.0000     -11.151849      -303.4572
  48   2.0000     -11.148648      -303.3701
  49   2.0000     -11.143321      -303.2252
  50   2.0000     -11.129581      -302.8513
  51   2.0000     -11.126562      -302.7691
  52   2.0000      -1.351327       -36.7715
  53   2.0000      -1.323062       -36.0024
  54   2.0000      -1.313952       -35.7544
  55   2.0000      -1.296114       -35.2691
  56   2.0000      -1.218681       -33.1620
  57   2.0000      -1.207593       -32.8603
  58   2.0000      -1.167517       -31.7697
  59   2.0000      -1.147795       -31.2331
  60   2.0000      -1.134692       -30.8765
  61   2.0000      -1.110980       -30.2313
  62   2.0000      -1.103277       -30.0217
  63   2.0000      -1.087284       -29.5865
  64   2.0000      -1.073369       -29.2079
  65   2.0000      -1.046951       -28.4890
  66   2.0000      -1.038575       -28.2611
  67   2.0000      -1.033703       -28.1285
  68   2.0000      -1.021984       -27.8096
  69   2.0000      -1.012994       -27.5650
  70   2.0000      -1.006415       -27.3859
  71   2.0000      -0.991080       -26.9687
  72   2.0000      -0.983749       -26.7692
  73   2.0000      -0.975440       -26.5431
  74   2.0000      -0.970327       -26.4039
  75   2.0000      -0.959489       -26.1090
  76   2.0000      -0.950069       -25.8527
  77   2.0000      -0.947095       -25.7718
  78   2.0000      -0.930126       -25.3100
  79   2.0000      -0.920356       -25.0442
  80   2.0000      -0.900858       -24.5136
  81   2.0000      -0.888531       -24.1782
  82   2.0000      -0.874378       -23.7930
  83   2.0000      -0.866520       -23.5792
  84   2.0000      -0.865306       -23.5462
  85   2.0000      -0.853443       -23.2234
  86   2.0000      -0.847565       -23.0634
  87   2.0000      -0.834280       -22.7019
  88   2.0000      -0.822320       -22.3765
  89   2.0000      -0.796669       -21.6785
  90   2.0000      -0.794126       -21.6093
  91   2.0000      -0.746280       -20.3073
  92   2.0000      -0.734011       -19.9734
  93   2.0000      -0.727001       -19.7827
  94   2.0000      -0.721665       -19.6375
  95   2.0000      -0.716744       -19.5036
  96   2.0000      -0.710281       -19.3277
  97   2.0000      -0.704892       -19.1811
  98   2.0000      -0.701788       -19.0966
  99   2.0000      -0.694160       -18.8891
 100   2.0000      -0.693036       -18.8585
 101   2.0000      -0.681952       -18.5569
 102   2.0000      -0.677957       -18.4482
 103   2.0000      -0.677104       -18.4249
 104   2.0000      -0.672572       -18.3016
 105   2.0000      -0.669075       -18.2065
 106   2.0000      -0.665155       -18.0998
 107   2.0000      -0.657832       -17.9005
 108   2.0000      -0.654889       -17.8204
 109   2.0000      -0.654030       -17.7971
 110   2.0000      -0.649097       -17.6628
 111   2.0000      -0.647439       -17.6177
 112   2.0000      -0.641398       -17.4533
 113   2.0000      -0.638079       -17.3630
 114   2.0000      -0.634921       -17.2771
 115   2.0000      -0.631793       -17.1920
 116   2.0000      -0.622389       -16.9361
 117   2.0000      -0.615531       -16.7495
 118   2.0000      -0.613393       -16.6913
 119   2.0000      -0.609500       -16.5853
 120   2.0000      -0.606247       -16.4968
 121   2.0000      -0.604269       -16.4430
 122   2.0000      -0.597276       -16.2527
 123   2.0000      -0.590890       -16.0789
 124   2.0000      -0.590443       -16.0668
 125   2.0000      -0.582760       -15.8577
 126   2.0000      -0.576454       -15.6861
 127   2.0000      -0.573142       -15.5960
 128   2.0000      -0.565078       -15.3766
 129   2.0000      -0.562175       -15.2976
 130   2.0000      -0.557504       -15.1705
 131   2.0000      -0.548023       -14.9125
 132   2.0000      -0.538962       -14.6659
 133   2.0000      -0.538517       -14.6538
 134   2.0000      -0.534538       -14.5455
 135   2.0000      -0.532224       -14.4825
 136   2.0000      -0.522605       -14.2208
 137   2.0000      -0.519881       -14.1467
 138   2.0000      -0.515592       -14.0300
 139   2.0000      -0.513160       -13.9638
 140   2.0000      -0.510556       -13.8929
 141   2.0000      -0.507344       -13.8055
 142   2.0000      -0.503458       -13.6998
 143   2.0000      -0.499493       -13.5919
 144   2.0000      -0.497048       -13.5254
 145   2.0000      -0.495817       -13.4919
 146   2.0000      -0.493394       -13.4259
 147   2.0000      -0.488113       -13.2822
 148   2.0000      -0.484052       -13.1717
 149   2.0000      -0.465625       -12.6703
 150   2.0000      -0.462036       -12.5726
 151   2.0000      -0.454439       -12.3659
 152   2.0000      -0.448622       -12.2076
 153   2.0000      -0.442746       -12.0477
 154   2.0000      -0.440523       -11.9872
 155   2.0000      -0.439557       -11.9610
 156   2.0000      -0.429629       -11.6908
 157   2.0000      -0.423192       -11.5157
 158   2.0000      -0.398298       -10.8382
 159   2.0000      -0.382454       -10.4071
 160   2.0000      -0.379935       -10.3386
 161   2.0000      -0.374106       -10.1799
 162   2.0000      -0.363760        -9.8984
 163   2.0000      -0.357714        -9.7339
 164   2.0000      -0.350577        -9.5397
 165   2.0000      -0.338801        -9.2192
 166   2.0000      -0.336519        -9.1572
 167   2.0000      -0.335752        -9.1363
 168   2.0000      -0.321106        -8.7377
 169   2.0000      -0.299531        -8.1507
 170   2.0000      -0.296999        -8.0818
 171   2.0000      -0.286167        -7.7870
 172   2.0000      -0.283511        -7.7147
 173   2.0000      -0.260244        -7.0816
 174   2.0000      -0.240000        -6.5307
 175   2.0000      -0.185719        -5.0537
 176   2.0000      -0.175562        -4.7773
 177   2.0000      -0.063025        -1.7150
 178   2.0000      -0.051802        -1.4096
 179   0.0000       0.033464         0.9106
 180   0.0000       0.064910         1.7663
 181   0.0000       0.092312         2.5119
 182   0.0000       0.096024         2.6129
 183   0.0000       0.113907         3.0996

MULLIKEN ATOMIC CHARGES
-----------------------
   0 C :    0.221921
   1 N :   -0.429117
   2 C :   -0.065935
   3 N :   -0.340274
   4 C :   -0.073730
   5 N :   -0.565087
   6 C :   -0.039938
   7 N :   -0.337012
   8 C :    0.218219
   9 N :   -0.564876
  10 C :    0.109701
  11 N :   -0.438196
  12 C :   -0.063172
  13 N :   -0.446271
  14 C :    0.231851
  15 N :   -0.440750
  16 C :    0.245367
  17 C :   -0.046843
  18 C :   -0.196669
  19 C :    0.236930
  20 C :    0.198580
  21 C :   -0.074847
  22 C :   -0.087074
  23 C :   -0.058484
  24 C :    0.213336
  25 C :    0.114115
  26 C :   -0.069657
  27 C :    0.236879
  28 C :   -0.045243
  29 C :   -0.192918
  30 C :    0.227675
  31 C :    0.197032
  32 C :   -0.066582
  33 C :   -0.093763
  34 C :   -0.051083
  35 C :    0.190081
  36 C :    0.118045
  37 C :   -0.068865
  38 C :    0.240273
  39 C :   -0.062988
  40 C :   -0.198023
  41 C :    0.219406
  42 C :    0.209126
  43 C :   -0.075071
  44 C :   -0.089478
  45 C :   -0.044482
  46 C :    0.193914
  47 C :    0.115943
  48 C :   -0.078344
  49 C :    0.216467
  50 C :   -0.060504
  51 C :   -0.188544
  52 H :    0.068497
  53 H :   -0.010675
  54 H :    0.056971
  55 H :    0.067232
  56 H :    0.072076
  57 H :    0.066756
  58 H :    0.064936
  59 H :   -0.021326
  60 H :    0.055688
  61 H :    0.175293
  62 H :    0.169976
  63 H :    0.055190
  64 H :   -0.027411
  65 H :    0.044675
  66 H :    0.056979
  67 H :    0.060890
  68 H :    0.057483
  69 H :    0.059387
  70 H :   -0.019339
  71 H :    0.047843
  72 H :    0.045589
  73 H :   -0.018068
  74 H :    0.036763
  75 H :    0.044526
  76 H :    0.052903
  77 H :    0.051224
  78 H :    0.050512
  79 H :   -0.012890
  80 H :    0.036927
  81 H :    0.052382
  82 H :   -0.022591
  83 H :    0.043710
  84 H :    0.051855
  85 H :    0.057113
  86 H :    0.056817
  87 H :    0.055837
  88 H :   -0.026586
  89 H :    0.041813
Sum of atomic charges:   -0.0000000

LOEWDIN ATOMIC CHARGES
----------------------
   0 C :    0.017701
   1 N :    0.163611
   2 C :   -0.100231
   3 N :    0.175112
   4 C :    0.074696
   5 N :   -0.144058
   6 C :   -0.013481
   7 N :    0.177904
   8 C :    0.015818
   9 N :   -0.139014
  10 C :    0.034788
  11 N :    0.143010
  12 C :   -0.099447
  13 N :    0.125550
  14 C :   -0.053659
  15 N :    0.137601
  16 C :   -0.031022
  17 C :   -0.017268
  18 C :   -0.113867
  19 C :   -0.088908
  20 C :   -0.008154
  21 C :   -0.101613
  22 C :    0.040958
  23 C :   -0.027022
  24 C :    0.005103
  25 C :    0.030060
  26 C :   -0.098010
  27 C :   -0.072826
  28 C :   -0.017321
  29 C :   -0.115158
  30 C :   -0.056257
  31 C :   -0.015161
  32 C :   -0.102270
  33 C :    0.013591
  34 C :   -0.024246
  35 C :   -0.021257
  36 C :    0.025933
  37 C :   -0.106352
  38 C :   -0.035886
  39 C :   -0.030096
  40 C :   -0.111685
  41 C :   -0.091919
  42 C :   -0.000931
  43 C :   -0.109039
  44 C :    0.032473
  45 C :   -0.017432
  46 C :   -0.014047
  47 C :    0.028942
  48 C :   -0.109338
  49 C :   -0.105007
  50 C :   -0.028490
  51 C :   -0.107883
  52 H :    0.035982
  53 H :    0.005937
  54 H :    0.050124
  55 H :    0.035608
  56 H :    0.033180
  57 H :    0.035281
  58 H :    0.035061
  59 H :    0.001671
  60 H :    0.049644
  61 H :    0.061788
  62 H :    0.058935
  63 H :    0.030103
  64 H :   -0.003399
  65 H :    0.043865
  66 H :    0.030599
  67 H :    0.027649
  68 H :    0.031720
  69 H :    0.031533
  70 H :    0.000338
  71 H :    0.045687
  72 H :    0.025720
  73 H :    0.002303
  74 H :    0.040740
  75 H :    0.024938
  76 H :    0.023444
  77 H :    0.028314
  78 H :    0.028018
  79 H :    0.004925
  80 H :    0.040171
  81 H :    0.028695
  82 H :   -0.001281
  83 H :    0.044220
  84 H :    0.028207
  85 H :    0.025650
  86 H :    0.030621
  87 H :    0.030739
  88 H :   -0.003387
  89 H :    0.042161

  Mayer bond orders larger than 0.100000
B(  0-C ,  1-N ) :   1.1568 B(  0-C , 17-C ) :   1.5816 B(  0-C , 52-H ) :   0.9684
B(  1-N ,  8-C ) :   1.1496 B(  1-N , 10-C ) :   0.9447 B(  2-C , 12-C ) :   1.5557
B(  2-C , 16-C ) :   1.3012 B(  2-C , 53-H ) :   0.9785 B(  3-N , 14-C ) :   1.1883
B(  3-N , 16-C ) :   1.2005 B(  3-N , 61-H ) :   0.8966 B(  4-C ,  6-C ) :   1.3102
B(  4-C , 17-C ) :   1.3113 B(  4-C , 18-C ) :   1.1588 B(  5-N , 19-C ) :   1.3885
B(  5-N , 27-C ) :   1.4297 B(  6-C ,  8-C ) :   1.5830 B(  6-C , 54-H ) :   0.9710
B(  7-N , 30-C ) :   1.1900 B(  7-N , 38-C ) :   1.2085 B(  7-N , 62-H ) :   0.9000
B(  8-C , 55-H ) :   0.9690 B(  9-N , 41-C ) :   1.4242 B(  9-N , 49-C ) :   1.4014
B( 10-C , 56-H ) :   0.9764 B( 10-C , 57-H ) :   0.9812 B( 10-C , 58-H ) :   0.9828
B( 11-N , 20-C ) :   1.1127 B( 11-N , 24-C ) :   1.1314 B( 11-N , 25-C ) :   0.9592
B( 12-C , 14-C ) :   1.3010 B( 12-C , 59-H ) :   0.9774 B( 13-N , 31-C ) :   1.0998
B( 13-N , 35-C ) :   1.0924 B( 13-N , 36-C ) :   0.9721 B( 14-C , 18-C ) :   1.2277
B( 15-N , 42-C ) :   1.1231 B( 15-N , 46-C ) :   1.1030 B( 15-N , 47-C ) :   0.9635
B( 16-C , 51-C ) :   1.2199 B( 17-C , 60-H ) :   0.9715 B( 18-C , 19-C ) :   1.2658
B( 19-C , 21-C ) :   1.1856 B( 20-C , 28-C ) :   1.6241 B( 20-C , 63-H ) :   0.9705
B( 21-C , 26-C ) :   1.6626 B( 21-C , 64-H ) :   0.9723 B( 22-C , 23-C ) :   1.2709
B( 22-C , 28-C ) :   1.2789 B( 22-C , 29-C ) :   1.2440 B( 23-C , 24-C ) :   1.6248
B( 23-C , 65-H ) :   0.9716 B( 24-C , 66-H ) :   0.9690 B( 25-C , 67-H ) :   0.9763
B( 25-C , 68-H ) :   0.9831 B( 25-C , 69-H ) :   0.9820 B( 26-C , 27-C ) :   1.1905
B( 26-C , 70-H ) :   0.9745 B( 27-C , 29-C ) :   1.2363 B( 28-C , 71-H ) :   0.9711
B( 29-C , 30-C ) :   1.1891 B( 30-C , 32-C ) :   1.3361 B( 31-C , 39-C ) :   1.6598
B( 31-C , 72-H ) :   0.9704 B( 32-C , 37-C ) :   1.5223 B( 32-C , 73-H ) :   0.9773
B( 33-C , 34-C ) :   1.2514 B( 33-C , 39-C ) :   1.2449 B( 33-C , 40-C ) :   1.3073
B( 34-C , 35-C ) :   1.6578 B( 34-C , 74-H ) :   0.9708 B( 35-C , 75-H ) :   0.9704
B( 36-C , 76-H ) :   0.9759 B( 36-C , 77-H ) :   0.9824 B( 36-C , 78-H ) :   0.9835
B( 37-C , 38-C ) :   1.3345 B( 37-C , 79-H ) :   0.9785 B( 38-C , 40-C ) :   1.1894
B( 39-C , 80-H ) :   0.9719 B( 40-C , 41-C ) :   1.1931 B( 41-C , 43-C ) :   1.2337
B( 42-C , 50-C ) :   1.6359 B( 42-C , 81-H ) :   0.9696 B( 43-C , 48-C ) :   1.6177
B( 43-C , 82-H ) :   0.9748 B( 44-C , 45-C ) :   1.2781 B( 44-C , 50-C ) :   1.2593
B( 44-C , 51-C ) :   1.2484 B( 45-C , 46-C ) :   1.6305 B( 45-C , 83-H ) :   0.9706
B( 46-C , 84-H ) :   0.9705 B( 47-C , 85-H ) :   0.9761 B( 47-C , 86-H ) :   0.9826
B( 47-C , 87-H ) :   0.9828 B( 48-C , 49-C ) :   1.2302 B( 48-C , 88-H ) :   0.9731
B( 49-C , 51-C ) :   1.2088 B( 50-C , 89-H ) :   0.9718

MP2 TOTAL ENERGY:    -2130.899192699 Eh
FINAL SINGLE POINT ENERGY     -2130.899192699443

DIPOLE MOMENT
-------------
                                X             Y             Z
Electronic contribution:     -2.37909       2.35012      -0.14724
Nuclear contribution   :     -0.03960       0.15534       0.18802
                        -----------------------------------------
Total Dipole Moment    :     -2.41869       2.50546       0.04078
                        -----------------------------------------
Magnitude (a.u.)       :      3.48268
Magnitude (Debye)      :      8.85226

Rotational constants in cm-1:     0.001498     0.001473     0.000762
Rotational constants in MHz :    44.920172    44.155972    22.858509

                             ****ORCA TERMINATED NORMALLY****
TOTAL RUN TIME: 0 days 1 hours 30 minutes 48 seconds 959 msec
