                         Program Version 5.0.4 -  RELEASE  -
|  1> ! PAL2
|  2> ! mp2 cc-pvdz TightSCF  NoKeepInts
|  3>
|  4> %scf
|  5>   MaxCore 2000
|  6> end
|  7> %mp2
|  8>   MaxCore 2000
|  9> end
| 10> * xyz 0 1
| 11>    C       -4.78200         5.31400        -0.59400
| 12>    C        1.47400         4.04100         0.05700
| 13>    C       -2.80200         4.09300         0.04900
| 14>    C       -2.38700         5.23600         0.74900
| 15>    C       -3.17600         6.36900         0.75800
| 16>    C       -5.19300         7.61500         0.15000
| 17>    C        0.13200         4.30700         0.06100
| 18>    C       -0.56900         3.05600         0.04700
| 19>    C        1.64900         2.61800         0.02300
| 20>    C       -4.03000         4.15500        -0.62700
| 21>    N       -4.35200         6.39900         0.09000
| 22>    N        0.38800         2.06700         0.02500
| 23>    N       -2.01000         0.39500        -0.07500
| 24>    N       -0.38800        -2.07400        -0.02700
| 25>    N        2.01000        -0.40100         0.06500
| 26>    C       -1.96000         2.86100         0.02400
| 27>    C       -2.62300         1.61500        -0.01800
| 28>    C       -5.57300        -4.32900         1.06600
| 29>    C       -4.07300         1.47100         0.05600
| 30>    C       -4.10600        -2.75600        -0.02600
| 31>    C       -4.99500        -2.75700        -1.11100
| 32>    C       -6.13200        -3.54200        -1.07600
| 33>    C       -7.65100        -5.11300         0.04000
| 34>    C       -4.32400         0.14100         0.03700
| 35>    C       -3.02500        -0.52000        -0.04800
| 36>    C       -4.42200        -3.56600         1.07500
| 37>    N       -6.40700        -4.31300         0.00100
| 38>    C       -2.86700        -1.92200        -0.04000
| 39>    C       -1.65000        -2.62400        -0.02700
| 40>    C        3.56800        -6.14200        -1.04000
| 41>    C       -1.47600        -4.04900        -0.03400
| 42>    C        2.80300        -4.09900        -0.00800
| 43>    C        3.65700        -4.38400         1.06900
| 44>    C        4.42700        -5.53000         1.05900
| 45>    C        5.24500        -7.58800         0.01400
| 46>    C       -0.13400        -4.31500        -0.02200
| 47>    C        0.56800        -3.06400        -0.02700
| 48>    C        2.77500        -5.01200        -1.07400
| 49>    N        4.37600        -6.39100         0.01700
| 50>    C        1.95900        -2.86900        -0.00900
| 51>    C        2.62100        -1.62200         0.00900
| 52>    C        5.54300         4.33900        -1.13000
| 53>    C        4.07000        -1.47900        -0.09400
| 54>    C        4.10400         2.75100        -0.02100
| 55>    C        5.02700         2.72900         1.03600
| 56>    C        6.16600         3.50900         0.97800
| 57>    C        7.61900         5.15300        -0.11500
| 58>    C        4.32100        -0.14800        -0.09200
| 59>    C        3.02500         0.51400         0.01500
| 60>    C        4.38700         3.58200        -1.11500
| 61>    C        2.86600         1.91600         0.01300
| 62>    N        6.41300         4.29600        -0.09500
| 63>    H       -5.72900         5.41100        -1.11100
| 64>    H        2.27400         4.76600         0.08100
| 65>    H       -1.45300         5.24700         1.29900
| 66>    H       -2.90200         7.27100         1.29000
| 67>    H       -5.82000         7.57000         1.04300
| 68>    H       -4.54300         8.48900         0.19200
| 69>    H       -5.81500         7.65500        -0.74400
| 70>    H       -0.33200         5.28200         0.06900
| 71>    H       -4.39900         3.31100        -1.19800
| 72>    H        0.18200         1.07200         0.00500
| 73>    H       -0.18300        -1.08000        -0.02100
| 74>    H       -5.86400        -4.96200         1.89500
| 75>    H       -4.79400         2.27200         0.13900
| 76>    H       -4.80000        -2.16000        -1.99400
| 77>    H       -6.84100        -3.58200        -1.89300
| 78>    H       -8.42800        -4.53600         0.54600
| 79>    H       -7.95600        -5.33700        -0.98100
| 80>    H       -7.45600        -6.03700         0.58400
| 81>    H       -5.28700        -0.34400         0.10000
| 82>    H       -3.78000        -3.60100         1.94700
| 83>    H        3.58700        -6.86800        -1.84300
| 84>    H       -2.27600        -4.77400        -0.05000
| 85>    H        3.71400        -3.72400         1.92600
| 86>    H        5.09200        -5.79500         1.87100
| 87>    H        6.20500        -7.32900        -0.43900
| 88>    H        5.39300        -7.91700         1.04200
| 89>    H        4.75900        -8.37300        -0.56400
| 90>    H        0.32900        -5.29000        -0.00800
| 91>    H        2.14600        -4.84200        -1.94000
| 92>    H        5.80800         4.98600        -1.95600
| 93>    H        4.78800        -2.28100        -0.18500
| 94>    H        4.86000         2.11400         1.91200
| 95>    H        6.90100         3.53100         1.77200
| 96>    H        7.38300         6.10900         0.35600
| 97>    H        8.41400         4.65200         0.43500
| 98>    H        7.92100         5.31000        -1.15000
| 99>    H        5.28300         0.33600        -0.17900
|100>    H        3.72000         3.63200        -1.96700
|101> *
|102>
|103>                          ****END OF INPUT****

CARTESIAN COORDINATES (ANGSTROEM)
---------------------------------
  C     -4.782000    5.314000   -0.594000
  C      1.474000    4.041000    0.057000
  C     -2.802000    4.093000    0.049000
  C     -2.387000    5.236000    0.749000
  C     -3.176000    6.369000    0.758000
  C     -5.193000    7.615000    0.150000
  C      0.132000    4.307000    0.061000
  C     -0.569000    3.056000    0.047000
  C      1.649000    2.618000    0.023000
  C     -4.030000    4.155000   -0.627000
  N     -4.352000    6.399000    0.090000
  N      0.388000    2.067000    0.025000
  N     -2.010000    0.395000   -0.075000
  N     -0.388000   -2.074000   -0.027000
  N      2.010000   -0.401000    0.065000
  C     -1.960000    2.861000    0.024000
  C     -2.623000    1.615000   -0.018000
  C     -5.573000   -4.329000    1.066000
  C     -4.073000    1.471000    0.056000
  C     -4.106000   -2.756000   -0.026000
  C     -4.995000   -2.757000   -1.111000
  C     -6.132000   -3.542000   -1.076000
  C     -7.651000   -5.113000    0.040000
  C     -4.324000    0.141000    0.037000
  C     -3.025000   -0.520000   -0.048000
  C     -4.422000   -3.566000    1.075000
  N     -6.407000   -4.313000    0.001000
  C     -2.867000   -1.922000   -0.040000
  C     -1.650000   -2.624000   -0.027000
  C      3.568000   -6.142000   -1.040000
  C     -1.476000   -4.049000   -0.034000
  C      2.803000   -4.099000   -0.008000
  C      3.657000   -4.384000    1.069000
  C      4.427000   -5.530000    1.059000
  C      5.245000   -7.588000    0.014000
  C     -0.134000   -4.315000   -0.022000
  C      0.568000   -3.064000   -0.027000
  C      2.775000   -5.012000   -1.074000
  N      4.376000   -6.391000    0.017000
  C      1.959000   -2.869000   -0.009000
  C      2.621000   -1.622000    0.009000
  C      5.543000    4.339000   -1.130000
  C      4.070000   -1.479000   -0.094000
  C      4.104000    2.751000   -0.021000
  C      5.027000    2.729000    1.036000
  C      6.166000    3.509000    0.978000
  C      7.619000    5.153000   -0.115000
  C      4.321000   -0.148000   -0.092000
  C      3.025000    0.514000    0.015000
  C      4.387000    3.582000   -1.115000
  C      2.866000    1.916000    0.013000
  N      6.413000    4.296000   -0.095000
  H     -5.729000    5.411000   -1.111000
  H      2.274000    4.766000    0.081000
  H     -1.453000    5.247000    1.299000
  H     -2.902000    7.271000    1.290000
  H     -5.820000    7.570000    1.043000
  H     -4.543000    8.489000    0.192000
  H     -5.815000    7.655000   -0.744000
  H     -0.332000    5.282000    0.069000
  H     -4.399000    3.311000   -1.198000
  H      0.182000    1.072000    0.005000
  H     -0.183000   -1.080000   -0.021000
  H     -5.864000   -4.962000    1.895000
  H     -4.794000    2.272000    0.139000
  H     -4.800000   -2.160000   -1.994000
  H     -6.841000   -3.582000   -1.893000
  H     -8.428000   -4.536000    0.546000
  H     -7.956000   -5.337000   -0.981000
  H     -7.456000   -6.037000    0.584000
  H     -5.287000   -0.344000    0.100000
  H     -3.780000   -3.601000    1.947000
  H      3.587000   -6.868000   -1.843000
  H     -2.276000   -4.774000   -0.050000
  H      3.714000   -3.724000    1.926000
  H      5.092000   -5.795000    1.871000
  H      6.205000   -7.329000   -0.439000
  H      5.393000   -7.917000    1.042000
  H      4.759000   -8.373000   -0.564000
  H      0.329000   -5.290000   -0.008000
  H      2.146000   -4.842000   -1.940000
  H      5.808000    4.986000   -1.956000
  H      4.788000   -2.281000   -0.185000
  H      4.860000    2.114000    1.912000
  H      6.901000    3.531000    1.772000
  H      7.383000    6.109000    0.356000
  H      8.414000    4.652000    0.435000
  H      7.921000    5.310000   -1.150000
  H      5.283000    0.336000   -0.179000
  H      3.720000    3.632000   -1.967000

 Total Charge           Charge          ....    0
 Multiplicity           Mult            ....    1
 Number of Electrons    NEL             ....  358
 Basis Dimension        Dim             ....  918

ORBITAL ENERGIES
----------------

  NO   OCC          E(Eh)            E(eV)
   0   2.0000     -15.670536      -426.4170
   1   2.0000     -15.637681      -425.5229
   2   2.0000     -15.628616      -425.2763
   3   2.0000     -15.591996      -424.2798
   4   2.0000     -15.524869      -422.4532
   5   2.0000     -15.515885      -422.2087
   6   2.0000     -15.451278      -420.4506
   7   2.0000     -15.442982      -420.2249
   8   2.0000     -11.322223      -308.0934
   9   2.0000     -11.322200      -308.0927
  10   2.0000     -11.320051      -308.0342
  11   2.0000     -11.301629      -307.5330
  12   2.0000     -11.296280      -307.3874
  13   2.0000     -11.295585      -307.3685
  14   2.0000     -11.290427      -307.2281
  15   2.0000     -11.287927      -307.1601
  16   2.0000     -11.284187      -307.0583
  17   2.0000     -11.274084      -306.7834
  18   2.0000     -11.273376      -306.7641
  19   2.0000     -11.257156      -306.3228
  20   2.0000     -11.256900      -306.3158
  21   2.0000     -11.256409      -306.3024
  22   2.0000     -11.255963      -306.2903
  23   2.0000     -11.241314      -305.8917
  24   2.0000     -11.233951      -305.6913
  25   2.0000     -11.233411      -305.6767
  26   2.0000     -11.233376      -305.6757
  27   2.0000     -11.227284      -305.5099
  28   2.0000     -11.226990      -305.5019
  29   2.0000     -11.210100      -305.0423
  30   2.0000     -11.208691      -305.0040
  31   2.0000     -11.201894      -304.8190
  32   2.0000     -11.195832      -304.6541
  33   2.0000     -11.195460      -304.6439
  34   2.0000     -11.189676      -304.4866
  35   2.0000     -11.189125      -304.4716
  36   2.0000     -11.187454      -304.4261
  37   2.0000     -11.183594      -304.3211
  38   2.0000     -11.182630      -304.2948
  39   2.0000     -11.174554      -304.0751
  40   2.0000     -11.172287      -304.0134
  41   2.0000     -11.168440      -303.9087
  42   2.0000     -11.168073      -303.8987
  43   2.0000     -11.162366      -303.7434
  44   2.0000     -11.161023      -303.7069
  45   2.0000     -11.159095      -303.6544
  46   2.0000     -11.156816      -303.5924
  47   2.0000     -11.152018      -303.4618
  48   2.0000     -11.147755      -303.3458
  49   2.0000     -11.141108      -303.1650
  50   2.0000     -11.134512      -302.9855
  51   2.0000     -11.126935      -302.7793
  52   2.0000      -1.352507       -36.8036
  53   2.0000      -1.324429       -36.0395
  54   2.0000      -1.316802       -35.8320
  55   2.0000      -1.286199       -34.9993
  56   2.0000      -1.225428       -33.3456
  57   2.0000      -1.210336       -32.9349
  58   2.0000      -1.169785       -31.8315
  59   2.0000      -1.153581       -31.3905
  60   2.0000      -1.137007       -30.9395
  61   2.0000      -1.112894       -30.2834
  62   2.0000      -1.106566       -30.1112
  63   2.0000      -1.082063       -29.4444
  64   2.0000      -1.074773       -29.2461
  65   2.0000      -1.048483       -28.5307
  66   2.0000      -1.041577       -28.3428
  67   2.0000      -1.036860       -28.2144
  68   2.0000      -1.014937       -27.6178
  69   2.0000      -1.014280       -27.6000
  70   2.0000      -1.009384       -27.4667
  71   2.0000      -0.992962       -27.0199
  72   2.0000      -0.987180       -26.8625
  73   2.0000      -0.979141       -26.6438
  74   2.0000      -0.972117       -26.4527
  75   2.0000      -0.959773       -26.1168
  76   2.0000      -0.952062       -25.9069
  77   2.0000      -0.946788       -25.7634
  78   2.0000      -0.935452       -25.4550
  79   2.0000      -0.919884       -25.0313
  80   2.0000      -0.904158       -24.6034
  81   2.0000      -0.892835       -24.2953
  82   2.0000      -0.875727       -23.8298
  83   2.0000      -0.871552       -23.7161
  84   2.0000      -0.867015       -23.5927
  85   2.0000      -0.855698       -23.2847
  86   2.0000      -0.840527       -22.8719
  87   2.0000      -0.837277       -22.7835
  88   2.0000      -0.823043       -22.3961
  89   2.0000      -0.798265       -21.7219
  90   2.0000      -0.792509       -21.5653
  91   2.0000      -0.748469       -20.3669
  92   2.0000      -0.739586       -20.1252
  93   2.0000      -0.732967       -19.9451
  94   2.0000      -0.724121       -19.7043
  95   2.0000      -0.720433       -19.6040
  96   2.0000      -0.714886       -19.4530
  97   2.0000      -0.708810       -19.2877
  98   2.0000      -0.704363       -19.1667
  99   2.0000      -0.696422       -18.9506
 100   2.0000      -0.695814       -18.9341
 101   2.0000      -0.683044       -18.5866
 102   2.0000      -0.679783       -18.4978
 103   2.0000      -0.678169       -18.4539
 104   2.0000      -0.675318       -18.3763
 105   2.0000      -0.671152       -18.2630
 106   2.0000      -0.667432       -18.1618
 107   2.0000      -0.662092       -18.0164
 108   2.0000      -0.655765       -17.8443
 109   2.0000      -0.653581       -17.7848
 110   2.0000      -0.649041       -17.6613
 111   2.0000      -0.643173       -17.5016
 112   2.0000      -0.641664       -17.4606
 113   2.0000      -0.639372       -17.3982
 114   2.0000      -0.636958       -17.3325
 115   2.0000      -0.626021       -17.0349
 116   2.0000      -0.625000       -17.0071
 117   2.0000      -0.616257       -16.7692
 118   2.0000      -0.615133       -16.7386
 119   2.0000      -0.612956       -16.6794
 120   2.0000      -0.608966       -16.5708
 121   2.0000      -0.605541       -16.4776
 122   2.0000      -0.599725       -16.3193
 123   2.0000      -0.586795       -15.9675
 124   2.0000      -0.583752       -15.8847
 125   2.0000      -0.581744       -15.8301
 126   2.0000      -0.578870       -15.7519
 127   2.0000      -0.577740       -15.7211
 128   2.0000      -0.565477       -15.3874
 129   2.0000      -0.558579       -15.1997
 130   2.0000      -0.551547       -15.0083
 131   2.0000      -0.547931       -14.9099
 132   2.0000      -0.543358       -14.7855
 133   2.0000      -0.539509       -14.6808
 134   2.0000      -0.539127       -14.6704
 135   2.0000      -0.534149       -14.5349
 136   2.0000      -0.526003       -14.3133
 137   2.0000      -0.523427       -14.2432
 138   2.0000      -0.518199       -14.1009
 139   2.0000      -0.513077       -13.9615
 140   2.0000      -0.512515       -13.9462
 141   2.0000      -0.510246       -13.8845
 142   2.0000      -0.510022       -13.8784
 143   2.0000      -0.503345       -13.6967
 144   2.0000      -0.500507       -13.6195
 145   2.0000      -0.496653       -13.5146
 146   2.0000      -0.494294       -13.4504
 147   2.0000      -0.484415       -13.1816
 148   2.0000      -0.480227       -13.0676
 149   2.0000      -0.467441       -12.7197
 150   2.0000      -0.465365       -12.6632
 151   2.0000      -0.457085       -12.4379
 152   2.0000      -0.449446       -12.2300
 153   2.0000      -0.446320       -12.1450
 154   2.0000      -0.442996       -12.0545
 155   2.0000      -0.437927       -11.9166
 156   2.0000      -0.429975       -11.7002
 157   2.0000      -0.424650       -11.5553
 158   2.0000      -0.403929       -10.9915
 159   2.0000      -0.386516       -10.5176
 160   2.0000      -0.381579       -10.3833
 161   2.0000      -0.378510       -10.2998
 162   2.0000      -0.371036       -10.0964
 163   2.0000      -0.359200        -9.7743
 164   2.0000      -0.353536        -9.6202
 165   2.0000      -0.339065        -9.2264
 166   2.0000      -0.337622        -9.1872
 167   2.0000      -0.327596        -8.9143
 168   2.0000      -0.326456        -8.8833
 169   2.0000      -0.304276        -8.2798
 170   2.0000      -0.299583        -8.1521
 171   2.0000      -0.286109        -7.7854
 172   2.0000      -0.282713        -7.6930
 173   2.0000      -0.261217        -7.1081
 174   2.0000      -0.244185        -6.6446
 175   2.0000      -0.189833        -5.1656
 176   2.0000      -0.180150        -4.9021
 177   2.0000      -0.074717        -2.0331
 178   2.0000      -0.058037        -1.5793
 179   0.0000       0.028580         0.7777
 180   0.0000       0.066695         1.8149
 181   0.0000       0.091706         2.4955
 182   0.0000       0.108431         2.9506
 183   0.0000       0.112328         3.0566

MULLIKEN ATOMIC CHARGES
-----------------------
   0 C :    0.206048
   1 N :   -0.454526
   2 C :   -0.065748
   3 N :   -0.336531
   4 C :   -0.053508
   5 N :   -0.561394
   6 C :   -0.117735
   7 N :   -0.340149
   8 C :    0.207658
   9 N :   -0.562683
  10 C :    0.118747
  11 N :   -0.437723
  12 C :   -0.081194
  13 N :   -0.431585
  14 C :    0.223744
  15 N :   -0.441502
  16 C :    0.229917
  17 C :   -0.113655
  18 C :   -0.167696
  19 C :    0.210487
  20 C :    0.213835
  21 C :   -0.092398
  22 C :   -0.088701
  23 C :   -0.041441
  24 C :    0.197097
  25 C :    0.114104
  26 C :   -0.076059
  27 C :    0.212592
  28 C :   -0.059597
  29 C :   -0.180840
  30 C :    0.243781
  31 C :    0.227385
  32 C :   -0.061737
  33 C :   -0.064877
  34 C :   -0.049678
  35 C :    0.222185
  36 C :    0.109456
  37 C :   -0.064765
  38 C :    0.233489
  39 C :   -0.059450
  40 C :   -0.182056
  41 C :    0.223537
  42 C :    0.197556
  43 C :   -0.072912
  44 C :   -0.091166
  45 C :   -0.060065
  46 C :    0.208699
  47 C :    0.115729
  48 C :   -0.068836
  49 C :    0.235989
  50 C :   -0.047620
  51 C :   -0.193289
  52 H :    0.040884
  53 H :   -0.016425
  54 H :    0.051511
  55 H :    0.039525
  56 H :    0.049837
  57 H :    0.048511
  58 H :    0.047749
  59 H :    0.001408
  60 H :    0.051236
  61 H :    0.171118
  62 H :    0.175257
  63 H :    0.056604
  64 H :   -0.004929
  65 H :    0.047042
  66 H :    0.056755
  67 H :    0.063417
  68 H :    0.057866
  69 H :    0.057457
  70 H :   -0.028003
  71 H :    0.046430
  72 H :    0.068414
  73 H :   -0.008956
  74 H :    0.057752
  75 H :    0.067635
  76 H :    0.072404
  77 H :    0.066028
  78 H :    0.065184
  79 H :   -0.015486
  80 H :    0.058317
  81 H :    0.053583
  82 H :   -0.025088
  83 H :    0.041093
  84 H :    0.053040
  85 H :    0.059753
  86 H :    0.055099
  87 H :    0.056663
  88 H :   -0.015821
  89 H :    0.046216
Sum of atomic charges:   -0.0000000

LOEWDIN ATOMIC CHARGES
----------------------
   0 C :   -0.022719
   1 N :    0.116427
   2 C :   -0.101902
   3 N :    0.183199
   4 C :   -0.006143
   5 N :   -0.130887
   6 C :   -0.041099
   7 N :    0.175825
   8 C :   -0.020743
   9 N :   -0.140252
  10 C :    0.024095
  11 N :    0.143825
  12 C :   -0.110952
  13 N :    0.161240
  14 C :   -0.032869
  15 N :    0.137373
  16 C :   -0.057013
  17 C :   -0.038990
  18 C :   -0.101119
  19 C :   -0.084435
  20 C :    0.005426
  21 C :   -0.115493
  22 C :    0.039782
  23 C :   -0.015501
  24 C :   -0.009163
  25 C :    0.030267
  26 C :   -0.107654
  27 C :   -0.113933
  28 C :   -0.025646
  29 C :   -0.099443
  30 C :   -0.034016
  31 C :    0.020678
  32 C :   -0.094050
  33 C :    0.073380
  34 C :   -0.015251
  35 C :    0.016371
  36 C :    0.034113
  37 C :   -0.095467
  38 C :   -0.048098
  39 C :   -0.019730
  40 C :   -0.108085
  41 C :   -0.093953
  42 C :   -0.010556
  43 C :   -0.100808
  44 C :    0.031009
  45 C :   -0.027667
  46 C :   -0.000991
  47 C :    0.029155
  48 C :   -0.097570
  49 C :   -0.073007
  50 C :   -0.019877
  51 C :   -0.109836
  52 H :    0.023874
  53 H :    0.003168
  54 H :    0.040998
  55 H :    0.023996
  56 H :    0.021836
  57 H :    0.026692
  58 H :    0.027267
  59 H :    0.010268
  60 H :    0.041509
  61 H :    0.060010
  62 H :    0.061730
  63 H :    0.031296
  64 H :    0.005786
  65 H :    0.045790
  66 H :    0.029835
  67 H :    0.028728
  68 H :    0.031919
  69 H :    0.030798
  70 H :   -0.003836
  71 H :    0.044270
  72 H :    0.036390
  73 H :    0.006658
  74 H :    0.049637
  75 H :    0.035830
  76 H :    0.033483
  77 H :    0.035257
  78 H :    0.034887
  79 H :    0.003495
  80 H :    0.049376
  81 H :    0.028761
  82 H :   -0.002811
  83 H :    0.042230
  84 H :    0.029295
  85 H :    0.026834
  86 H :    0.029954
  87 H :    0.031147
  88 H :    0.001751
  89 H :    0.044646

  Mayer bond orders larger than 0.100000
B(  0-C ,  1-N ) :   1.0886 B(  0-C , 17-C ) :   1.7036 B(  0-C , 52-H ) :   0.9672
B(  1-N ,  8-C ) :   1.0911 B(  1-N , 10-C ) :   0.9770 B(  2-C , 12-C ) :   1.5111
B(  2-C , 16-C ) :   1.3521 B(  2-C , 53-H ) :   0.9761 B(  3-N , 14-C ) :   1.2173
B(  3-N , 16-C ) :   1.1919 B(  3-N , 61-H ) :   0.8994 B(  4-C ,  6-C ) :   1.2138
B(  4-C , 17-C ) :   1.2136 B(  4-C , 18-C ) :   1.4206 B(  5-N , 19-C ) :   1.4502
B(  5-N , 27-C ) :   1.3817 B(  6-C ,  8-C ) :   1.7018 B(  6-C , 54-H ) :   0.9605
B(  7-N , 30-C ) :   1.1938 B(  7-N , 38-C ) :   1.1934 B(  7-N , 62-H ) :   0.8969
B(  8-C , 55-H ) :   0.9682 B(  9-N , 41-C ) :   1.3940 B(  9-N , 49-C ) :   1.4270
B( 10-C , 56-H ) :   0.9768 B( 10-C , 57-H ) :   0.9832 B( 10-C , 58-H ) :   0.9834
B( 11-N , 20-C ) :   1.1317 B( 11-N , 24-C ) :   1.1119 B( 11-N , 25-C ) :   0.9587
B( 12-C , 14-C ) :   1.3533 B( 12-C , 59-H ) :   0.9748 B( 13-N , 31-C ) :   1.1550
B( 13-N , 35-C ) :   1.1494 B( 13-N , 36-C ) :   0.9451 B( 14-C , 18-C ) :   1.1359
B( 15-N , 42-C ) :   1.1073 B( 15-N , 46-C ) :   1.1203 B( 15-N , 47-C ) :   0.9625
B( 16-C , 51-C ) :   1.1746 B( 17-C , 60-H ) :   0.9606 B( 18-C , 19-C ) :   1.1408
B( 19-C , 21-C ) :   1.2404 B( 20-C , 28-C ) :   1.6252 B( 20-C , 63-H ) :   0.9701
B( 21-C , 26-C ) :   1.6170 B( 21-C , 64-H ) :   0.9713 B( 22-C , 23-C ) :   1.2907
B( 22-C , 28-C ) :   1.2682 B( 22-C , 29-C ) :   1.2203 B( 23-C , 24-C ) :   1.6171
B( 23-C , 65-H ) :   0.9705 B( 24-C , 66-H ) :   0.9694 B( 25-C , 67-H ) :   0.9760
B( 25-C , 68-H ) :   0.9828 B( 25-C , 69-H ) :   0.9822 B( 26-C , 27-C ) :   1.2348
B( 26-C , 70-H ) :   0.9707 B( 27-C , 29-C ) :   1.2159 B( 28-C , 71-H ) :   0.9718
B( 29-C , 30-C ) :   1.2398 B( 30-C , 32-C ) :   1.2844 B( 31-C , 39-C ) :   1.5969
B( 31-C , 72-H ) :   0.9684 B( 32-C , 37-C ) :   1.5750 B( 32-C , 73-H ) :   0.9784
B( 33-C , 34-C ) :   1.3021 B( 33-C , 39-C ) :   1.2956 B( 33-C , 40-C ) :   1.1891
B( 34-C , 35-C ) :   1.5934 B( 34-C , 74-H ) :   0.9697 B( 35-C , 75-H ) :   0.9685
B( 36-C , 76-H ) :   0.9766 B( 36-C , 77-H ) :   0.9816 B( 36-C , 78-H ) :   0.9825
B( 37-C , 38-C ) :   1.2883 B( 37-C , 79-H ) :   0.9768 B( 38-C , 40-C ) :   1.2302
B( 39-C , 80-H ) :   0.9708 B( 40-C , 41-C ) :   1.2441 B( 41-C , 43-C ) :   1.1924
B( 42-C , 50-C ) :   1.6360 B( 42-C , 81-H ) :   0.9697 B( 43-C , 48-C ) :   1.6594
B( 43-C , 82-H ) :   0.9724 B( 44-C , 45-C ) :   1.2626 B( 44-C , 50-C ) :   1.2689
B( 44-C , 51-C ) :   1.2648 B( 45-C , 46-C ) :   1.6369 B( 45-C , 83-H ) :   0.9717
B( 46-C , 84-H ) :   0.9701 B( 47-C , 85-H ) :   0.9762 B( 47-C , 86-H ) :   0.9829
B( 47-C , 87-H ) :   0.9825 B( 48-C , 49-C ) :   1.1957 B( 48-C , 88-H ) :   0.9748
B( 49-C , 51-C ) :   1.2346 B( 50-C , 89-H ) :   0.9710

MP2 TOTAL ENERGY:    -2130.901739095 Eh
FINAL SINGLE POINT ENERGY     -2130.901739094720

DIPOLE MOMENT
-------------
                                X             Y             Z
Electronic contribution:      1.96144      -3.82670      -0.22359
Nuclear contribution   :      0.03211       0.20737       0.22464
                        -----------------------------------------
Total Dipole Moment    :      1.99355      -3.61933       0.00104
                        -----------------------------------------
Magnitude (a.u.)       :      4.13204
Magnitude (Debye)      :     10.50281

Rotational constants in cm-1:     0.001500     0.001478     0.000761
Rotational constants in MHz :    44.964697    44.298208    22.809390

                             ****ORCA TERMINATED NORMALLY****
TOTAL RUN TIME: 0 days 1 hours 13 minutes 2 seconds 908 msec
