                         Program Version 5.0.4 -  RELEASE  -
|  1> ! PAL2
|  2> ! mp2 cc-pvdz TightSCF  NoKeepInts
|  3>
|  4> %scf
|  5>   MaxCore 2000
|  6> end
|  7> %mp2
|  8>   MaxCore 2000
|  9> end
| 10> * xyz 0 1
| 11>    C       -3.84700         5.96300        -1.06300
| 12>    C        1.47400         4.04100         0.05700
| 13>    C       -2.80200         4.09300         0.04900
| 14>    C       -3.34800         4.56900         1.25100
| 15>    C       -4.12100         5.71300         1.25700
| 16>    C       -5.22100         7.59600         0.14500
| 17>    C        0.13200         4.30700         0.06100
| 18>    C       -0.56900         3.05600         0.04700
| 19>    C        1.64900         2.61800         0.02300
| 20>    C       -3.07300         4.82000        -1.12100
| 21>    N       -4.35800         6.39500         0.11200
| 22>    N        0.38800         2.06700         0.02500
| 23>    N       -2.01000         0.39500        -0.07500
| 24>    N       -0.38800        -2.07400        -0.02700
| 25>    N        2.01000        -0.40100         0.06500
| 26>    C       -1.96000         2.86100         0.02400
| 27>    C       -2.62300         1.61500        -0.01800
| 28>    C       -5.57300        -4.32900         1.06600
| 29>    C       -4.07300         1.47100         0.05600
| 30>    C       -4.10600        -2.75600        -0.02600
| 31>    C       -4.99500        -2.75700        -1.11100
| 32>    C       -6.13200        -3.54200        -1.07600
| 33>    C       -7.65100        -5.11300         0.04000
| 34>    C       -4.32400         0.14100         0.03700
| 35>    C       -3.02500        -0.52000        -0.04800
| 36>    C       -4.42200        -3.56600         1.07500
| 37>    N       -6.40700        -4.31300         0.00100
| 38>    C       -2.86700        -1.92200        -0.04000
| 39>    C       -1.65000        -2.62400        -0.02700
| 40>    C        3.56800        -6.14200        -1.04000
| 41>    C       -1.47600        -4.04900        -0.03400
| 42>    C        2.80300        -4.09900        -0.00800
| 43>    C        3.65700        -4.38400         1.06900
| 44>    C        4.42700        -5.53000         1.05900
| 45>    C        5.24500        -7.58800         0.01400
| 46>    C       -0.13400        -4.31500        -0.02200
| 47>    C        0.56800        -3.06400        -0.02700
| 48>    C        2.77500        -5.01200        -1.07400
| 49>    N        4.37600        -6.39100         0.01700
| 50>    C        1.95900        -2.86900        -0.00900
| 51>    C        2.62100        -1.62200         0.00900
| 52>    C        5.54300         4.33900        -1.13000
| 53>    C        4.07000        -1.47900        -0.09400
| 54>    C        4.10400         2.75100        -0.02100
| 55>    C        5.02700         2.72900         1.03600
| 56>    C        6.16600         3.50900         0.97800
| 57>    C        7.61900         5.15300        -0.11500
| 58>    C        4.32100        -0.14800        -0.09200
| 59>    C        3.02500         0.51400         0.01500
| 60>    C        4.38700         3.58200        -1.11500
| 61>    C        2.86600         1.91600         0.01300
| 62>    N        6.41300         4.29600        -0.09500
| 63>    H       -4.07100         6.56100        -1.93800
| 64>    H        2.27400         4.76600         0.08100
| 65>    H       -3.18300         4.04600         2.18500
| 66>    H       -4.57000         6.11300         2.15700
| 67>    H       -6.26500         7.28700         0.05400
| 68>    H       -5.06400         8.11400         1.09100
| 69>    H       -4.94900         8.24600        -0.68600
| 70>    H       -0.33200         5.28200         0.06900
| 71>    H       -2.66800         4.51200        -2.07800
| 72>    H        0.18200         1.07200         0.00500
| 73>    H       -0.18300        -1.08000        -0.02100
| 74>    H       -5.86400        -4.96200         1.89500
| 75>    H       -4.79400         2.27200         0.13900
| 76>    H       -4.80000        -2.16000        -1.99400
| 77>    H       -6.84100        -3.58200        -1.89300
| 78>    H       -8.42800        -4.53600         0.54600
| 79>    H       -7.95600        -5.33700        -0.98100
| 80>    H       -7.45600        -6.03700         0.58400
| 81>    H       -5.28700        -0.34400         0.10000
| 82>    H       -3.78000        -3.60100         1.94700
| 83>    H        3.58700        -6.86800        -1.84300
| 84>    H       -2.27600        -4.77400        -0.05000
| 85>    H        3.71400        -3.72400         1.92600
| 86>    H        5.09200        -5.79500         1.87100
| 87>    H        6.20500        -7.32900        -0.43900
| 88>    H        5.39300        -7.91700         1.04200
| 89>    H        4.75900        -8.37300        -0.56400
| 90>    H        0.32900        -5.29000        -0.00800
| 91>    H        2.14600        -4.84200        -1.94000
| 92>    H        5.80800         4.98600        -1.95600
| 93>    H        4.78800        -2.28100        -0.18500
| 94>    H        4.86000         2.11400         1.91200
| 95>    H        6.90100         3.53100         1.77200
| 96>    H        7.38300         6.10900         0.35600
| 97>    H        8.41400         4.65200         0.43500
| 98>    H        7.92100         5.31000        -1.15000
| 99>    H        5.28300         0.33600        -0.17900
|100>    H        3.72000         3.63200        -1.96700
|101> *
|102>
|103>                          ****END OF INPUT****

CARTESIAN COORDINATES (ANGSTROEM)
---------------------------------
  C     -3.847000    5.963000   -1.063000
  C      1.474000    4.041000    0.057000
  C     -2.802000    4.093000    0.049000
  C     -3.348000    4.569000    1.251000
  C     -4.121000    5.713000    1.257000
  C     -5.221000    7.596000    0.145000
  C      0.132000    4.307000    0.061000
  C     -0.569000    3.056000    0.047000
  C      1.649000    2.618000    0.023000
  C     -3.073000    4.820000   -1.121000
  N     -4.358000    6.395000    0.112000
  N      0.388000    2.067000    0.025000
  N     -2.010000    0.395000   -0.075000
  N     -0.388000   -2.074000   -0.027000
  N      2.010000   -0.401000    0.065000
  C     -1.960000    2.861000    0.024000
  C     -2.623000    1.615000   -0.018000
  C     -5.573000   -4.329000    1.066000
  C     -4.073000    1.471000    0.056000
  C     -4.106000   -2.756000   -0.026000
  C     -4.995000   -2.757000   -1.111000
  C     -6.132000   -3.542000   -1.076000
  C     -7.651000   -5.113000    0.040000
  C     -4.324000    0.141000    0.037000
  C     -3.025000   -0.520000   -0.048000
  C     -4.422000   -3.566000    1.075000
  N     -6.407000   -4.313000    0.001000
  C     -2.867000   -1.922000   -0.040000
  C     -1.650000   -2.624000   -0.027000
  C      3.568000   -6.142000   -1.040000
  C     -1.476000   -4.049000   -0.034000
  C      2.803000   -4.099000   -0.008000
  C      3.657000   -4.384000    1.069000
  C      4.427000   -5.530000    1.059000
  C      5.245000   -7.588000    0.014000
  C     -0.134000   -4.315000   -0.022000
  C      0.568000   -3.064000   -0.027000
  C      2.775000   -5.012000   -1.074000
  N      4.376000   -6.391000    0.017000
  C      1.959000   -2.869000   -0.009000
  C      2.621000   -1.622000    0.009000
  C      5.543000    4.339000   -1.130000
  C      4.070000   -1.479000   -0.094000
  C      4.104000    2.751000   -0.021000
  C      5.027000    2.729000    1.036000
  C      6.166000    3.509000    0.978000
  C      7.619000    5.153000   -0.115000
  C      4.321000   -0.148000   -0.092000
  C      3.025000    0.514000    0.015000
  C      4.387000    3.582000   -1.115000
  C      2.866000    1.916000    0.013000
  N      6.413000    4.296000   -0.095000
  H     -4.071000    6.561000   -1.938000
  H      2.274000    4.766000    0.081000
  H     -3.183000    4.046000    2.185000
  H     -4.570000    6.113000    2.157000
  H     -6.265000    7.287000    0.054000
  H     -5.064000    8.114000    1.091000
  H     -4.949000    8.246000   -0.686000
  H     -0.332000    5.282000    0.069000
  H     -2.668000    4.512000   -2.078000
  H      0.182000    1.072000    0.005000
  H     -0.183000   -1.080000   -0.021000
  H     -5.864000   -4.962000    1.895000
  H     -4.794000    2.272000    0.139000
  H     -4.800000   -2.160000   -1.994000
  H     -6.841000   -3.582000   -1.893000
  H     -8.428000   -4.536000    0.546000
  H     -7.956000   -5.337000   -0.981000
  H     -7.456000   -6.037000    0.584000
  H     -5.287000   -0.344000    0.100000
  H     -3.780000   -3.601000    1.947000
  H      3.587000   -6.868000   -1.843000
  H     -2.276000   -4.774000   -0.050000
  H      3.714000   -3.724000    1.926000
  H      5.092000   -5.795000    1.871000
  H      6.205000   -7.329000   -0.439000
  H      5.393000   -7.917000    1.042000
  H      4.759000   -8.373000   -0.564000
  H      0.329000   -5.290000   -0.008000
  H      2.146000   -4.842000   -1.940000
  H      5.808000    4.986000   -1.956000
  H      4.788000   -2.281000   -0.185000
  H      4.860000    2.114000    1.912000
  H      6.901000    3.531000    1.772000
  H      7.383000    6.109000    0.356000
  H      8.414000    4.652000    0.435000
  H      7.921000    5.310000   -1.150000
  H      5.283000    0.336000   -0.179000
  H      3.720000    3.632000   -1.967000

 Total Charge           Charge          ....    0
 Multiplicity           Mult            ....    1
 Number of Electrons    NEL             ....  358
 Basis Dimension        Dim             ....  918

ORBITAL ENERGIES
----------------

  NO   OCC          E(Eh)            E(eV)
   0   2.0000     -15.712395      -427.5560
   1   2.0000     -15.629484      -425.2999
   2   2.0000     -15.619690      -425.0334
   3   2.0000     -15.580371      -423.9634
   4   2.0000     -15.520644      -422.3382
   5   2.0000     -15.504969      -421.9116
   6   2.0000     -15.450569      -420.4314
   7   2.0000     -15.428052      -419.8186
   8   2.0000     -11.352749      -308.9240
   9   2.0000     -11.350768      -308.8701
  10   2.0000     -11.345945      -308.7389
  11   2.0000     -11.307320      -307.6878
  12   2.0000     -11.296943      -307.4055
  13   2.0000     -11.291038      -307.2448
  14   2.0000     -11.290303      -307.2248
  15   2.0000     -11.282531      -307.0133
  16   2.0000     -11.282148      -307.0029
  17   2.0000     -11.282080      -307.0010
  18   2.0000     -11.281649      -306.9893
  19   2.0000     -11.272598      -306.7430
  20   2.0000     -11.265593      -306.5524
  21   2.0000     -11.246230      -306.0255
  22   2.0000     -11.242834      -305.9331
  23   2.0000     -11.233162      -305.6699
  24   2.0000     -11.227367      -305.5122
  25   2.0000     -11.226464      -305.4876
  26   2.0000     -11.223980      -305.4200
  27   2.0000     -11.219823      -305.3069
  28   2.0000     -11.219514      -305.2985
  29   2.0000     -11.210001      -305.0396
  30   2.0000     -11.208377      -304.9954
  31   2.0000     -11.193405      -304.5880
  32   2.0000     -11.192351      -304.5594
  33   2.0000     -11.191308      -304.5310
  34   2.0000     -11.191089      -304.5250
  35   2.0000     -11.190321      -304.5041
  36   2.0000     -11.186813      -304.4086
  37   2.0000     -11.180839      -304.2461
  38   2.0000     -11.180702      -304.2424
  39   2.0000     -11.175954      -304.1132
  40   2.0000     -11.167969      -303.8959
  41   2.0000     -11.164605      -303.8044
  42   2.0000     -11.164435      -303.7997
  43   2.0000     -11.161445      -303.7184
  44   2.0000     -11.160290      -303.6869
  45   2.0000     -11.146668      -303.3162
  46   2.0000     -11.146255      -303.3050
  47   2.0000     -11.141349      -303.1715
  48   2.0000     -11.139424      -303.1191
  49   2.0000     -11.132263      -302.9243
  50   2.0000     -11.118825      -302.5586
  51   2.0000     -11.113408      -302.4112
  52   2.0000      -1.385807       -37.7097
  53   2.0000      -1.317547       -35.8523
  54   2.0000      -1.308558       -35.6077
  55   2.0000      -1.275135       -34.6982
  56   2.0000      -1.223721       -33.2991
  57   2.0000      -1.200972       -32.6801
  58   2.0000      -1.176134       -32.0042
  59   2.0000      -1.161164       -31.5969
  60   2.0000      -1.138567       -30.9820
  61   2.0000      -1.106617       -30.1126
  62   2.0000      -1.104219       -30.0473
  63   2.0000      -1.098277       -29.8856
  64   2.0000      -1.068892       -29.0860
  65   2.0000      -1.053751       -28.6740
  66   2.0000      -1.041905       -28.3517
  67   2.0000      -1.033468       -28.1221
  68   2.0000      -1.014497       -27.6059
  69   2.0000      -1.004324       -27.3290
  70   2.0000      -1.002122       -27.2691
  71   2.0000      -0.993628       -27.0380
  72   2.0000      -0.984876       -26.7999
  73   2.0000      -0.977452       -26.5978
  74   2.0000      -0.963760       -26.2253
  75   2.0000      -0.961790       -26.1716
  76   2.0000      -0.951042       -25.8792
  77   2.0000      -0.941195       -25.6112
  78   2.0000      -0.930269       -25.3139
  79   2.0000      -0.921224       -25.0678
  80   2.0000      -0.913554       -24.8591
  81   2.0000      -0.890083       -24.2204
  82   2.0000      -0.884938       -24.0804
  83   2.0000      -0.868885       -23.6436
  84   2.0000      -0.860907       -23.4265
  85   2.0000      -0.847272       -23.0555
  86   2.0000      -0.830454       -22.5978
  87   2.0000      -0.827987       -22.5307
  88   2.0000      -0.820974       -22.3398
  89   2.0000      -0.794634       -21.6231
  90   2.0000      -0.786726       -21.4079
  91   2.0000      -0.768846       -20.9214
  92   2.0000      -0.735337       -20.0095
  93   2.0000      -0.733629       -19.9631
  94   2.0000      -0.728417       -19.8212
  95   2.0000      -0.722569       -19.6621
  96   2.0000      -0.716439       -19.4953
  97   2.0000      -0.706992       -19.2382
  98   2.0000      -0.706450       -19.2235
  99   2.0000      -0.702442       -19.1144
 100   2.0000      -0.695637       -18.9292
 101   2.0000      -0.688901       -18.7460
 102   2.0000      -0.684511       -18.6265
 103   2.0000      -0.674637       -18.3578
 104   2.0000      -0.672978       -18.3127
 105   2.0000      -0.667829       -18.1726
 106   2.0000      -0.666413       -18.1340
 107   2.0000      -0.662945       -18.0396
 108   2.0000      -0.652366       -17.7518
 109   2.0000      -0.649920       -17.6852
 110   2.0000      -0.648361       -17.6428
 111   2.0000      -0.642869       -17.4934
 112   2.0000      -0.640551       -17.4303
 113   2.0000      -0.635675       -17.2976
 114   2.0000      -0.630520       -17.1573
 115   2.0000      -0.630233       -17.1495
 116   2.0000      -0.626481       -17.0474
 117   2.0000      -0.617097       -16.7921
 118   2.0000      -0.611628       -16.6432
 119   2.0000      -0.609859       -16.5951
 120   2.0000      -0.608936       -16.5700
 121   2.0000      -0.601567       -16.3695
 122   2.0000      -0.590069       -16.0566
 123   2.0000      -0.588342       -16.0096
 124   2.0000      -0.585235       -15.9251
 125   2.0000      -0.578638       -15.7456
 126   2.0000      -0.575521       -15.6607
 127   2.0000      -0.572654       -15.5827
 128   2.0000      -0.571543       -15.5525
 129   2.0000      -0.566393       -15.4123
 130   2.0000      -0.556479       -15.1426
 131   2.0000      -0.545430       -14.8419
 132   2.0000      -0.541782       -14.7426
 133   2.0000      -0.539341       -14.6762
 134   2.0000      -0.533680       -14.5222
 135   2.0000      -0.529902       -14.4194
 136   2.0000      -0.518892       -14.1198
 137   2.0000      -0.516143       -14.0450
 138   2.0000      -0.513237       -13.9659
 139   2.0000      -0.512804       -13.9541
 140   2.0000      -0.510035       -13.8788
 141   2.0000      -0.503105       -13.6902
 142   2.0000      -0.501386       -13.6434
 143   2.0000      -0.498955       -13.5773
 144   2.0000      -0.495484       -13.4828
 145   2.0000      -0.493535       -13.4298
 146   2.0000      -0.489209       -13.3121
 147   2.0000      -0.474597       -12.9144
 148   2.0000      -0.472134       -12.8474
 149   2.0000      -0.465963       -12.6795
 150   2.0000      -0.461837       -12.5672
 151   2.0000      -0.460319       -12.5259
 152   2.0000      -0.451621       -12.2892
 153   2.0000      -0.440889       -11.9972
 154   2.0000      -0.434234       -11.8161
 155   2.0000      -0.432490       -11.7686
 156   2.0000      -0.419141       -11.4054
 157   2.0000      -0.415195       -11.2980
 158   2.0000      -0.412910       -11.2358
 159   2.0000      -0.405659       -11.0385
 160   2.0000      -0.381506       -10.3813
 161   2.0000      -0.370165       -10.0727
 162   2.0000      -0.353816        -9.6278
 163   2.0000      -0.352724        -9.5981
 164   2.0000      -0.346475        -9.4281
 165   2.0000      -0.340616        -9.2686
 166   2.0000      -0.338629        -9.2146
 167   2.0000      -0.319600        -8.6968
 168   2.0000      -0.313323        -8.5259
 169   2.0000      -0.303880        -8.2690
 170   2.0000      -0.298141        -8.1128
 171   2.0000      -0.283105        -7.7037
 172   2.0000      -0.276188        -7.5154
 173   2.0000      -0.265767        -7.2319
 174   2.0000      -0.230741        -6.2788
 175   2.0000      -0.183388        -4.9902
 176   2.0000      -0.173563        -4.7229
 177   2.0000      -0.062589        -1.7031
 178   2.0000      -0.050778        -1.3817
 179   0.0000       0.035328         0.9613
 180   0.0000       0.055841         1.5195
 181   0.0000       0.078455         2.1349
 182   0.0000       0.098370         2.6768
 183   0.0000       0.101876         2.7722

MULLIKEN ATOMIC CHARGES
-----------------------
   0 C :    0.237112
   1 N :   -0.413495
   2 C :   -0.066036
   3 N :   -0.343299
   4 C :   -0.066942
   5 N :   -0.566176
   6 C :   -0.026502
   7 N :   -0.336725
   8 C :    0.232184
   9 N :   -0.566322
  10 C :    0.103717
  11 N :   -0.439919
  12 C :   -0.059234
  13 N :   -0.451206
  14 C :    0.221891
  15 N :   -0.441657
  16 C :    0.255780
  17 C :   -0.034258
  18 C :   -0.180331
  19 C :    0.232607
  20 C :    0.187796
  21 C :   -0.069409
  22 C :   -0.091335
  23 C :   -0.067592
  24 C :    0.217031
  25 C :    0.115029
  26 C :   -0.065570
  27 C :    0.248141
  28 C :   -0.039751
  29 C :   -0.197580
  30 C :    0.220741
  31 C :    0.187228
  32 C :   -0.065127
  33 C :   -0.102912
  34 C :   -0.050888
  35 C :    0.178373
  36 C :    0.121133
  37 C :   -0.070745
  38 C :    0.244141
  39 C :   -0.065092
  40 C :   -0.204899
  41 C :    0.216874
  42 C :    0.212245
  43 C :   -0.077238
  44 C :   -0.092487
  45 C :   -0.038028
  46 C :    0.183627
  47 C :    0.116776
  48 C :   -0.081651
  49 C :    0.207668
  50 C :   -0.067793
  51 C :   -0.188290
  52 H :    0.082183
  53 H :   -0.006761
  54 H :    0.067741
  55 H :    0.080675
  56 H :    0.084959
  57 H :    0.076294
  58 H :    0.074353
  59 H :   -0.028775
  60 H :    0.066818
  61 H :    0.177340
  62 H :    0.167592
  63 H :    0.052284
  64 H :   -0.034558
  65 H :    0.040471
  66 H :    0.054528
  67 H :    0.057765
  68 H :    0.055749
  69 H :    0.058731
  70 H :   -0.013324
  71 H :    0.046231
  72 H :    0.037051
  73 H :   -0.019620
  74 H :    0.028974
  75 H :    0.035772
  76 H :    0.045846
  77 H :    0.045804
  78 H :    0.045085
  79 H :   -0.011872
  80 H :    0.028824
  81 H :    0.050158
  82 H :   -0.022734
  83 H :    0.042678
  84 H :    0.049173
  85 H :    0.054121
  86 H :    0.056349
  87 H :    0.054331
  88 H :   -0.030350
  89 H :    0.038511
Sum of atomic charges:   -0.0000000

LOEWDIN ATOMIC CHARGES
----------------------
   0 C :    0.039952
   1 N :    0.192120
   2 C :   -0.098336
   3 N :    0.171505
   4 C :    0.117902
   5 N :   -0.148268
   6 C :   -0.008596
   7 N :    0.177609
   8 C :    0.036595
   9 N :   -0.138681
  10 C :    0.039940
  11 N :    0.138756
  12 C :   -0.096943
  13 N :    0.112915
  14 C :   -0.061443
  15 N :    0.134501
  16 C :   -0.017056
  17 C :   -0.011911
  18 C :   -0.120750
  19 C :   -0.089793
  20 C :   -0.018896
  21 C :   -0.099224
  22 C :    0.032520
  23 C :   -0.034208
  24 C :    0.007086
  25 C :    0.029127
  26 C :   -0.091807
  27 C :   -0.053963
  28 C :   -0.015027
  29 C :   -0.119061
  30 C :   -0.065216
  31 C :   -0.027278
  32 C :   -0.101595
  33 C :   -0.007142
  34 C :   -0.027201
  35 C :   -0.035190
  36 C :    0.022980
  37 C :   -0.110546
  38 C :   -0.029511
  39 C :   -0.034491
  40 C :   -0.113827
  41 C :   -0.092621
  42 C :    0.000749
  43 C :   -0.114047
  44 C :    0.026553
  45 C :   -0.014082
  46 C :   -0.024127
  47 C :    0.028147
  48 C :   -0.114159
  49 C :   -0.118011
  50 C :   -0.033936
  51 C :   -0.107557
  52 H :    0.042259
  53 H :    0.007845
  54 H :    0.055935
  55 H :    0.041807
  56 H :    0.040042
  57 H :    0.039844
  58 H :    0.039486
  59 H :   -0.000702
  60 H :    0.055399
  61 H :    0.062755
  62 H :    0.057605
  63 H :    0.028471
  64 H :   -0.005562
  65 H :    0.041569
  66 H :    0.029740
  67 H :    0.026130
  68 H :    0.030907
  69 H :    0.031140
  70 H :    0.003218
  71 H :    0.045272
  72 H :    0.021836
  73 H :    0.001595
  74 H :    0.037539
  75 H :    0.020886
  76 H :    0.019835
  77 H :    0.025788
  78 H :    0.025494
  79 H :    0.005498
  80 H :    0.036700
  81 H :    0.027894
  82 H :   -0.001217
  83 H :    0.044126
  84 H :    0.026681
  85 H :    0.024206
  86 H :    0.030333
  87 H :    0.030023
  88 H :   -0.005191
  89 H :    0.040359

  Mayer bond orders larger than 0.100000
B(  0-C ,  1-N ) :   1.2048 B(  0-C , 17-C ) :   1.5232 B(  0-C , 52-H ) :   0.9668
B(  1-N ,  8-C ) :   1.1967 B(  1-N , 10-C ) :   0.9270 B(  2-C , 12-C ) :   1.5784
B(  2-C , 16-C ) :   1.2759 B(  2-C , 53-H ) :   0.9792 B(  3-N , 14-C ) :   1.1765
B(  3-N , 16-C ) :   1.2021 B(  3-N , 61-H ) :   0.8952 B(  4-C ,  6-C ) :   1.3563
B(  4-C , 17-C ) :   1.3543 B(  4-C , 18-C ) :   1.0628 B(  5-N , 19-C ) :   1.3657
B(  5-N , 27-C ) :   1.4477 B(  6-C ,  8-C ) :   1.5222 B(  6-C , 54-H ) :   0.9705
B(  7-N , 30-C ) :   1.1850 B(  7-N , 38-C ) :   1.2148 B(  7-N , 62-H ) :   0.9014
B(  8-C , 55-H ) :   0.9676 B(  9-N , 41-C ) :   1.4353 B(  9-N , 49-C ) :   1.3920
B( 10-C , 56-H ) :   0.9766 B( 10-C , 57-H ) :   0.9806 B( 10-C , 58-H ) :   0.9818
B( 11-N , 20-C ) :   1.0978 B( 11-N , 24-C ) :   1.1339 B( 11-N , 25-C ) :   0.9623
B( 12-C , 14-C ) :   1.2757 B( 12-C , 59-H ) :   0.9768 B( 13-N , 31-C ) :   1.0828
B( 13-N , 35-C ) :   1.0734 B( 13-N , 36-C ) :   0.9818 B( 14-C , 18-C ) :   1.2580
B( 15-N , 42-C ) :   1.1261 B( 15-N , 46-C ) :   1.0899 B( 15-N , 47-C ) :   0.9662
B( 16-C , 51-C ) :   1.2445 B( 17-C , 60-H ) :   0.9710 B( 18-C , 19-C ) :   1.3091
B( 19-C , 21-C ) :   1.1635 B( 20-C , 28-C ) :   1.6292 B( 20-C , 63-H ) :   0.9709
B( 21-C , 26-C ) :   1.6816 B( 21-C , 64-H ) :   0.9715 B( 22-C , 23-C ) :   1.2563
B( 22-C , 28-C ) :   1.2793 B( 22-C , 29-C ) :   1.2574 B( 23-C , 24-C ) :   1.6346
B( 23-C , 65-H ) :   0.9722 B( 24-C , 66-H ) :   0.9690 B( 25-C , 67-H ) :   0.9762
B( 25-C , 68-H ) :   0.9834 B( 25-C , 69-H ) :   0.9819 B( 26-C , 27-C ) :   1.1730
B( 26-C , 70-H ) :   0.9756 B( 27-C , 29-C ) :   1.2424 B( 28-C , 71-H ) :   0.9709
B( 29-C , 30-C ) :   1.1742 B( 30-C , 32-C ) :   1.3518 B( 31-C , 39-C ) :   1.6834
B( 31-C , 72-H ) :   0.9709 B( 32-C , 37-C ) :   1.5080 B( 32-C , 73-H ) :   0.9771
B( 33-C , 34-C ) :   1.2333 B( 33-C , 39-C ) :   1.2261 B( 33-C , 40-C ) :   1.3556
B( 34-C , 35-C ) :   1.6820 B( 34-C , 74-H ) :   0.9710 B( 35-C , 75-H ) :   0.9708
B( 36-C , 76-H ) :   0.9755 B( 36-C , 77-H ) :   0.9826 B( 36-C , 78-H ) :   0.9838
B( 37-C , 38-C ) :   1.3460 B( 37-C , 79-H ) :   0.9792 B( 38-C , 40-C ) :   1.1777
B( 39-C , 80-H ) :   0.9721 B( 40-C , 41-C ) :   1.1705 B( 41-C , 43-C ) :   1.2535
B( 42-C , 50-C ) :   1.6417 B( 42-C , 81-H ) :   0.9696 B( 43-C , 48-C ) :   1.5977
B( 43-C , 82-H ) :   0.9756 B( 44-C , 45-C ) :   1.2811 B( 44-C , 50-C ) :   1.2495
B( 44-C , 51-C ) :   1.2462 B( 45-C , 46-C ) :   1.6326 B( 45-C , 83-H ) :   0.9702
B( 46-C , 84-H ) :   0.9709 B( 47-C , 85-H ) :   0.9759 B( 47-C , 86-H ) :   0.9825
B( 47-C , 87-H ) :   0.9830 B( 48-C , 49-C ) :   1.2479 B( 48-C , 88-H ) :   0.9726
B( 49-C , 51-C ) :   1.1932 B( 50-C , 89-H ) :   0.9722

MP2 TOTAL ENERGY:    -2130.874612264 Eh
FINAL SINGLE POINT ENERGY     -2130.874612264473

DIPOLE MOMENT
-------------
                                X             Y             Z
Electronic contribution:     -4.34077       5.10971      -0.14767
Nuclear contribution   :     -0.03347       0.16159       0.20010
                        -----------------------------------------
Total Dipole Moment    :     -4.37424       5.27130       0.05243
                        -----------------------------------------
Magnitude (a.u.)       :      6.85006
Magnitude (Debye)      :     17.41147

Rotational constants in cm-1:     0.001498     0.001472     0.000763
Rotational constants in MHz :    44.906123    44.139203    22.866433

                             ****ORCA TERMINATED NORMALLY****
TOTAL RUN TIME: 0 days 1 hours 20 minutes 24 seconds 504 msec
