                         Program Version 5.0.4 -  RELEASE  -
|  1> ! PAL2
|  2> ! mp2 cc-pvdz TightSCF  NoKeepInts
|  3>
|  4> %scf
|  5>   MaxCore 2000
|  6> end
|  7> %mp2
|  8>   MaxCore 2000
|  9> end
| 10> * xyz 0 1
| 11>    C       -4.59400         5.44700        -0.83400
| 12>    C        1.47400         4.04100         0.05700
| 13>    C       -2.80200         4.09300         0.04900
| 14>    C       -2.57800         5.10000         1.00100
| 15>    C       -3.36300         6.23600         1.00600
| 16>    C       -5.20000         7.61000         0.15200
| 17>    C        0.13200         4.30700         0.06100
| 18>    C       -0.56900         3.05600         0.04700
| 19>    C        1.64900         2.61800         0.02300
| 20>    C       -3.83900         4.29100        -0.87600
| 21>    N       -4.35200         6.39900         0.09600
| 22>    N        0.38800         2.06700         0.02500
| 23>    N       -2.01000         0.39500        -0.07500
| 24>    N       -0.38800        -2.07400        -0.02700
| 25>    N        2.01000        -0.40100         0.06500
| 26>    C       -1.96000         2.86100         0.02400
| 27>    C       -2.62300         1.61500        -0.01800
| 28>    C       -5.57300        -4.32900         1.06600
| 29>    C       -4.07300         1.47100         0.05600
| 30>    C       -4.10600        -2.75600        -0.02600
| 31>    C       -4.99500        -2.75700        -1.11100
| 32>    C       -6.13200        -3.54200        -1.07600
| 33>    C       -7.65100        -5.11300         0.04000
| 34>    C       -4.32400         0.14100         0.03700
| 35>    C       -3.02500        -0.52000        -0.04800
| 36>    C       -4.42200        -3.56600         1.07500
| 37>    N       -6.40700        -4.31300         0.00100
| 38>    C       -2.86700        -1.92200        -0.04000
| 39>    C       -1.65000        -2.62400        -0.02700
| 40>    C        3.56800        -6.14200        -1.04000
| 41>    C       -1.47600        -4.04900        -0.03400
| 42>    C        2.80300        -4.09900        -0.00800
| 43>    C        3.65700        -4.38400         1.06900
| 44>    C        4.42700        -5.53000         1.05900
| 45>    C        5.24500        -7.58800         0.01400
| 46>    C       -0.13400        -4.31500        -0.02200
| 47>    C        0.56800        -3.06400        -0.02700
| 48>    C        2.77500        -5.01200        -1.07400
| 49>    N        4.37600        -6.39100         0.01700
| 50>    C        1.95900        -2.86900        -0.00900
| 51>    C        2.62100        -1.62200         0.00900
| 52>    C        5.54300         4.33900        -1.13000
| 53>    C        4.07000        -1.47900        -0.09400
| 54>    C        4.10400         2.75100        -0.02100
| 55>    C        5.02700         2.72900         1.03600
| 56>    C        6.16600         3.50900         0.97800
| 57>    C        7.61900         5.15300        -0.11500
| 58>    C        4.32100        -0.14800        -0.09200
| 59>    C        3.02500         0.51400         0.01500
| 60>    C        4.38700         3.58200        -1.11500
| 61>    C        2.86600         1.91600         0.01300
| 62>    N        6.41300         4.29600        -0.09500
| 63>    H       -5.39500         5.64800        -1.53500
| 64>    H        2.27400         4.76600         0.08100
| 65>    H       -1.79900         5.00100         1.74700
| 66>    H       -3.23500         7.03400         1.72500
| 67>    H       -6.01800         7.43900         0.85600
| 68>    H       -4.59000         8.45100         0.48400
| 69>    H       -5.59700         7.80600        -0.84300
| 70>    H       -0.33200         5.28200         0.06900
| 71>    H       -4.05200         3.55700        -1.64400
| 72>    H        0.18200         1.07200         0.00500
| 73>    H       -0.18300        -1.08000        -0.02100
| 74>    H       -5.86400        -4.96200         1.89500
| 75>    H       -4.79400         2.27200         0.13900
| 76>    H       -4.80000        -2.16000        -1.99400
| 77>    H       -6.84100        -3.58200        -1.89300
| 78>    H       -8.42800        -4.53600         0.54600
| 79>    H       -7.95600        -5.33700        -0.98100
| 80>    H       -7.45600        -6.03700         0.58400
| 81>    H       -5.28700        -0.34400         0.10000
| 82>    H       -3.78000        -3.60100         1.94700
| 83>    H        3.58700        -6.86800        -1.84300
| 84>    H       -2.27600        -4.77400        -0.05000
| 85>    H        3.71400        -3.72400         1.92600
| 86>    H        5.09200        -5.79500         1.87100
| 87>    H        6.20500        -7.32900        -0.43900
| 88>    H        5.39300        -7.91700         1.04200
| 89>    H        4.75900        -8.37300        -0.56400
| 90>    H        0.32900        -5.29000        -0.00800
| 91>    H        2.14600        -4.84200        -1.94000
| 92>    H        5.80800         4.98600        -1.95600
| 93>    H        4.78800        -2.28100        -0.18500
| 94>    H        4.86000         2.11400         1.91200
| 95>    H        6.90100         3.53100         1.77200
| 96>    H        7.38300         6.10900         0.35600
| 97>    H        8.41400         4.65200         0.43500
| 98>    H        7.92100         5.31000        -1.15000
| 99>    H        5.28300         0.33600        -0.17900
|100>    H        3.72000         3.63200        -1.96700
|101> *
|102>
|103>                          ****END OF INPUT****

CARTESIAN COORDINATES (ANGSTROEM)
---------------------------------
  C     -4.594000    5.447000   -0.834000
  C      1.474000    4.041000    0.057000
  C     -2.802000    4.093000    0.049000
  C     -2.578000    5.100000    1.001000
  C     -3.363000    6.236000    1.006000
  C     -5.200000    7.610000    0.152000
  C      0.132000    4.307000    0.061000
  C     -0.569000    3.056000    0.047000
  C      1.649000    2.618000    0.023000
  C     -3.839000    4.291000   -0.876000
  N     -4.352000    6.399000    0.096000
  N      0.388000    2.067000    0.025000
  N     -2.010000    0.395000   -0.075000
  N     -0.388000   -2.074000   -0.027000
  N      2.010000   -0.401000    0.065000
  C     -1.960000    2.861000    0.024000
  C     -2.623000    1.615000   -0.018000
  C     -5.573000   -4.329000    1.066000
  C     -4.073000    1.471000    0.056000
  C     -4.106000   -2.756000   -0.026000
  C     -4.995000   -2.757000   -1.111000
  C     -6.132000   -3.542000   -1.076000
  C     -7.651000   -5.113000    0.040000
  C     -4.324000    0.141000    0.037000
  C     -3.025000   -0.520000   -0.048000
  C     -4.422000   -3.566000    1.075000
  N     -6.407000   -4.313000    0.001000
  C     -2.867000   -1.922000   -0.040000
  C     -1.650000   -2.624000   -0.027000
  C      3.568000   -6.142000   -1.040000
  C     -1.476000   -4.049000   -0.034000
  C      2.803000   -4.099000   -0.008000
  C      3.657000   -4.384000    1.069000
  C      4.427000   -5.530000    1.059000
  C      5.245000   -7.588000    0.014000
  C     -0.134000   -4.315000   -0.022000
  C      0.568000   -3.064000   -0.027000
  C      2.775000   -5.012000   -1.074000
  N      4.376000   -6.391000    0.017000
  C      1.959000   -2.869000   -0.009000
  C      2.621000   -1.622000    0.009000
  C      5.543000    4.339000   -1.130000
  C      4.070000   -1.479000   -0.094000
  C      4.104000    2.751000   -0.021000
  C      5.027000    2.729000    1.036000
  C      6.166000    3.509000    0.978000
  C      7.619000    5.153000   -0.115000
  C      4.321000   -0.148000   -0.092000
  C      3.025000    0.514000    0.015000
  C      4.387000    3.582000   -1.115000
  C      2.866000    1.916000    0.013000
  N      6.413000    4.296000   -0.095000
  H     -5.395000    5.648000   -1.535000
  H      2.274000    4.766000    0.081000
  H     -1.799000    5.001000    1.747000
  H     -3.235000    7.034000    1.725000
  H     -6.018000    7.439000    0.856000
  H     -4.590000    8.451000    0.484000
  H     -5.597000    7.806000   -0.843000
  H     -0.332000    5.282000    0.069000
  H     -4.052000    3.557000   -1.644000
  H      0.182000    1.072000    0.005000
  H     -0.183000   -1.080000   -0.021000
  H     -5.864000   -4.962000    1.895000
  H     -4.794000    2.272000    0.139000
  H     -4.800000   -2.160000   -1.994000
  H     -6.841000   -3.582000   -1.893000
  H     -8.428000   -4.536000    0.546000
  H     -7.956000   -5.337000   -0.981000
  H     -7.456000   -6.037000    0.584000
  H     -5.287000   -0.344000    0.100000
  H     -3.780000   -3.601000    1.947000
  H      3.587000   -6.868000   -1.843000
  H     -2.276000   -4.774000   -0.050000
  H      3.714000   -3.724000    1.926000
  H      5.092000   -5.795000    1.871000
  H      6.205000   -7.329000   -0.439000
  H      5.393000   -7.917000    1.042000
  H      4.759000   -8.373000   -0.564000
  H      0.329000   -5.290000   -0.008000
  H      2.146000   -4.842000   -1.940000
  H      5.808000    4.986000   -1.956000
  H      4.788000   -2.281000   -0.185000
  H      4.860000    2.114000    1.912000
  H      6.901000    3.531000    1.772000
  H      7.383000    6.109000    0.356000
  H      8.414000    4.652000    0.435000
  H      7.921000    5.310000   -1.150000
  H      5.283000    0.336000   -0.179000
  H      3.720000    3.632000   -1.967000

 Total Charge           Charge          ....    0
 Multiplicity           Mult            ....    1
 Number of Electrons    NEL             ....  358
 Basis Dimension        Dim             ....  918

ORBITAL ENERGIES
----------------

  NO   OCC          E(Eh)            E(eV)
   0   2.0000     -15.653704      -425.9589
   1   2.0000     -15.639347      -425.5683
   2   2.0000     -15.628501      -425.2731
   3   2.0000     -15.607850      -424.7112
   4   2.0000     -15.521834      -422.3706
   5   2.0000     -15.515648      -422.2022
   6   2.0000     -15.447316      -420.3428
   7   2.0000     -15.443755      -420.2459
   8   2.0000     -11.311761      -307.8087
   9   2.0000     -11.308197      -307.7117
  10   2.0000     -11.305674      -307.6430
  11   2.0000     -11.302593      -307.5592
  12   2.0000     -11.296008      -307.3800
  13   2.0000     -11.295859      -307.3760
  14   2.0000     -11.292897      -307.2954
  15   2.0000     -11.286709      -307.1270
  16   2.0000     -11.284659      -307.0712
  17   2.0000     -11.284021      -307.0538
  18   2.0000     -11.270139      -306.6761
  19   2.0000     -11.269799      -306.6668
  20   2.0000     -11.257411      -306.3297
  21   2.0000     -11.244873      -305.9885
  22   2.0000     -11.243975      -305.9641
  23   2.0000     -11.242792      -305.9319
  24   2.0000     -11.234818      -305.7149
  25   2.0000     -11.234222      -305.6987
  26   2.0000     -11.233038      -305.6665
  27   2.0000     -11.226779      -305.4962
  28   2.0000     -11.226594      -305.4911
  29   2.0000     -11.216733      -305.2228
  30   2.0000     -11.211761      -305.0875
  31   2.0000     -11.211039      -305.0679
  32   2.0000     -11.205142      -304.9074
  33   2.0000     -11.204252      -304.8832
  34   2.0000     -11.191830      -304.5452
  35   2.0000     -11.191413      -304.5338
  36   2.0000     -11.179270      -304.2034
  37   2.0000     -11.176734      -304.1344
  38   2.0000     -11.176401      -304.1253
  39   2.0000     -11.173600      -304.0491
  40   2.0000     -11.167308      -303.8779
  41   2.0000     -11.166685      -303.8609
  42   2.0000     -11.165991      -303.8421
  43   2.0000     -11.165658      -303.8330
  44   2.0000     -11.163598      -303.7769
  45   2.0000     -11.163129      -303.7642
  46   2.0000     -11.150387      -303.4174
  47   2.0000     -11.149227      -303.3859
  48   2.0000     -11.147251      -303.3321
  49   2.0000     -11.146009      -303.2983
  50   2.0000     -11.138782      -303.1017
  51   2.0000     -11.134580      -302.9873
  52   2.0000      -1.338132       -36.4124
  53   2.0000      -1.325799       -36.0768
  54   2.0000      -1.316527       -35.8245
  55   2.0000      -1.299611       -35.3642
  56   2.0000      -1.221407       -33.2362
  57   2.0000      -1.211410       -32.9642
  58   2.0000      -1.164534       -31.6886
  59   2.0000      -1.156080       -31.4585
  60   2.0000      -1.124771       -30.6066
  61   2.0000      -1.113848       -30.3093
  62   2.0000      -1.105914       -30.0934
  63   2.0000      -1.092476       -29.7278
  64   2.0000      -1.061365       -28.8812
  65   2.0000      -1.049681       -28.5633
  66   2.0000      -1.041195       -28.3324
  67   2.0000      -1.030044       -28.0289
  68   2.0000      -1.026242       -27.9255
  69   2.0000      -1.012465       -27.5506
  70   2.0000      -1.009306       -27.4646
  71   2.0000      -0.994598       -27.0644
  72   2.0000      -0.985787       -26.8246
  73   2.0000      -0.974306       -26.5122
  74   2.0000      -0.972850       -26.4726
  75   2.0000      -0.958723       -26.0882
  76   2.0000      -0.951407       -25.8891
  77   2.0000      -0.946028       -25.7427
  78   2.0000      -0.938179       -25.5291
  79   2.0000      -0.922540       -25.1036
  80   2.0000      -0.895738       -24.3743
  81   2.0000      -0.885977       -24.1087
  82   2.0000      -0.876466       -23.8498
  83   2.0000      -0.868956       -23.6455
  84   2.0000      -0.862601       -23.4726
  85   2.0000      -0.855067       -23.2676
  86   2.0000      -0.848218       -23.0812
  87   2.0000      -0.840703       -22.8767
  88   2.0000      -0.821801       -22.3624
  89   2.0000      -0.798759       -21.7353
  90   2.0000      -0.796469       -21.6730
  91   2.0000      -0.741234       -20.1700
  92   2.0000      -0.734293       -19.9811
  93   2.0000      -0.730667       -19.8825
  94   2.0000      -0.722371       -19.6567
  95   2.0000      -0.719450       -19.5772
  96   2.0000      -0.712806       -19.3964
  97   2.0000      -0.705759       -19.2047
  98   2.0000      -0.700274       -19.0554
  99   2.0000      -0.695058       -18.9135
 100   2.0000      -0.689976       -18.7752
 101   2.0000      -0.681380       -18.5413
 102   2.0000      -0.678786       -18.4707
 103   2.0000      -0.673589       -18.3293
 104   2.0000      -0.670179       -18.2365
 105   2.0000      -0.667223       -18.1561
 106   2.0000      -0.664350       -18.0779
 107   2.0000      -0.660211       -17.9653
 108   2.0000      -0.657552       -17.8929
 109   2.0000      -0.656632       -17.8679
 110   2.0000      -0.651303       -17.7229
 111   2.0000      -0.648788       -17.6544
 112   2.0000      -0.644597       -17.5404
 113   2.0000      -0.637563       -17.3490
 114   2.0000      -0.634299       -17.2601
 115   2.0000      -0.627086       -17.0639
 116   2.0000      -0.622817       -16.9477
 117   2.0000      -0.616433       -16.7740
 118   2.0000      -0.612345       -16.6628
 119   2.0000      -0.610771       -16.6199
 120   2.0000      -0.608438       -16.5564
 121   2.0000      -0.602666       -16.3994
 122   2.0000      -0.594661       -16.1816
 123   2.0000      -0.594224       -16.1696
 124   2.0000      -0.590900       -16.0792
 125   2.0000      -0.585030       -15.9195
 126   2.0000      -0.578280       -15.7358
 127   2.0000      -0.575151       -15.6507
 128   2.0000      -0.565746       -15.3947
 129   2.0000      -0.558975       -15.2105
 130   2.0000      -0.553860       -15.0713
 131   2.0000      -0.548773       -14.9329
 132   2.0000      -0.541998       -14.7485
 133   2.0000      -0.537163       -14.6170
 134   2.0000      -0.534093       -14.5334
 135   2.0000      -0.529541       -14.4096
 136   2.0000      -0.525509       -14.2998
 137   2.0000      -0.522825       -14.2268
 138   2.0000      -0.518845       -14.1185
 139   2.0000      -0.517428       -14.0799
 140   2.0000      -0.509604       -13.8670
 141   2.0000      -0.507493       -13.8096
 142   2.0000      -0.506900       -13.7934
 143   2.0000      -0.501254       -13.6398
 144   2.0000      -0.500186       -13.6107
 145   2.0000      -0.498063       -13.5530
 146   2.0000      -0.494145       -13.4464
 147   2.0000      -0.490488       -13.3469
 148   2.0000      -0.488646       -13.2967
 149   2.0000      -0.469348       -12.7716
 150   2.0000      -0.462013       -12.5720
 151   2.0000      -0.453680       -12.3452
 152   2.0000      -0.448308       -12.1991
 153   2.0000      -0.446497       -12.1498
 154   2.0000      -0.446224       -12.1424
 155   2.0000      -0.439369       -11.9558
 156   2.0000      -0.434945       -11.8355
 157   2.0000      -0.430365       -11.7108
 158   2.0000      -0.395522       -10.7627
 159   2.0000      -0.384001       -10.4492
 160   2.0000      -0.379344       -10.3225
 161   2.0000      -0.371430       -10.1071
 162   2.0000      -0.369929       -10.0663
 163   2.0000      -0.360063        -9.7978
 164   2.0000      -0.352997        -9.6055
 165   2.0000      -0.339429        -9.2363
 166   2.0000      -0.337218        -9.1762
 167   2.0000      -0.334764        -9.1094
 168   2.0000      -0.329015        -8.9530
 169   2.0000      -0.300152        -8.1676
 170   2.0000      -0.299406        -8.1473
 171   2.0000      -0.287836        -7.8324
 172   2.0000      -0.286106        -7.7854
 173   2.0000      -0.257061        -6.9950
 174   2.0000      -0.247107        -6.7241
 175   2.0000      -0.188821        -5.1381
 176   2.0000      -0.178861        -4.8670
 177   2.0000      -0.069157        -1.8818
 178   2.0000      -0.056006        -1.5240
 179   0.0000       0.029893         0.8134
 180   0.0000       0.069436         1.8895
 181   0.0000       0.092776         2.5246
 182   0.0000       0.101055         2.7498
 183   0.0000       0.123904         3.3716

MULLIKEN ATOMIC CHARGES
-----------------------
   0 C :    0.203848
   1 N :   -0.449184
   2 C :   -0.064218
   3 N :   -0.336441
   4 C :   -0.062651
   5 N :   -0.561104
   6 C :   -0.087002
   7 N :   -0.339102
   8 C :    0.203300
   9 N :   -0.562796
  10 C :    0.116899
  11 N :   -0.437310
  12 C :   -0.075180
  13 N :   -0.435530
  14 C :    0.234606
  15 N :   -0.441122
  16 C :    0.231493
  17 C :   -0.084764
  18 C :   -0.191284
  19 C :    0.222318
  20 C :    0.211638
  21 C :   -0.082981
  22 C :   -0.086949
  23 C :   -0.044900
  24 C :    0.201783
  25 C :    0.113819
  26 C :   -0.073618
  27 C :    0.216884
  28 C :   -0.055946
  29 C :   -0.182404
  30 C :    0.239812
  31 C :    0.219711
  32 C :   -0.063346
  33 C :   -0.072812
  34 C :   -0.049583
  35 C :    0.213364
  36 C :    0.111681
  37 C :   -0.065597
  38 C :    0.235373
  39 C :   -0.060575
  40 C :   -0.185204
  41 C :    0.221822
  42 C :    0.200054
  43 C :   -0.073352
  44 C :   -0.090102
  45 C :   -0.056737
  46 C :    0.206225
  47 C :    0.115688
  48 C :   -0.071862
  49 C :    0.231120
  50 C :   -0.049975
  51 C :   -0.191425
  52 H :    0.047099
  53 H :   -0.015189
  54 H :    0.047085
  55 H :    0.045660
  56 H :    0.053929
  57 H :    0.052174
  58 H :    0.051261
  59 H :   -0.006018
  60 H :    0.044701
  61 H :    0.171822
  62 H :    0.174176
  63 H :    0.057107
  64 H :   -0.013387
  65 H :    0.046930
  66 H :    0.057499
  67 H :    0.063552
  68 H :    0.058217
  69 H :    0.058403
  70 H :   -0.026319
  71 H :    0.047618
  72 H :    0.062679
  73 H :   -0.011488
  74 H :    0.052480
  75 H :    0.061784
  76 H :    0.067410
  77 H :    0.062239
  78 H :    0.061395
  79 H :   -0.014566
  80 H :    0.052880
  81 H :    0.053567
  82 H :   -0.024522
  83 H :    0.041917
  84 H :    0.053022
  85 H :    0.059340
  86 H :    0.055621
  87 H :    0.056670
  88 H :   -0.018820
  89 H :    0.045695
Sum of atomic charges:    0.0000000

LOEWDIN ATOMIC CHARGES
----------------------
   0 C :   -0.014365
   1 N :    0.124398
   2 C :   -0.100830
   3 N :    0.180706
   4 C :    0.013579
   5 N :   -0.134006
   6 C :   -0.030684
   7 N :    0.176653
   8 C :   -0.014906
   9 N :   -0.139487
  10 C :    0.025992
  11 N :    0.144925
  12 C :   -0.103728
  13 N :    0.151924
  14 C :   -0.039730
  15 N :    0.137897
  16 C :   -0.052346
  17 C :   -0.031223
  18 C :   -0.103895
  19 C :   -0.086646
  20 C :    0.003831
  21 C :   -0.107549
  22 C :    0.042521
  23 C :   -0.017666
  24 C :   -0.004737
  25 C :    0.030502
  26 C :   -0.105601
  27 C :   -0.105052
  28 C :   -0.023162
  29 C :   -0.102984
  30 C :   -0.039774
  31 C :    0.011651
  32 C :   -0.096335
  33 C :    0.057668
  34 C :   -0.017204
  35 C :    0.006274
  36 C :    0.031999
  37 C :   -0.097966
  38 C :   -0.044667
  39 C :   -0.022445
  40 C :   -0.108236
  41 C :   -0.094433
  42 C :   -0.008327
  43 C :   -0.102886
  44 C :    0.032373
  45 C :   -0.025305
  46 C :   -0.003027
  47 C :    0.029198
  48 C :   -0.101340
  49 C :   -0.080887
  50 C :   -0.021278
  51 C :   -0.109300
  52 H :    0.026357
  53 H :    0.003783
  54 H :    0.041509
  55 H :    0.026201
  56 H :    0.023964
  57 H :    0.028415
  58 H :    0.028739
  59 H :    0.006499
  60 H :    0.041224
  61 H :    0.060189
  62 H :    0.061170
  63 H :    0.031422
  64 H :    0.001476
  65 H :    0.045580
  66 H :    0.030332
  67 H :    0.028840
  68 H :    0.032078
  69 H :    0.031208
  70 H :   -0.003038
  71 H :    0.044989
  72 H :    0.033691
  73 H :    0.005437
  74 H :    0.047407
  75 H :    0.033024
  76 H :    0.030899
  77 H :    0.033474
  78 H :    0.033110
  79 H :    0.003975
  80 H :    0.047004
  81 H :    0.028844
  82 H :   -0.002452
  83 H :    0.042775
  84 H :    0.029187
  85 H :    0.026662
  86 H :    0.030169
  87 H :    0.031145
  88 H :    0.000322
  89 H :    0.044310

  Mayer bond orders larger than 0.100000
B(  0-C ,  1-N ) :   1.0995 B(  0-C , 17-C ) :   1.6722 B(  0-C , 52-H ) :   0.9689
B(  1-N ,  8-C ) :   1.0973 B(  1-N , 10-C ) :   0.9709 B(  2-C , 12-C ) :   1.5259
B(  2-C , 16-C ) :   1.3362 B(  2-C , 53-H ) :   0.9773 B(  3-N , 14-C ) :   1.2109
B(  3-N , 16-C ) :   1.1937 B(  3-N , 61-H ) :   0.8991 B(  4-C ,  6-C ) :   1.2339
B(  4-C , 17-C ) :   1.2354 B(  4-C , 18-C ) :   1.3491 B(  5-N , 19-C ) :   1.4363
B(  5-N , 27-C ) :   1.3926 B(  6-C ,  8-C ) :   1.6730 B(  6-C , 54-H ) :   0.9691
B(  7-N , 30-C ) :   1.1932 B(  7-N , 38-C ) :   1.1976 B(  7-N , 62-H ) :   0.8975
B(  8-C , 55-H ) :   0.9699 B(  9-N , 41-C ) :   1.3999 B(  9-N , 49-C ) :   1.4227
B( 10-C , 56-H ) :   0.9764 B( 10-C , 57-H ) :   0.9828 B( 10-C , 58-H ) :   0.9832
B( 11-N , 20-C ) :   1.1294 B( 11-N , 24-C ) :   1.1182 B( 11-N , 25-C ) :   0.9579
B( 12-C , 14-C ) :   1.3389 B( 12-C , 59-H ) :   0.9757 B( 13-N , 31-C ) :   1.1402
B( 13-N , 35-C ) :   1.1333 B( 13-N , 36-C ) :   0.9521 B( 14-C , 18-C ) :   1.1674
B( 15-N , 42-C ) :   1.1110 B( 15-N , 46-C ) :   1.1176 B( 15-N , 47-C ) :   0.9624
B( 16-C , 51-C ) :   1.1880 B( 17-C , 60-H ) :   0.9689 B( 18-C , 19-C ) :   1.1771
B( 19-C , 21-C ) :   1.2267 B( 20-C , 28-C ) :   1.6230 B( 20-C , 63-H ) :   0.9702
B( 21-C , 26-C ) :   1.6313 B( 21-C , 64-H ) :   0.9720 B( 22-C , 23-C ) :   1.2884
B( 22-C , 28-C ) :   1.2723 B( 22-C , 29-C ) :   1.2222 B( 23-C , 24-C ) :   1.6163
B( 23-C , 65-H ) :   0.9707 B( 24-C , 66-H ) :   0.9692 B( 25-C , 67-H ) :   0.9761
B( 25-C , 68-H ) :   0.9828 B( 25-C , 69-H ) :   0.9822 B( 26-C , 27-C ) :   1.2214
B( 26-C , 70-H ) :   0.9723 B( 27-C , 29-C ) :   1.2232 B( 28-C , 71-H ) :   0.9716
B( 29-C , 30-C ) :   1.2268 B( 30-C , 32-C ) :   1.2969 B( 31-C , 39-C ) :   1.6130
B( 31-C , 72-H ) :   0.9690 B( 32-C , 37-C ) :   1.5618 B( 32-C , 73-H ) :   0.9781
B( 33-C , 34-C ) :   1.2895 B( 33-C , 39-C ) :   1.2822 B( 33-C , 40-C ) :   1.2170
B( 34-C , 35-C ) :   1.6096 B( 34-C , 74-H ) :   0.9701 B( 35-C , 75-H ) :   0.9691
B( 36-C , 76-H ) :   0.9765 B( 36-C , 77-H ) :   0.9819 B( 36-C , 78-H ) :   0.9828
B( 37-C , 38-C ) :   1.2996 B( 37-C , 79-H ) :   0.9773 B( 38-C , 40-C ) :   1.2202
B( 39-C , 80-H ) :   0.9712 B( 40-C , 41-C ) :   1.2316 B( 41-C , 43-C ) :   1.2037
B( 42-C , 50-C ) :   1.6348 B( 42-C , 81-H ) :   0.9696 B( 43-C , 48-C ) :   1.6478
B( 43-C , 82-H ) :   0.9730 B( 44-C , 45-C ) :   1.2661 B( 44-C , 50-C ) :   1.2682
B( 44-C , 51-C ) :   1.2608 B( 45-C , 46-C ) :   1.6350 B( 45-C , 83-H ) :   0.9715
B( 46-C , 84-H ) :   0.9702 B( 47-C , 85-H ) :   0.9761 B( 47-C , 86-H ) :   0.9829
B( 47-C , 87-H ) :   0.9825 B( 48-C , 49-C ) :   1.2054 B( 48-C , 88-H ) :   0.9743
B( 49-C , 51-C ) :   1.2251 B( 50-C , 89-H ) :   0.9711

MP2 TOTAL ENERGY:    -2130.915842020 Eh
FINAL SINGLE POINT ENERGY     -2130.915842019844

DIPOLE MOMENT
-------------
                                X             Y             Z
Electronic contribution:      0.88301      -2.42804      -0.21705
Nuclear contribution   :      0.01377       0.19460       0.22886
                        -----------------------------------------
Total Dipole Moment    :      0.89677      -2.23344       0.01181
                        -----------------------------------------
Magnitude (a.u.)       :      2.40678
Magnitude (Debye)      :      6.11755

Rotational constants in cm-1:     0.001499     0.001476     0.000762
Rotational constants in MHz :    44.930268    44.237618    22.834452

                             ****ORCA TERMINATED NORMALLY****
TOTAL RUN TIME: 0 days 1 hours 30 minutes 31 seconds 574 msec
