                         Program Version 5.0.4 -  RELEASE  -
|  1> ! PAL2
|  2> ! mp2 cc-pvdz TightSCF  NoKeepInts
|  3>
|  4> %scf
|  5>   MaxCore 2000
|  6> end
|  7> %mp2
|  8>   MaxCore 2000
|  9> end
| 10> * xyz 0 1
| 11>    C       -4.29900         5.60800         1.18400
| 12>    C        1.47400         4.04100         0.05700
| 13>    C       -2.80200         4.09300         0.04900
| 14>    C       -2.90700         4.91800        -1.08200
| 15>    C       -3.69500         6.05100        -1.04300
| 16>    C       -5.18400         7.62200         0.09900
| 17>    C        0.13200         4.30700         0.06100
| 18>    C       -0.56900         3.05600         0.04700
| 19>    C        1.64900         2.61800         0.02300
| 20>    C       -3.51900         4.46700         1.19600
| 21>    N       -4.37900         6.38100         0.07700
| 22>    N        0.38800         2.06700         0.02500
| 23>    N       -2.01000         0.39500        -0.07500
| 24>    N       -0.38800        -2.07400        -0.02700
| 25>    N        2.01000        -0.40100         0.06500
| 26>    C       -1.96000         2.86100         0.02400
| 27>    C       -2.62300         1.61500        -0.01800
| 28>    C       -5.57300        -4.32900         1.06600
| 29>    C       -4.07300         1.47100         0.05600
| 30>    C       -4.10600        -2.75600        -0.02600
| 31>    C       -4.99500        -2.75700        -1.11100
| 32>    C       -6.13200        -3.54200        -1.07600
| 33>    C       -7.65100        -5.11300         0.04000
| 34>    C       -4.32400         0.14100         0.03700
| 35>    C       -3.02500        -0.52000        -0.04800
| 36>    C       -4.42200        -3.56600         1.07500
| 37>    N       -6.40700        -4.31300         0.00100
| 38>    C       -2.86700        -1.92200        -0.04000
| 39>    C       -1.65000        -2.62400        -0.02700
| 40>    C        3.56800        -6.14200        -1.04000
| 41>    C       -1.47600        -4.04900        -0.03400
| 42>    C        2.80300        -4.09900        -0.00800
| 43>    C        3.65700        -4.38400         1.06900
| 44>    C        4.42700        -5.53000         1.05900
| 45>    C        5.24500        -7.58800         0.01400
| 46>    C       -0.13400        -4.31500        -0.02200
| 47>    C        0.56800        -3.06400        -0.02700
| 48>    C        2.77500        -5.01200        -1.07400
| 49>    N        4.37600        -6.39100         0.01700
| 50>    C        1.95900        -2.86900        -0.00900
| 51>    C        2.62100        -1.62200         0.00900
| 52>    C        5.54300         4.33900        -1.13000
| 53>    C        4.07000        -1.47900        -0.09400
| 54>    C        4.10400         2.75100        -0.02100
| 55>    C        5.02700         2.72900         1.03600
| 56>    C        6.16600         3.50900         0.97800
| 57>    C        7.61900         5.15300        -0.11500
| 58>    C        4.32100        -0.14800        -0.09200
| 59>    C        3.02500         0.51400         0.01500
| 60>    C        4.38700         3.58200        -1.11500
| 61>    C        2.86600         1.91600         0.01300
| 62>    N        6.41300         4.29600        -0.09500
| 63>    H       -4.87900         5.92800         2.04100
| 64>    H        2.27400         4.76600         0.08100
| 65>    H       -2.37000         4.68700        -1.99400
| 66>    H       -3.80000         6.72100        -1.88600
| 67>    H       -4.53900         8.46000         0.37200
| 68>    H       -5.60800         7.78300        -0.89200
| 69>    H       -5.98200         7.50900         0.83300
| 70>    H       -0.33200         5.28200         0.06900
| 71>    H       -3.49000         3.86500         2.09600
| 72>    H        0.18200         1.07200         0.00500
| 73>    H       -0.18300        -1.08000        -0.02100
| 74>    H       -5.86400        -4.96200         1.89500
| 75>    H       -4.79400         2.27200         0.13900
| 76>    H       -4.80000        -2.16000        -1.99400
| 77>    H       -6.84100        -3.58200        -1.89300
| 78>    H       -8.42800        -4.53600         0.54600
| 79>    H       -7.95600        -5.33700        -0.98100
| 80>    H       -7.45600        -6.03700         0.58400
| 81>    H       -5.28700        -0.34400         0.10000
| 82>    H       -3.78000        -3.60100         1.94700
| 83>    H        3.58700        -6.86800        -1.84300
| 84>    H       -2.27600        -4.77400        -0.05000
| 85>    H        3.71400        -3.72400         1.92600
| 86>    H        5.09200        -5.79500         1.87100
| 87>    H        6.20500        -7.32900        -0.43900
| 88>    H        5.39300        -7.91700         1.04200
| 89>    H        4.75900        -8.37300        -0.56400
| 90>    H        0.32900        -5.29000        -0.00800
| 91>    H        2.14600        -4.84200        -1.94000
| 92>    H        5.80800         4.98600        -1.95600
| 93>    H        4.78800        -2.28100        -0.18500
| 94>    H        4.86000         2.11400         1.91200
| 95>    H        6.90100         3.53100         1.77200
| 96>    H        7.38300         6.10900         0.35600
| 97>    H        8.41400         4.65200         0.43500
| 98>    H        7.92100         5.31000        -1.15000
| 99>    H        5.28300         0.33600        -0.17900
|100>    H        3.72000         3.63200        -1.96700
|101> *
|102>
|103>                          ****END OF INPUT****

CARTESIAN COORDINATES (ANGSTROEM)
---------------------------------
  C     -4.299000    5.608000    1.184000
  C      1.474000    4.041000    0.057000
  C     -2.802000    4.093000    0.049000
  C     -2.907000    4.918000   -1.082000
  C     -3.695000    6.051000   -1.043000
  C     -5.184000    7.622000    0.099000
  C      0.132000    4.307000    0.061000
  C     -0.569000    3.056000    0.047000
  C      1.649000    2.618000    0.023000
  C     -3.519000    4.467000    1.196000
  N     -4.379000    6.381000    0.077000
  N      0.388000    2.067000    0.025000
  N     -2.010000    0.395000   -0.075000
  N     -0.388000   -2.074000   -0.027000
  N      2.010000   -0.401000    0.065000
  C     -1.960000    2.861000    0.024000
  C     -2.623000    1.615000   -0.018000
  C     -5.573000   -4.329000    1.066000
  C     -4.073000    1.471000    0.056000
  C     -4.106000   -2.756000   -0.026000
  C     -4.995000   -2.757000   -1.111000
  C     -6.132000   -3.542000   -1.076000
  C     -7.651000   -5.113000    0.040000
  C     -4.324000    0.141000    0.037000
  C     -3.025000   -0.520000   -0.048000
  C     -4.422000   -3.566000    1.075000
  N     -6.407000   -4.313000    0.001000
  C     -2.867000   -1.922000   -0.040000
  C     -1.650000   -2.624000   -0.027000
  C      3.568000   -6.142000   -1.040000
  C     -1.476000   -4.049000   -0.034000
  C      2.803000   -4.099000   -0.008000
  C      3.657000   -4.384000    1.069000
  C      4.427000   -5.530000    1.059000
  C      5.245000   -7.588000    0.014000
  C     -0.134000   -4.315000   -0.022000
  C      0.568000   -3.064000   -0.027000
  C      2.775000   -5.012000   -1.074000
  N      4.376000   -6.391000    0.017000
  C      1.959000   -2.869000   -0.009000
  C      2.621000   -1.622000    0.009000
  C      5.543000    4.339000   -1.130000
  C      4.070000   -1.479000   -0.094000
  C      4.104000    2.751000   -0.021000
  C      5.027000    2.729000    1.036000
  C      6.166000    3.509000    0.978000
  C      7.619000    5.153000   -0.115000
  C      4.321000   -0.148000   -0.092000
  C      3.025000    0.514000    0.015000
  C      4.387000    3.582000   -1.115000
  C      2.866000    1.916000    0.013000
  N      6.413000    4.296000   -0.095000
  H     -4.879000    5.928000    2.041000
  H      2.274000    4.766000    0.081000
  H     -2.370000    4.687000   -1.994000
  H     -3.800000    6.721000   -1.886000
  H     -4.539000    8.460000    0.372000
  H     -5.608000    7.783000   -0.892000
  H     -5.982000    7.509000    0.833000
  H     -0.332000    5.282000    0.069000
  H     -3.490000    3.865000    2.096000
  H      0.182000    1.072000    0.005000
  H     -0.183000   -1.080000   -0.021000
  H     -5.864000   -4.962000    1.895000
  H     -4.794000    2.272000    0.139000
  H     -4.800000   -2.160000   -1.994000
  H     -6.841000   -3.582000   -1.893000
  H     -8.428000   -4.536000    0.546000
  H     -7.956000   -5.337000   -0.981000
  H     -7.456000   -6.037000    0.584000
  H     -5.287000   -0.344000    0.100000
  H     -3.780000   -3.601000    1.947000
  H      3.587000   -6.868000   -1.843000
  H     -2.276000   -4.774000   -0.050000
  H      3.714000   -3.724000    1.926000
  H      5.092000   -5.795000    1.871000
  H      6.205000   -7.329000   -0.439000
  H      5.393000   -7.917000    1.042000
  H      4.759000   -8.373000   -0.564000
  H      0.329000   -5.290000   -0.008000
  H      2.146000   -4.842000   -1.940000
  H      5.808000    4.986000   -1.956000
  H      4.788000   -2.281000   -0.185000
  H      4.860000    2.114000    1.912000
  H      6.901000    3.531000    1.772000
  H      7.383000    6.109000    0.356000
  H      8.414000    4.652000    0.435000
  H      7.921000    5.310000   -1.150000
  H      5.283000    0.336000   -0.179000
  H      3.720000    3.632000   -1.967000

 Total Charge           Charge          ....    0
 Multiplicity           Mult            ....    1
 Number of Electrons    NEL             ....  358
 Basis Dimension        Dim             ....  918

ORBITAL ENERGIES
----------------

  NO   OCC          E(Eh)            E(eV)
   0   2.0000     -15.675593      -426.5546
   1   2.0000     -15.636574      -425.4928
   2   2.0000     -15.624154      -425.1548
   3   2.0000     -15.601243      -424.5314
   4   2.0000     -15.518578      -422.2820
   5   2.0000     -15.510317      -422.0572
   6   2.0000     -15.447895      -420.3586
   7   2.0000     -15.433902      -419.9778
   8   2.0000     -11.324453      -308.1540
   9   2.0000     -11.324019      -308.1422
  10   2.0000     -11.323011      -308.1148
  11   2.0000     -11.301053      -307.5173
  12   2.0000     -11.294826      -307.3478
  13   2.0000     -11.293029      -307.2990
  14   2.0000     -11.289461      -307.2018
  15   2.0000     -11.284273      -307.0607
  16   2.0000     -11.278861      -306.9134
  17   2.0000     -11.278456      -306.9024
  18   2.0000     -11.275026      -306.8090
  19   2.0000     -11.263895      -306.5062
  20   2.0000     -11.260866      -306.4238
  21   2.0000     -11.259327      -306.3819
  22   2.0000     -11.258654      -306.3635
  23   2.0000     -11.239877      -305.8526
  24   2.0000     -11.232210      -305.6440
  25   2.0000     -11.231348      -305.6205
  26   2.0000     -11.228387      -305.5400
  27   2.0000     -11.223060      -305.3950
  28   2.0000     -11.222795      -305.3878
  29   2.0000     -11.207586      -304.9739
  30   2.0000     -11.206355      -304.9404
  31   2.0000     -11.205538      -304.9182
  32   2.0000     -11.202932      -304.8473
  33   2.0000     -11.202683      -304.8405
  34   2.0000     -11.188118      -304.4442
  35   2.0000     -11.187812      -304.4359
  36   2.0000     -11.184133      -304.3357
  37   2.0000     -11.183428      -304.3166
  38   2.0000     -11.182259      -304.2847
  39   2.0000     -11.167775      -303.8906
  40   2.0000     -11.166202      -303.8478
  41   2.0000     -11.163392      -303.7713
  42   2.0000     -11.159149      -303.6559
  43   2.0000     -11.157397      -303.6082
  44   2.0000     -11.155969      -303.5694
  45   2.0000     -11.155738      -303.5631
  46   2.0000     -11.153469      -303.5013
  47   2.0000     -11.151219      -303.4401
  48   2.0000     -11.148129      -303.3560
  49   2.0000     -11.142045      -303.1905
  50   2.0000     -11.127592      -302.7972
  51   2.0000     -11.124403      -302.7104
  52   2.0000      -1.355880       -36.8954
  53   2.0000      -1.323459       -36.0132
  54   2.0000      -1.312450       -35.7136
  55   2.0000      -1.293128       -35.1878
  56   2.0000      -1.219104       -33.1735
  57   2.0000      -1.206924       -32.8421
  58   2.0000      -1.168816       -31.8051
  59   2.0000      -1.146208       -31.1899
  60   2.0000      -1.138228       -30.9728
  61   2.0000      -1.111375       -30.2421
  62   2.0000      -1.101914       -29.9846
  63   2.0000      -1.084661       -29.5151
  64   2.0000      -1.077282       -29.3143
  65   2.0000      -1.047333       -28.4994
  66   2.0000      -1.037171       -28.2229
  67   2.0000      -1.035907       -28.1885
  68   2.0000      -1.019173       -27.7331
  69   2.0000      -1.013521       -27.5793
  70   2.0000      -1.005865       -27.3710
  71   2.0000      -0.989816       -26.9343
  72   2.0000      -0.984397       -26.7868
  73   2.0000      -0.976557       -26.5735
  74   2.0000      -0.969655       -26.3857
  75   2.0000      -0.959674       -26.1141
  76   2.0000      -0.950974       -25.8773
  77   2.0000      -0.945977       -25.7413
  78   2.0000      -0.928523       -25.2664
  79   2.0000      -0.919570       -25.0228
  80   2.0000      -0.904611       -24.6157
  81   2.0000      -0.888762       -24.1845
  82   2.0000      -0.874871       -23.8065
  83   2.0000      -0.868447       -23.6316
  84   2.0000      -0.864238       -23.5171
  85   2.0000      -0.852715       -23.2036
  86   2.0000      -0.845503       -23.0073
  87   2.0000      -0.832733       -22.6598
  88   2.0000      -0.822423       -22.3793
  89   2.0000      -0.796498       -21.6738
  90   2.0000      -0.793122       -21.5820
  91   2.0000      -0.749049       -20.3827
  92   2.0000      -0.734162       -19.9776
  93   2.0000      -0.727046       -19.7839
  94   2.0000      -0.722024       -19.6473
  95   2.0000      -0.716341       -19.4926
  96   2.0000      -0.711207       -19.3529
  97   2.0000      -0.706955       -19.2372
  98   2.0000      -0.700578       -19.0637
  99   2.0000      -0.694382       -18.8951
 100   2.0000      -0.693743       -18.8777
 101   2.0000      -0.683568       -18.6008
 102   2.0000      -0.679772       -18.4975
 103   2.0000      -0.677936       -18.4476
 104   2.0000      -0.672184       -18.2911
 105   2.0000      -0.668786       -18.1986
 106   2.0000      -0.666260       -18.1299
 107   2.0000      -0.656770       -17.8716
 108   2.0000      -0.654797       -17.8179
 109   2.0000      -0.652309       -17.7502
 110   2.0000      -0.648482       -17.6461
 111   2.0000      -0.646348       -17.5880
 112   2.0000      -0.641729       -17.4623
 113   2.0000      -0.640027       -17.4160
 114   2.0000      -0.634439       -17.2640
 115   2.0000      -0.630126       -17.1466
 116   2.0000      -0.622536       -16.9401
 117   2.0000      -0.616080       -16.7644
 118   2.0000      -0.613882       -16.7046
 119   2.0000      -0.609962       -16.5979
 120   2.0000      -0.607006       -16.5175
 121   2.0000      -0.604946       -16.4614
 122   2.0000      -0.596064       -16.2197
 123   2.0000      -0.589815       -16.0497
 124   2.0000      -0.588116       -16.0034
 125   2.0000      -0.582989       -15.8639
 126   2.0000      -0.575644       -15.6641
 127   2.0000      -0.573319       -15.6008
 128   2.0000      -0.567324       -15.4377
 129   2.0000      -0.560612       -15.2550
 130   2.0000      -0.557223       -15.1628
 131   2.0000      -0.547407       -14.8957
 132   2.0000      -0.542213       -14.7544
 133   2.0000      -0.539111       -14.6700
 134   2.0000      -0.534700       -14.5499
 135   2.0000      -0.531634       -14.4665
 136   2.0000      -0.521639       -14.1945
 137   2.0000      -0.519247       -14.1294
 138   2.0000      -0.515147       -14.0179
 139   2.0000      -0.512268       -13.9395
 140   2.0000      -0.511129       -13.9085
 141   2.0000      -0.507669       -13.8144
 142   2.0000      -0.502890       -13.6843
 143   2.0000      -0.499752       -13.5989
 144   2.0000      -0.496486       -13.5101
 145   2.0000      -0.495234       -13.4760
 146   2.0000      -0.493521       -13.4294
 147   2.0000      -0.486040       -13.2258
 148   2.0000      -0.482775       -13.1370
 149   2.0000      -0.464956       -12.6521
 150   2.0000      -0.462750       -12.5921
 151   2.0000      -0.455305       -12.3895
 152   2.0000      -0.449460       -12.2304
 153   2.0000      -0.442348       -12.0369
 154   2.0000      -0.439954       -11.9718
 155   2.0000      -0.438579       -11.9343
 156   2.0000      -0.428122       -11.6498
 157   2.0000      -0.421574       -11.4716
 158   2.0000      -0.400395       -10.8953
 159   2.0000      -0.383141       -10.4258
 160   2.0000      -0.382872       -10.4185
 161   2.0000      -0.373278       -10.1574
 162   2.0000      -0.361974        -9.8498
 163   2.0000      -0.358058        -9.7432
 164   2.0000      -0.349406        -9.5078
 165   2.0000      -0.338934        -9.2229
 166   2.0000      -0.336739        -9.1631
 167   2.0000      -0.334051        -9.0900
 168   2.0000      -0.319767        -8.7013
 169   2.0000      -0.299512        -8.1501
 170   2.0000      -0.297611        -8.0984
 171   2.0000      -0.285712        -7.7746
 172   2.0000      -0.282761        -7.6943
 173   2.0000      -0.261322        -7.1109
 174   2.0000      -0.238445        -6.4884
 175   2.0000      -0.185434        -5.0459
 176   2.0000      -0.175308        -4.7704
 177   2.0000      -0.062941        -1.7127
 178   2.0000      -0.051578        -1.4035
 179   0.0000       0.033654         0.9158
 180   0.0000       0.063739         1.7344
 181   0.0000       0.091959         2.5023
 182   0.0000       0.096407         2.6234
 183   0.0000       0.110623         3.0102

MULLIKEN ATOMIC CHARGES
-----------------------
   0 C :    0.222846
   1 N :   -0.426754
   2 C :   -0.066378
   3 N :   -0.340650
   4 C :   -0.073486
   5 N :   -0.565074
   6 C :   -0.037978
   7 N :   -0.336971
   8 C :    0.220192
   9 N :   -0.565218
  10 C :    0.108491
  11 N :   -0.438109
  12 C :   -0.062417
  13 N :   -0.446967
  14 C :    0.229895
  15 N :   -0.441081
  16 C :    0.247283
  17 C :   -0.043153
  18 C :   -0.194434
  19 C :    0.236749
  20 C :    0.197747
  21 C :   -0.073778
  22 C :   -0.087029
  23 C :   -0.059615
  24 C :    0.214507
  25 C :    0.114061
  26 C :   -0.069045
  27 C :    0.238359
  28 C :   -0.044358
  29 C :   -0.193035
  30 C :    0.226387
  31 C :    0.195849
  32 C :   -0.066304
  33 C :   -0.095125
  34 C :   -0.050763
  35 C :    0.188104
  36 C :    0.118492
  37 C :   -0.069169
  38 C :    0.241195
  39 C :   -0.063529
  40 C :   -0.198878
  41 C :    0.218680
  42 C :    0.209217
  43 C :   -0.075440
  44 C :   -0.090145
  45 C :   -0.043574
  46 C :    0.192100
  47 C :    0.116168
  48 C :   -0.078995
  49 C :    0.215336
  50 C :   -0.061572
  51 C :   -0.189188
  52 H :    0.070704
  53 H :   -0.010156
  54 H :    0.057017
  55 H :    0.068389
  56 H :    0.073513
  57 H :    0.067709
  58 H :    0.066551
  59 H :   -0.022579
  60 H :    0.057655
  61 H :    0.175479
  62 H :    0.169750
  63 H :    0.055282
  64 H :   -0.027932
  65 H :    0.044562
  66 H :    0.057131
  67 H :    0.060881
  68 H :    0.057546
  69 H :    0.059614
  70 H :   -0.018629
  71 H :    0.048105
  72 H :    0.044381
  73 H :   -0.018408
  74 H :    0.035715
  75 H :    0.043279
  76 H :    0.051927
  77 H :    0.050453
  78 H :    0.049697
  79 H :   -0.012617
  80 H :    0.035725
  81 H :    0.051762
  82 H :   -0.022766
  83 H :    0.043301
  84 H :    0.051184
  85 H :    0.056450
  86 H :    0.056563
  87 H :    0.055430
  88 H :   -0.027133
  89 H :    0.041021
Sum of atomic charges:   -0.0000000

LOEWDIN ATOMIC CHARGES
----------------------
   0 C :    0.020897
   1 N :    0.167174
   2 C :   -0.100564
   3 N :    0.174636
   4 C :    0.079715
   5 N :   -0.144486
   6 C :   -0.013167
   7 N :    0.177883
   8 C :    0.018527
   9 N :   -0.139055
  10 C :    0.034954
  11 N :    0.143203
  12 C :   -0.098859
  13 N :    0.123755
  14 C :   -0.055739
  15 N :    0.136697
  16 C :   -0.028391
  17 C :   -0.015047
  18 C :   -0.114454
  19 C :   -0.088369
  20 C :   -0.008850
  21 C :   -0.101035
  22 C :    0.041131
  23 C :   -0.027742
  24 C :    0.006159
  25 C :    0.030107
  26 C :   -0.097012
  27 C :   -0.070571
  28 C :   -0.016741
  29 C :   -0.115354
  30 C :   -0.057995
  31 C :   -0.016698
  32 C :   -0.101968
  33 C :    0.010624
  34 C :   -0.024471
  35 C :   -0.023505
  36 C :    0.025512
  37 C :   -0.106969
  38 C :   -0.034442
  39 C :   -0.030873
  40 C :   -0.111933
  41 C :   -0.092647
  42 C :   -0.001119
  43 C :   -0.109823
  44 C :    0.030995
  45 C :   -0.017079
  46 C :   -0.015899
  47 C :    0.028724
  48 C :   -0.110317
  49 C :   -0.106593
  50 C :   -0.029413
  51 C :   -0.108439
  52 H :    0.036884
  53 H :    0.006183
  54 H :    0.050371
  55 H :    0.036131
  56 H :    0.033954
  57 H :    0.035750
  58 H :    0.035895
  59 H :    0.001252
  60 H :    0.050458
  61 H :    0.061866
  62 H :    0.058809
  63 H :    0.030108
  64 H :   -0.003520
  65 H :    0.043754
  66 H :    0.030711
  67 H :    0.027655
  68 H :    0.031747
  69 H :    0.031631
  70 H :    0.000671
  71 H :    0.045840
  72 H :    0.025176
  73 H :    0.002144
  74 H :    0.040324
  75 H :    0.024346
  76 H :    0.022941
  77 H :    0.027954
  78 H :    0.027640
  79 H :    0.005065
  80 H :    0.039642
  81 H :    0.028441
  82 H :   -0.001346
  83 H :    0.044100
  84 H :    0.027857
  85 H :    0.025323
  86 H :    0.030492
  87 H :    0.030548
  88 H :   -0.003646
  89 H :    0.041773

  Mayer bond orders larger than 0.100000
B(  0-C ,  1-N ) :   1.1611 B(  0-C , 17-C ) :   1.5726 B(  0-C , 52-H ) :   0.9683
B(  1-N ,  8-C ) :   1.1562 B(  1-N , 10-C ) :   0.9429 B(  2-C , 12-C ) :   1.5576
B(  2-C , 16-C ) :   1.2985 B(  2-C , 53-H ) :   0.9786 B(  3-N , 14-C ) :   1.1857
B(  3-N , 16-C ) :   1.2018 B(  3-N , 61-H ) :   0.8965 B(  4-C ,  6-C ) :   1.3135
B(  4-C , 17-C ) :   1.3190 B(  4-C , 18-C ) :   1.1463 B(  5-N , 19-C ) :   1.3864
B(  5-N , 27-C ) :   1.4311 B(  6-C ,  8-C ) :   1.5781 B(  6-C , 54-H ) :   0.9713
B(  7-N , 30-C ) :   1.1889 B(  7-N , 38-C ) :   1.2098 B(  7-N , 62-H ) :   0.9001
B(  8-C , 55-H ) :   0.9689 B(  9-N , 41-C ) :   1.4249 B(  9-N , 49-C ) :   1.4010
B( 10-C , 56-H ) :   0.9764 B( 10-C , 57-H ) :   0.9812 B( 10-C , 58-H ) :   0.9826
B( 11-N , 20-C ) :   1.1118 B( 11-N , 24-C ) :   1.1330 B( 11-N , 25-C ) :   0.9591
B( 12-C , 14-C ) :   1.2986 B( 12-C , 59-H ) :   0.9772 B( 13-N , 31-C ) :   1.0976
B( 13-N , 35-C ) :   1.0893 B( 13-N , 36-C ) :   0.9735 B( 14-C , 18-C ) :   1.2319
B( 15-N , 42-C ) :   1.1229 B( 15-N , 46-C ) :   1.1005 B( 15-N , 47-C ) :   0.9642
B( 16-C , 51-C ) :   1.2222 B( 17-C , 60-H ) :   0.9713 B( 18-C , 19-C ) :   1.2711
B( 19-C , 21-C ) :   1.1821 B( 20-C , 28-C ) :   1.6235 B( 20-C , 63-H ) :   0.9705
B( 21-C , 26-C ) :   1.6660 B( 21-C , 64-H ) :   0.9724 B( 22-C , 23-C ) :   1.2700
B( 22-C , 28-C ) :   1.2801 B( 22-C , 29-C ) :   1.2434 B( 23-C , 24-C ) :   1.6247
B( 23-C , 65-H ) :   0.9716 B( 24-C , 66-H ) :   0.9689 B( 25-C , 67-H ) :   0.9763
B( 25-C , 68-H ) :   0.9831 B( 25-C , 69-H ) :   0.9819 B( 26-C , 27-C ) :   1.1875
B( 26-C , 70-H ) :   0.9746 B( 27-C , 29-C ) :   1.2384 B( 28-C , 71-H ) :   0.9711
B( 29-C , 30-C ) :   1.1876 B( 30-C , 32-C ) :   1.3377 B( 31-C , 39-C ) :   1.6631
B( 31-C , 72-H ) :   0.9705 B( 32-C , 37-C ) :   1.5210 B( 32-C , 73-H ) :   0.9773
B( 33-C , 34-C ) :   1.2491 B( 33-C , 39-C ) :   1.2420 B( 33-C , 40-C ) :   1.3135
B( 34-C , 35-C ) :   1.6610 B( 34-C , 74-H ) :   0.9708 B( 35-C , 75-H ) :   0.9704
B( 36-C , 76-H ) :   0.9758 B( 36-C , 77-H ) :   0.9824 B( 36-C , 78-H ) :   0.9835
B( 37-C , 38-C ) :   1.3353 B( 37-C , 79-H ) :   0.9787 B( 38-C , 40-C ) :   1.1883
B( 39-C , 80-H ) :   0.9719 B( 40-C , 41-C ) :   1.1898 B( 41-C , 43-C ) :   1.2371
B( 42-C , 50-C ) :   1.6376 B( 42-C , 81-H ) :   0.9696 B( 43-C , 48-C ) :   1.6141
B( 43-C , 82-H ) :   0.9749 B( 44-C , 45-C ) :   1.2778 B( 44-C , 50-C ) :   1.2572
B( 44-C , 51-C ) :   1.2503 B( 45-C , 46-C ) :   1.6318 B( 45-C , 83-H ) :   0.9706
B( 46-C , 84-H ) :   0.9706 B( 47-C , 85-H ) :   0.9760 B( 47-C , 86-H ) :   0.9826
B( 47-C , 87-H ) :   0.9828 B( 48-C , 49-C ) :   1.2334 B( 48-C , 88-H ) :   0.9731
B( 49-C , 51-C ) :   1.2056 B( 50-C , 89-H ) :   0.9719

MP2 TOTAL ENERGY:    -2130.896413835 Eh
FINAL SINGLE POINT ENERGY     -2130.896413835136

DIPOLE MOMENT
-------------
                                X             Y             Z
Electronic contribution:     -2.85443       2.57418      -0.08998
Nuclear contribution   :      0.06838       0.23417       0.10801
                        -----------------------------------------
Total Dipole Moment    :     -2.78605       2.80836       0.01803
                        -----------------------------------------
Magnitude (a.u.)       :      3.95592
Magnitude (Debye)      :     10.05514

Rotational constants in cm-1:     0.001498     0.001473     0.000763
Rotational constants in MHz :    44.913440    44.159559    22.859260

                             ****ORCA TERMINATED NORMALLY****
TOTAL RUN TIME: 0 days 1 hours 21 minutes 30 seconds 328 msec
